 Entering Gaussian System, Link 0=g16
 Input=brhocl_oop_10_sp.gjf
 Output=brhocl_oop_10_sp.log
 Initial command:
 /sw/contrib/gaussian/g16/B01/g16/l1.exe "/scr/Gau-16397.inp" -scrdir="/scr/"
 Entering Link 1 = /sw/contrib/gaussian/g16/B01/g16/l1.exe PID=     16398.
  
 Copyright (c) 1988-2017, Gaussian, Inc.  All Rights Reserved.
  
 This is part of the Gaussian(R) 16 program.  It is based on
 the Gaussian(R) 09 system (copyright 2009, Gaussian, Inc.),
 the Gaussian(R) 03 system (copyright 2003, Gaussian, Inc.),
 the Gaussian(R) 98 system (copyright 1998, Gaussian, Inc.),
 the Gaussian(R) 94 system (copyright 1995, Gaussian, Inc.),
 the Gaussian 92(TM) system (copyright 1992, Gaussian, Inc.),
 the Gaussian 90(TM) system (copyright 1990, Gaussian, Inc.),
 the Gaussian 88(TM) system (copyright 1988, Gaussian, Inc.),
 the Gaussian 86(TM) system (copyright 1986, Carnegie Mellon
 University), and the Gaussian 82(TM) system (copyright 1983,
 Carnegie Mellon University). Gaussian is a federally registered
 trademark of Gaussian, Inc.
  
 This software contains proprietary and confidential information,
 including trade secrets, belonging to Gaussian, Inc.
  
 This software is provided under written license and may be
 used, copied, transmitted, or stored only in accord with that
 written license.
  
 The following legend is applicable only to US Government
 contracts under FAR:
  
                    RESTRICTED RIGHTS LEGEND
  
 Use, reproduction and disclosure by the US Government is
 subject to restrictions as set forth in subparagraphs (a)
 and (c) of the Commercial Computer Software - Restricted
 Rights clause in FAR 52.227-19.
  
 Gaussian, Inc.
 340 Quinnipiac St., Bldg. 40, Wallingford CT 06492
  
  
 ---------------------------------------------------------------
 Warning -- This program may not be used in any manner that
 competes with the business of Gaussian, Inc. or will provide
 assistance to any competitor of Gaussian, Inc.  The licensee
 of this program is prohibited from giving any competitor of
 Gaussian, Inc. access to this program.  By using this program,
 the user acknowledges that Gaussian, Inc. is engaged in the
 business of creating and licensing software in the field of
 computational chemistry and represents and warrants to the
 licensee that it is not a competitor of Gaussian, Inc. and that
 it will not use this program in any manner prohibited above.
 ---------------------------------------------------------------
  

 Cite this work as:
 Gaussian 16, Revision B.01,
 M. J. Frisch, G. W. Trucks, H. B. Schlegel, G. E. Scuseria, 
 M. A. Robb, J. R. Cheeseman, G. Scalmani, V. Barone, 
 G. A. Petersson, H. Nakatsuji, X. Li, M. Caricato, A. V. Marenich, 
 J. Bloino, B. G. Janesko, R. Gomperts, B. Mennucci, H. P. Hratchian, 
 J. V. Ortiz, A. F. Izmaylov, J. L. Sonnenberg, D. Williams-Young, 
 F. Ding, F. Lipparini, F. Egidi, J. Goings, B. Peng, A. Petrone, 
 T. Henderson, D. Ranasinghe, V. G. Zakrzewski, J. Gao, N. Rega, 
 G. Zheng, W. Liang, M. Hada, M. Ehara, K. Toyota, R. Fukuda, 
 J. Hasegawa, M. Ishida, T. Nakajima, Y. Honda, O. Kitao, H. Nakai, 
 T. Vreven, K. Throssell, J. A. Montgomery, Jr., J. E. Peralta, 
 F. Ogliaro, M. J. Bearpark, J. J. Heyd, E. N. Brothers, K. N. Kudin, 
 V. N. Staroverov, T. A. Keith, R. Kobayashi, J. Normand, 
 K. Raghavachari, A. P. Rendell, J. C. Burant, S. S. Iyengar, 
 J. Tomasi, M. Cossi, J. M. Millam, M. Klene, C. Adamo, R. Cammi, 
 J. W. Ochterski, R. L. Martin, K. Morokuma, O. Farkas, 
 J. B. Foresman, and D. J. Fox, Gaussian, Inc., Wallingford CT, 2016.
 
 ******************************************
 Gaussian 16:  ES64L-G16RevB.01 20-Dec-2017
                 5-Nov-2021 
 ******************************************
 %nproc=28
 Will use up to   28 processors via shared memory.
 %mem=120GB
 %chk=/gscratch/ilahie/mccoygrp/coire_hocl/oop_s_rOH_f/brhocl/brhocl_oop_0_sp.chk
 ----------------------------------------------------
 #p pop=NBO SP NoSymm mp2/aug-cc-pvtz density=current
 ----------------------------------------------------
 1/30=1,38=1,172=1/1;
 2/12=2,15=1,17=6,18=5,40=1/2;
 3/5=16,6=1,7=10,11=9,25=1,30=1,71=1/1,2,3;
 4//1;
 5/5=2,38=5/2;
 8/6=4,10=1/1;
 9/15=1,16=-3/6;
 10/5=1,13=10,31=1/2;
 6/7=2,8=2,9=2,10=2,22=-1,40=1/1,7;
 99/5=1,9=1/99;
 Leave Link    1 at Fri Nov  5 16:35:33 2021, MaxMem= 16106127360 cpu:               1.2 elap:               0.0
 (Enter /sw/contrib/gaussian/g16/B01/g16/l101.exe)
 -----
 title
 -----
 Symbolic Z-matrix:
 Charge = -1 Multiplicity = 1
 O
 X                    1     10. 
 Cl                   1    r1       2     90. 
 Br                   1    r2       2     90.      3    a1       0
 H                    1    r3       2    oop      3    a1       0
       Variables:
  r1                    1.6971                   
  r2                    3.09319                  
  r3                    0.96862                  
  a1                  102.4843                   
  OOP                  80.                       
 
 ITRead=  0  0  0  0
 MicOpt= -1 -1 -1 -1
 NAtoms=      4 NQM=        4 NQMF=       0 NMMI=      0 NMMIF=      0
                NMic=       0 NMicF=      0.
                    Isotopes and Nuclear Properties:
 (Nuclear quadrupole moments (NQMom) in fm**2, nuclear magnetic moments (NMagM)
  in nuclear magnetons)

  Atom         1           2           3           4
 IAtWgt=          16          35          79           1
 AtmWgt=  15.9949146  34.9688527  78.9183361   1.0078250
 NucSpn=           0           3           3           1
 AtZEff=  -0.0000000  -0.0000000  -0.0000000  -0.0000000
 NQMom=    0.0000000  -8.1650000  31.3000000   0.0000000
 NMagM=    0.0000000   0.8218740   2.1063990   2.7928460
 AtZNuc=   8.0000000  17.0000000  35.0000000   1.0000000
 Leave Link  101 at Fri Nov  5 16:35:33 2021, MaxMem= 16106127360 cpu:               2.2 elap:               0.1
 (Enter /sw/contrib/gaussian/g16/B01/g16/l202.exe)
                          Input orientation:                          
 ---------------------------------------------------------------------
 Center     Atomic      Atomic             Coordinates (Angstroms)
 Number     Number       Type             X           Y           Z
 ---------------------------------------------------------------------
      1          8           0        0.000000    0.000000    0.000000
      2         17           0        1.697102    0.000000    0.000000
      3         35           0       -0.668661   -3.020050    0.000000
      4          1           0       -0.206208   -0.931353    0.168200
 ---------------------------------------------------------------------
                    Distance matrix (angstroms):
                    1          2          3          4
     1  O    0.000000
     2  Cl   1.697102   0.000000
     3  Br   3.093188   3.836344   0.000000
     4  H    0.968623   2.125629   2.145882   0.000000
 Symmetry turned off by external request.
 Stoichiometry    BrClHO(1-)
 Framework group  C1[X(BrClHO)]
 Deg. of freedom     6
 Full point group                 C1      NOp   1
 Rotational constants (GHZ):          21.8722249           1.2764183           1.2061956
 Leave Link  202 at Fri Nov  5 16:35:33 2021, MaxMem= 16106127360 cpu:               0.3 elap:               0.0
 (Enter /sw/contrib/gaussian/g16/B01/g16/l301.exe)
 Standard basis: Aug-CC-pVTZ (5D, 7F)
 Ernie: Thresh=  0.10000D-02 Tol=  0.10000D-05 Strict=F.
 Ernie:  48 primitive shells out of 228 were deleted.
   178 basis functions,   430 primitive gaussians,   208 cartesian basis functions
    31 alpha electrons       31 beta electrons
       nuclear repulsion energy       189.6152021172 Hartrees.
 IExCor=    0 DFT=F Ex=HF Corr=None ExCW=0 ScaHFX=  1.000000
 ScaDFX=  1.000000  1.000000  1.000000  1.000000 ScalE2=  1.000000  1.000000
 IRadAn=      5 IRanWt=     -1 IRanGd=            0 ICorTp=0 IEmpDi=  4
 NAtoms=    4 NActive=    4 NUniq=    4 SFac= 1.00D+00 NAtFMM=   60 NAOKFM=F Big=F
 Integral buffers will be    131072 words long.
 Raffenetti 1 integral format.
 Two-electron integral symmetry is turned off.
 Leave Link  301 at Fri Nov  5 16:35:33 2021, MaxMem= 16106127360 cpu:               1.4 elap:               0.1
 (Enter /sw/contrib/gaussian/g16/B01/g16/l302.exe)
 NPDir=0 NMtPBC=     1 NCelOv=     1 NCel=       1 NClECP=     1 NCelD=      1
         NCelK=      1 NCelE2=     1 NClLst=     1 CellRange=     0.0.
 One-electron integrals computed using PRISM.
 NBasis=   178 RedAO= T EigKep=  2.33D-04  NBF=   178
 NBsUse=   178 1.00D-06 EigRej= -1.00D+00 NBFU=   178
 Leave Link  302 at Fri Nov  5 16:35:34 2021, MaxMem= 16106127360 cpu:               4.9 elap:               0.2
 (Enter /sw/contrib/gaussian/g16/B01/g16/l303.exe)
 DipDrv:  MaxL=1.
 Leave Link  303 at Fri Nov  5 16:35:34 2021, MaxMem= 16106127360 cpu:               0.7 elap:               0.0
 (Enter /sw/contrib/gaussian/g16/B01/g16/l401.exe)
 ExpMin= 2.53D-02 ExpMax= 1.06D+07 ExpMxC= 1.21D+04 IAcc=3 IRadAn=         5 AccDes= 0.00D+00
 Harris functional with IExCor=  205 and IRadAn=       5 diagonalized for initial guess.
 HarFok:  IExCor=  205 AccDes= 0.00D+00 IRadAn=         5 IDoV= 1 UseB2=F ITyADJ=14
 ICtDFT=  3500011 ScaDFX=  1.000000  1.000000  1.000000  1.000000
 FoFCou: FMM=F IPFlag=           0 FMFlag=      100000 FMFlg1=           0
         NFxFlg=           0 DoJE=T BraDBF=F KetDBF=T FulRan=T
         wScrn=  0.000000 ICntrl=       500 IOpCl=  0 I1Cent=   200000004 NGrid=           0
         NMat0=    1 NMatS0=      1 NMatT0=    0 NMatD0=    1 NMtDS0=    0 NMtDT0=    0
 Symmetry not used in FoFCou.
 Harris En= -3106.39191732995    
 JPrj=0 DoOrth=F DoCkMO=F.
 Leave Link  401 at Fri Nov  5 16:35:34 2021, MaxMem= 16106127360 cpu:               9.2 elap:               0.4
 (Enter /sw/contrib/gaussian/g16/B01/g16/l502.exe)
 Keep R1 ints in memory in canonical form, NReq=149454910.
 FoFCou: FMM=F IPFlag=           0 FMFlag=           0 FMFlg1=           0
         NFxFlg=           0 DoJE=F BraDBF=F KetDBF=F FulRan=T
         wScrn=  0.000000 ICntrl=       600 IOpCl=  0 I1Cent=           0 NGrid=           0
         NMat0=    1 NMatS0=  15931 NMatT0=    0 NMatD0=    1 NMtDS0=    0 NMtDT0=    0
 Symmetry not used in FoFCou.
 Two-electron integral symmetry not used.
 Closed shell SCF:
 Using DIIS extrapolation, IDIIS=  1040.
 NGot= 16106127360 LenX= 15979127348 LenY= 15979083643
 Requested convergence on RMS density matrix=1.00D-08 within 128 cycles.
 Requested convergence on MAX density matrix=1.00D-06.
 Requested convergence on             energy=1.00D-06.
 No special actions if energy rises.

 Cycle   1  Pass 1  IDiag  1:
 E= -3107.31160016286    
 DIIS: error= 6.11D-02 at cycle   1 NSaved=   1.
 NSaved= 1 IEnMin= 1 EnMin= -3107.31160016286     IErMin= 1 ErrMin= 6.11D-02
 ErrMax= 6.11D-02  0.00D+00 EMaxC= 1.00D-01 BMatC= 6.36D-01 BMatP= 6.36D-01
 IDIUse=3 WtCom= 3.89D-01 WtEn= 6.11D-01
 Coeff-Com:  0.100D+01
 Coeff-En:   0.100D+01
 Coeff:      0.100D+01
 Gap=     0.560 Goal=   None    Shift=    0.000
 GapD=    0.560 DampG=2.000 DampE=0.500 DampFc=1.0000 IDamp=-1.
 RMSDP=2.99D-03 MaxDP=9.75D-02              OVMax= 1.21D-01

 Cycle   2  Pass 1  IDiag  1:
 E= -3107.44885048352     Delta-E=       -0.137250320658 Rises=F Damp=F
 DIIS: error= 1.51D-02 at cycle   2 NSaved=   2.
 NSaved= 2 IEnMin= 2 EnMin= -3107.44885048352     IErMin= 2 ErrMin= 1.51D-02
 ErrMax= 1.51D-02  0.00D+00 EMaxC= 1.00D-01 BMatC= 4.56D-02 BMatP= 6.36D-01
 IDIUse=3 WtCom= 8.49D-01 WtEn= 1.51D-01
 Coeff-Com:  0.139D+00 0.861D+00
 Coeff-En:   0.000D+00 0.100D+01
 Coeff:      0.118D+00 0.882D+00
 Gap=     0.329 Goal=   None    Shift=    0.000
 RMSDP=1.10D-03 MaxDP=3.92D-02 DE=-1.37D-01 OVMax= 7.62D-02

 Cycle   3  Pass 1  IDiag  1:
 E= -3107.46884560480     Delta-E=       -0.019995121275 Rises=F Damp=F
 DIIS: error= 7.56D-03 at cycle   3 NSaved=   3.
 NSaved= 3 IEnMin= 3 EnMin= -3107.46884560480     IErMin= 3 ErrMin= 7.56D-03
 ErrMax= 7.56D-03  0.00D+00 EMaxC= 1.00D-01 BMatC= 1.39D-02 BMatP= 4.56D-02
 IDIUse=3 WtCom= 9.24D-01 WtEn= 7.56D-02
 Coeff-Com:  0.668D-02 0.353D+00 0.640D+00
 Coeff-En:   0.000D+00 0.164D+00 0.836D+00
 Coeff:      0.617D-02 0.339D+00 0.655D+00
 Gap=     0.327 Goal=   None    Shift=    0.000
 RMSDP=3.46D-04 MaxDP=1.42D-02 DE=-2.00D-02 OVMax= 3.65D-02

 Cycle   4  Pass 1  IDiag  1:
 E= -3107.47841329491     Delta-E=       -0.009567690109 Rises=F Damp=F
 DIIS: error= 1.17D-03 at cycle   4 NSaved=   4.
 NSaved= 4 IEnMin= 4 EnMin= -3107.47841329491     IErMin= 4 ErrMin= 1.17D-03
 ErrMax= 1.17D-03  0.00D+00 EMaxC= 1.00D-01 BMatC= 1.63D-04 BMatP= 1.39D-02
 IDIUse=3 WtCom= 9.88D-01 WtEn= 1.17D-02
 Coeff-Com: -0.513D-02-0.312D-01 0.392D-01 0.997D+00
 Coeff-En:   0.000D+00 0.000D+00 0.000D+00 0.100D+01
 Coeff:     -0.507D-02-0.309D-01 0.388D-01 0.997D+00
 Gap=     0.326 Goal=   None    Shift=    0.000
 RMSDP=6.09D-05 MaxDP=1.44D-03 DE=-9.57D-03 OVMax= 3.76D-03

 Cycle   5  Pass 1  IDiag  1:
 E= -3107.47860938783     Delta-E=       -0.000196092921 Rises=F Damp=F
 DIIS: error= 2.03D-04 at cycle   5 NSaved=   5.
 NSaved= 5 IEnMin= 5 EnMin= -3107.47860938783     IErMin= 5 ErrMin= 2.03D-04
 ErrMax= 2.03D-04  0.00D+00 EMaxC= 1.00D-01 BMatC= 1.25D-05 BMatP= 1.63D-04
 IDIUse=3 WtCom= 9.98D-01 WtEn= 2.03D-03
 Coeff-Com:  0.841D-03-0.163D-01-0.371D-01-0.185D+00 0.124D+01
 Coeff-En:   0.000D+00 0.000D+00 0.000D+00 0.000D+00 0.100D+01
 Coeff:      0.839D-03-0.163D-01-0.370D-01-0.185D+00 0.124D+01
 Gap=     0.327 Goal=   None    Shift=    0.000
 RMSDP=3.12D-05 MaxDP=1.09D-03 DE=-1.96D-04 OVMax= 2.96D-03

 Cycle   6  Pass 1  IDiag  1:
 E= -3107.47864447018     Delta-E=       -0.000035082355 Rises=F Damp=F
 DIIS: error= 1.10D-04 at cycle   6 NSaved=   6.
 NSaved= 6 IEnMin= 6 EnMin= -3107.47864447018     IErMin= 6 ErrMin= 1.10D-04
 ErrMax= 1.10D-04  0.00D+00 EMaxC= 1.00D-01 BMatC= 1.75D-06 BMatP= 1.25D-05
 IDIUse=3 WtCom= 9.99D-01 WtEn= 1.10D-03
 Coeff-Com:  0.479D-03 0.403D-02-0.550D-03-0.123D+00-0.529D-01 0.117D+01
 Coeff-En:   0.000D+00 0.000D+00 0.000D+00 0.000D+00 0.000D+00 0.100D+01
 Coeff:      0.478D-03 0.402D-02-0.549D-03-0.123D+00-0.529D-01 0.117D+01
 Gap=     0.327 Goal=   None    Shift=    0.000
 RMSDP=1.32D-05 MaxDP=5.39D-04 DE=-3.51D-05 OVMax= 1.46D-03

 Cycle   7  Pass 1  IDiag  1:
 E= -3107.47865041122     Delta-E=       -0.000005941038 Rises=F Damp=F
 DIIS: error= 4.06D-05 at cycle   7 NSaved=   7.
 NSaved= 7 IEnMin= 7 EnMin= -3107.47865041122     IErMin= 7 ErrMin= 4.06D-05
 ErrMax= 4.06D-05  0.00D+00 EMaxC= 1.00D-01 BMatC= 1.88D-07 BMatP= 1.75D-06
 IDIUse=1 WtCom= 1.00D+00 WtEn= 0.00D+00
 Coeff-Com: -0.236D-03 0.928D-03 0.621D-02 0.551D-01-0.161D+00-0.255D+00
 Coeff-Com:  0.135D+01
 Coeff:     -0.236D-03 0.928D-03 0.621D-02 0.551D-01-0.161D+00-0.255D+00
 Coeff:      0.135D+01
 Gap=     0.327 Goal=   None    Shift=    0.000
 RMSDP=5.41D-06 MaxDP=1.92D-04 DE=-5.94D-06 OVMax= 5.63D-04

 Cycle   8  Pass 1  IDiag  1:
 E= -3107.47865113794     Delta-E=       -0.000000726719 Rises=F Damp=F
 DIIS: error= 7.63D-06 at cycle   8 NSaved=   8.
 NSaved= 8 IEnMin= 8 EnMin= -3107.47865113794     IErMin= 8 ErrMin= 7.63D-06
 ErrMax= 7.63D-06  0.00D+00 EMaxC= 1.00D-01 BMatC= 9.79D-09 BMatP= 1.88D-07
 IDIUse=1 WtCom= 1.00D+00 WtEn= 0.00D+00
 Coeff-Com:  0.176D-04-0.573D-03-0.118D-02-0.374D-02 0.299D-01 0.675D-02
 Coeff-Com: -0.323D+00 0.129D+01
 Coeff:      0.176D-04-0.573D-03-0.118D-02-0.374D-02 0.299D-01 0.675D-02
 Coeff:     -0.323D+00 0.129D+01
 Gap=     0.327 Goal=   None    Shift=    0.000
 RMSDP=1.27D-06 MaxDP=2.71D-05 DE=-7.27D-07 OVMax= 1.44D-04

 Cycle   9  Pass 1  IDiag  1:
 E= -3107.47865117800     Delta-E=       -0.000000040061 Rises=F Damp=F
 DIIS: error= 3.37D-06 at cycle   9 NSaved=   9.
 NSaved= 9 IEnMin= 9 EnMin= -3107.47865117800     IErMin= 9 ErrMin= 3.37D-06
 ErrMax= 3.37D-06  0.00D+00 EMaxC= 1.00D-01 BMatC= 1.25D-09 BMatP= 9.79D-09
 IDIUse=1 WtCom= 1.00D+00 WtEn= 0.00D+00
 Coeff-Com:  0.114D-04 0.640D-04-0.149D-03-0.303D-02 0.425D-02 0.197D-01
 Coeff-Com: -0.246D-01-0.357D+00 0.136D+01
 Coeff:      0.114D-04 0.640D-04-0.149D-03-0.303D-02 0.425D-02 0.197D-01
 Coeff:     -0.246D-01-0.357D+00 0.136D+01
 Gap=     0.327 Goal=   None    Shift=    0.000
 RMSDP=5.08D-07 MaxDP=1.34D-05 DE=-4.01D-08 OVMax= 6.52D-05

 Cycle  10  Pass 1  IDiag  1:
 E= -3107.47865118430     Delta-E=       -0.000000006300 Rises=F Damp=F
 DIIS: error= 1.54D-06 at cycle  10 NSaved=  10.
 NSaved=10 IEnMin=10 EnMin= -3107.47865118430     IErMin=10 ErrMin= 1.54D-06
 ErrMax= 1.54D-06  0.00D+00 EMaxC= 1.00D-01 BMatC= 2.14D-10 BMatP= 1.25D-09
 IDIUse=1 WtCom= 1.00D+00 WtEn= 0.00D+00
 Coeff-Com: -0.452D-05 0.107D-03 0.234D-03 0.980D-03-0.634D-02-0.238D-02
 Coeff-Com:  0.616D-01-0.192D+00-0.185D+00 0.132D+01
 Coeff:     -0.452D-05 0.107D-03 0.234D-03 0.980D-03-0.634D-02-0.238D-02
 Coeff:      0.616D-01-0.192D+00-0.185D+00 0.132D+01
 Gap=     0.327 Goal=   None    Shift=    0.000
 RMSDP=2.54D-07 MaxDP=7.24D-06 DE=-6.30D-09 OVMax= 3.19D-05

 Cycle  11  Pass 1  IDiag  1:
 E= -3107.47865118541     Delta-E=       -0.000000001113 Rises=F Damp=F
 DIIS: error= 4.63D-07 at cycle  11 NSaved=  11.
 NSaved=11 IEnMin=11 EnMin= -3107.47865118541     IErMin=11 ErrMin= 4.63D-07
 ErrMax= 4.63D-07  0.00D+00 EMaxC= 1.00D-01 BMatC= 1.55D-11 BMatP= 2.14D-10
 IDIUse=1 WtCom= 1.00D+00 WtEn= 0.00D+00
 Coeff-Com: -0.542D-06-0.314D-04-0.349D-04 0.254D-03 0.633D-03-0.168D-02
 Coeff-Com: -0.987D-02 0.804D-01-0.108D+00-0.308D+00 0.135D+01
 Coeff:     -0.542D-06-0.314D-04-0.349D-04 0.254D-03 0.633D-03-0.168D-02
 Coeff:     -0.987D-02 0.804D-01-0.108D+00-0.308D+00 0.135D+01
 Gap=     0.327 Goal=   None    Shift=    0.000
 RMSDP=7.17D-08 MaxDP=2.19D-06 DE=-1.11D-09 OVMax= 8.65D-06

 Cycle  12  Pass 1  IDiag  1:
 E= -3107.47865118551     Delta-E=       -0.000000000094 Rises=F Damp=F
 DIIS: error= 6.68D-08 at cycle  12 NSaved=  12.
 NSaved=12 IEnMin=12 EnMin= -3107.47865118551     IErMin=12 ErrMin= 6.68D-08
 ErrMax= 6.68D-08  0.00D+00 EMaxC= 1.00D-01 BMatC= 6.62D-13 BMatP= 1.55D-11
 IDIUse=1 WtCom= 1.00D+00 WtEn= 0.00D+00
 Coeff-Com:  0.177D-06-0.326D-05-0.990D-05-0.596D-04 0.292D-03 0.130D-03
 Coeff-Com: -0.247D-02 0.550D-02 0.158D-01-0.546D-01-0.676D-01 0.110D+01
 Coeff:      0.177D-06-0.326D-05-0.990D-05-0.596D-04 0.292D-03 0.130D-03
 Coeff:     -0.247D-02 0.550D-02 0.158D-01-0.546D-01-0.676D-01 0.110D+01
 Gap=     0.327 Goal=   None    Shift=    0.000
 RMSDP=1.14D-08 MaxDP=2.82D-07 DE=-9.41D-11 OVMax= 1.05D-06

 Cycle  13  Pass 1  IDiag  1:
 E= -3107.47865118550     Delta-E=        0.000000000007 Rises=F Damp=F
 DIIS: error= 1.72D-08 at cycle  13 NSaved=  13.
 NSaved=13 IEnMin=12 EnMin= -3107.47865118551     IErMin=13 ErrMin= 1.72D-08
 ErrMax= 1.72D-08  0.00D+00 EMaxC= 1.00D-01 BMatC= 8.28D-14 BMatP= 6.62D-13
 IDIUse=1 WtCom= 1.00D+00 WtEn= 0.00D+00
 Coeff-Com:  0.657D-07 0.264D-05 0.321D-05-0.171D-04-0.706D-04 0.998D-04
 Coeff-Com:  0.116D-02-0.789D-02 0.921D-02 0.321D-01-0.124D+00-0.492D-01
 Coeff-Com:  0.114D+01
 Coeff:      0.657D-07 0.264D-05 0.321D-05-0.171D-04-0.706D-04 0.998D-04
 Coeff:      0.116D-02-0.789D-02 0.921D-02 0.321D-01-0.124D+00-0.492D-01
 Coeff:      0.114D+01
 Gap=     0.327 Goal=   None    Shift=    0.000
 RMSDP=3.84D-09 MaxDP=7.50D-08 DE= 7.28D-12 OVMax= 2.74D-07

 SCF Done:  E(RHF) =  -3107.47865119     A.U. after   13 cycles
            NFock= 13  Conv=0.38D-08     -V/T= 2.0000
 KE= 3.107374623952D+03 PE=-7.821792360226D+03 EE= 1.417323882971D+03
 Leave Link  502 at Fri Nov  5 16:35:38 2021, MaxMem= 16106127360 cpu:              41.1 elap:               4.0
 (Enter /sw/contrib/gaussian/g16/B01/g16/l801.exe)
 ExpMin= 2.53D-02 ExpMax= 1.06D+07 ExpMxC= 1.21D+04 IAcc=3 IRadAn=         5 AccDes= 0.00D+00
 HarFok:  IExCor=  205 AccDes= 0.00D+00 IRadAn=         5 IDoV=-2 UseB2=F ITyADJ=14
 ICtDFT= 12500011 ScaDFX=  1.000000  1.000000  1.000000  1.000000
 Largest valence mixing into a core orbital is  4.48D-04
 Largest core mixing into a valence orbital is  1.60D-04
 Range of M.O.s used for correlation:    16   178
 NBasis=   178 NAE=    31 NBE=    31 NFC=    15 NFV=     0
 NROrb=    163 NOA=    16 NOB=    16 NVA=   147 NVB=   147

 **** Warning!!: The largest alpha MO coefficient is  0.14594789D+02

 Leave Link  801 at Fri Nov  5 16:35:38 2021, MaxMem= 16106127360 cpu:               2.0 elap:               0.1
 (Enter /sw/contrib/gaussian/g16/B01/g16/l906.exe)
 Frozen-core derivative calculation, NFC=  15 NFV=   0.
 FulOut=F Deriv=T AODrv=F NAtomX=     4
   MMem=         124  MDisk=          16 MDiskD=          16
  W3Min=     1147744 MinDsk=     1765480 NBas6D=         208
 NBas2D=       22240    NTT=       21736    LW2=     9911920
    MDV= 16105652851 MDiskM=      387107 NBas2p=       22040
 Fully in-core method, ICMem=   527338992.
 IMap=   1   2   3   4   5   6   7   8   9  10  11  12  13  14  15  16  17  18  19  20
 IMap=  21  22  23  24  25  26  27  28  29  30  31
 JobTyp=1 Pass  1 fully in-core, NPsUse= 28.
 Compute canonical integrals.
 FoFCou: FMM=F IPFlag=           0 FMFlag=           0 FMFlg1=           0
         NFxFlg=           0 DoJE=F BraDBF=F KetDBF=F FulRan=T
         wScrn=  0.000000 ICntrl=       600 IOpCl=  1 I1Cent=           0 NGrid=           0
         NMat0=    1 NMatS0=  22240 NMatT0=    0 NMatD0=    1 NMtDS0=    0 NMtDT0=    0
 Symmetry not used in FoFCou.
 Spin components of T(2) and E(2):
     alpha-alpha T2 =       0.3008571456D-01 E2=     -0.9365702312D-01
     alpha-beta  T2 =       0.1608321775D+00 E2=     -0.5141583373D+00
     beta-beta   T2 =       0.3008571456D-01 E2=     -0.9365702312D-01
 The integrals were generated   1 times.
 ANorm=    0.1104990320D+01
 E2 =    -0.7014723835D+00 EUMP2 =    -0.31081801235690D+04
 Leave Link  906 at Fri Nov  5 16:35:44 2021, MaxMem= 16106127360 cpu:             173.2 elap:               6.2
 (Enter /sw/contrib/gaussian/g16/B01/g16/l1002.exe)
 Minotr:  Closed shell wavefunction.
          Computing MP2/KS-MP2 derivatives.
          Using Z-Vector for PSCF gradient.
          Skipping F1 and S1 gradient terms here.
          Frozen-core window.
          Direct CPHF calculation.
          Differentiating once with respect to electric field.
                with respect to dipole field.
          Electric field/nuclear overlap derivatives assumed to be zero.
          Requested convergence is 1.0D-10 RMS, and 1.0D-09 maximum.
          NewPWx=F KeepS1=T KeepF1=T KeepIn=T MapXYZ=F SortEE=F KeepMc=T.
 Keep R1 ints in memory in canonical form, NReq=149459190.
 FoFCou: FMM=F IPFlag=           0 FMFlag=           0 FMFlg1=           0
         NFxFlg=           0 DoJE=F BraDBF=F KetDBF=F FulRan=T
         wScrn=  0.000000 ICntrl=       600 IOpCl=  0 I1Cent=           0 NGrid=           0
         NMat0=    1 NMatS0=  15931 NMatT0=    0 NMatD0=    1 NMtDS0=    0 NMtDT0=    0
 Symmetry not used in FoFCou.
 Two-electron integral symmetry not used.
          MDV=   16106127360 using IRadAn=       5.
          Solving linear equations separately, MaxMat=       0.
          There are     1 degrees of freedom in the 1st order CPHF.  IDoFFX=0 NUNeed=     1.
 LinEq1:  Iter=  0 NonCon=     1 RMS=2.61D-03 Max=4.22D-02 NDo=     1
 AX will form     1 AO Fock derivatives at one time.
 LinEq1:  Iter=  1 NonCon=     1 RMS=4.12D-04 Max=4.64D-03 NDo=     1
 LinEq1:  Iter=  2 NonCon=     1 RMS=1.97D-04 Max=4.47D-03 NDo=     1
 LinEq1:  Iter=  3 NonCon=     1 RMS=6.40D-05 Max=9.94D-04 NDo=     1
 LinEq1:  Iter=  4 NonCon=     1 RMS=2.72D-05 Max=9.42D-04 NDo=     1
 LinEq1:  Iter=  5 NonCon=     1 RMS=9.88D-06 Max=1.54D-04 NDo=     1
 LinEq1:  Iter=  6 NonCon=     1 RMS=2.23D-06 Max=4.46D-05 NDo=     1
 LinEq1:  Iter=  7 NonCon=     1 RMS=6.39D-07 Max=1.72D-05 NDo=     1
 LinEq1:  Iter=  8 NonCon=     1 RMS=2.22D-07 Max=5.63D-06 NDo=     1
 LinEq1:  Iter=  9 NonCon=     1 RMS=6.24D-08 Max=9.96D-07 NDo=     1
 LinEq1:  Iter= 10 NonCon=     1 RMS=1.51D-08 Max=1.83D-07 NDo=     1
 LinEq1:  Iter= 11 NonCon=     1 RMS=3.29D-09 Max=5.92D-08 NDo=     1
 LinEq1:  Iter= 12 NonCon=     1 RMS=6.48D-10 Max=1.93D-08 NDo=     1
 LinEq1:  Iter= 13 NonCon=     1 RMS=2.06D-10 Max=4.58D-09 NDo=     1
 LinEq1:  Iter= 14 NonCon=     1 RMS=6.19D-11 Max=1.18D-09 NDo=     1
 LinEq1:  Iter= 15 NonCon=     0 RMS=1.11D-11 Max=1.67D-10 NDo=     1
 Linear equations converged to 1.000D-10 1.000D-09 after    15 iterations.
 End of Minotr F.D. properties file   721 does not exist.
 End of Minotr F.D. properties file   722 does not exist.
 End of Minotr F.D. properties file   788 does not exist.
 Leave Link 1002 at Fri Nov  5 16:35:49 2021, MaxMem= 16106127360 cpu:              40.8 elap:               4.7
 (Enter /sw/contrib/gaussian/g16/B01/g16/l601.exe)
 Copying SCF densities to generalized density rwf, IOpCl= 0 IROHF=0.

 **********************************************************************

            Population analysis using the MP2 Density.

 **********************************************************************

 Alpha  occ. eigenvalues -- -489.75123-104.73645 -64.89157 -58.24607 -58.24603
 Alpha  occ. eigenvalues --  -58.24603 -20.46803 -10.45583  -9.56409  -7.92297
 Alpha  occ. eigenvalues --   -7.92031  -7.92021  -7.17182  -7.17137  -7.17136
 Alpha  occ. eigenvalues --   -2.91350  -2.91330  -2.91329  -2.91279  -2.91279
 Alpha  occ. eigenvalues --   -1.24026  -0.90455  -0.72557  -0.55271  -0.44725
 Alpha  occ. eigenvalues --   -0.43824  -0.31469  -0.28815  -0.18103  -0.17179
 Alpha  occ. eigenvalues --   -0.17170
 Alpha virt. eigenvalues --    0.15520   0.17891   0.21619   0.22731   0.24158
 Alpha virt. eigenvalues --    0.24727   0.25039   0.27982   0.30271   0.30614
 Alpha virt. eigenvalues --    0.32325   0.33177   0.35955   0.42716   0.43855
 Alpha virt. eigenvalues --    0.46838   0.48271   0.48750   0.50885   0.54006
 Alpha virt. eigenvalues --    0.54369   0.56522   0.59111   0.59596   0.60121
 Alpha virt. eigenvalues --    0.61301   0.65058   0.70192   0.73737   0.74361
 Alpha virt. eigenvalues --    0.75637   0.77639   0.78695   0.85459   0.88454
 Alpha virt. eigenvalues --    0.89097   0.91187   0.94317   0.99332   1.00269
 Alpha virt. eigenvalues --    1.00704   1.01014   1.01968   1.03940   1.06855
 Alpha virt. eigenvalues --    1.07101   1.08945   1.10219   1.10978   1.12860
 Alpha virt. eigenvalues --    1.15298   1.17947   1.18295   1.19950   1.21145
 Alpha virt. eigenvalues --    1.22012   1.25919   1.29363   1.31751   1.34559
 Alpha virt. eigenvalues --    1.37234   1.38308   1.46813   1.50349   1.52707
 Alpha virt. eigenvalues --    1.53234   1.57321   1.62510   1.65645   1.69619
 Alpha virt. eigenvalues --    1.70708   1.75054   1.78732   1.80950   1.89399
 Alpha virt. eigenvalues --    1.96566   2.13515   2.37355   2.38370   2.41798
 Alpha virt. eigenvalues --    2.44491   2.46956   2.49096   2.50602   2.53058
 Alpha virt. eigenvalues --    2.53464   2.55322   2.55429   2.55797   2.56826
 Alpha virt. eigenvalues --    2.57693   2.60061   2.62775   2.63890   2.65337
 Alpha virt. eigenvalues --    2.67404   2.69189   2.71211   2.71603   2.72383
 Alpha virt. eigenvalues --    2.74810   2.75770   2.77743   2.79602   2.80721
 Alpha virt. eigenvalues --    2.87442   2.96994   3.06646   3.08767   3.15824
 Alpha virt. eigenvalues --    3.18680   3.21206   3.24658   3.27330   3.30208
 Alpha virt. eigenvalues --    3.33474   3.51232   3.53500   3.56611   3.94605
 Alpha virt. eigenvalues --    4.18572   4.34162   4.45970   4.55598   4.58844
 Alpha virt. eigenvalues --    4.77680   4.90412   5.01199   5.17869   5.44377
 Alpha virt. eigenvalues --    5.51834   5.73270   6.38565   6.55767   6.86004
 Alpha virt. eigenvalues --    6.90270   6.91050   6.99275   7.33105   7.38128
 Alpha virt. eigenvalues --    7.42173   7.44803   7.53526   7.79651   7.80445
 Alpha virt. eigenvalues --    8.41248  15.39056
          Condensed to atoms (all electrons):
               1          2          3          4
     1  O    8.616128  -0.102757  -0.082099   0.022801
     2  Cl  -0.102757  17.045908   0.002098  -0.003060
     3  Br  -0.082099   0.002098  35.903967   0.052307
     4  H    0.022801  -0.003060   0.052307   0.655417
 Mulliken charges:
               1
     1  O   -0.454072
     2  Cl   0.057811
     3  Br  -0.876274
     4  H    0.272535
 Sum of Mulliken charges =  -1.00000
 Mulliken charges with hydrogens summed into heavy atoms:
               1
     1  O   -0.181537
     2  Cl   0.057811
     3  Br  -0.876274
 Electronic spatial extent (au):  <R**2>=           1498.4785
 Charge=             -1.0000 electrons
 Dipole moment (field-independent basis, Debye):
    X=              1.8286    Y=             10.8904    Z=              0.1181  Tot=             11.0435
 Quadrupole moment (field-independent basis, Debye-Ang):
   XX=            -45.0849   YY=            -79.0940   ZZ=            -43.1769
   XY=             -8.3608   XZ=             -0.0650   YZ=             -0.0312
 Traceless Quadrupole moment (field-independent basis, Debye-Ang):
   XX=             10.7004   YY=            -23.3087   ZZ=             12.6084
   XY=             -8.3608   XZ=             -0.0650   YZ=             -0.0312
 Octapole moment (field-independent basis, Debye-Ang**2):
  XXX=            -16.6436  YYY=            320.2916  ZZZ=             -0.6519  XYY=             17.3037
  XXY=             75.4185  XXZ=             -0.3622  XZZ=             -7.4377  YZZ=             70.2919
  YYZ=             -1.0029  XYZ=             -0.1834
 Hexadecapole moment (field-independent basis, Debye-Ang**3):
 XXXX=           -334.1799 YYYY=          -1650.1631 ZZZZ=            -62.5085 XXXY=           -145.5993
 XXXZ=             -0.0808 YYYX=           -213.2873 YYYZ=              4.1144 ZZZX=              0.1246
 ZZZY=              0.9808 XXYY=           -298.0476 XXZZ=            -71.0775 YYZZ=           -232.3362
 XXYZ=              0.4204 YYXZ=              0.7379 ZZXY=            -47.2196
 N-N= 1.896152021172D+02 E-N=-7.820366468677D+03  KE= 3.107397715862D+03
 No NMR shielding tensors so no spin-rotation constants.
 Leave Link  601 at Fri Nov  5 16:35:49 2021, MaxMem= 16106127360 cpu:               4.5 elap:               0.2
 (Enter /sw/contrib/gaussian/g16/B01/g16/l607.exe)
 ******************************Gaussian NBO Version 3.1******************************
             N A T U R A L   A T O M I C   O R B I T A L   A N D
          N A T U R A L   B O N D   O R B I T A L   A N A L Y S I S
 ******************************Gaussian NBO Version 3.1******************************
       /RESON  / : Allow strongly delocalized NBO set

 Analyzing the MP2 density

 Job title: title                                                           

 Storage needed:     95974 in NPA,    127345 in NBO (********** available)
 GSVD:  LWork=        4314 too small for GESVD, short by       49391 words or       49391 for optimal perf.


 NATURAL POPULATIONS:  Natural atomic orbital occupancies 
                                                          
   NAO  Atom  No  lang   Type(AO)    Occupancy
 --------------------------------------------
     1    O    1  S      Cor( 1S)     1.99967
     2    O    1  S      Val( 2S)     1.78172
     3    O    1  S      Ryd( 3S)     0.00926
     4    O    1  S      Ryd( 4S)     0.00108
     5    O    1  S      Ryd( 5S)     0.00019
     6    O    1  px     Val( 2p)     1.20507
     7    O    1  px     Ryd( 3p)     0.00644
     8    O    1  px     Ryd( 4p)     0.00062
     9    O    1  px     Ryd( 5p)     0.00034
    10    O    1  py     Val( 2p)     1.70740
    11    O    1  py     Ryd( 3p)     0.01219
    12    O    1  py     Ryd( 4p)     0.00076
    13    O    1  py     Ryd( 5p)     0.00043
    14    O    1  pz     Val( 2p)     1.93910
    15    O    1  pz     Ryd( 3p)     0.01960
    16    O    1  pz     Ryd( 4p)     0.00068
    17    O    1  pz     Ryd( 5p)     0.00016
    18    O    1  dxy    Ryd( 3d)     0.00867
    19    O    1  dxy    Ryd( 4d)     0.00046
    20    O    1  dxy    Ryd( 5d)     0.00014
    21    O    1  dxz    Ryd( 3d)     0.00858
    22    O    1  dxz    Ryd( 4d)     0.00056
    23    O    1  dxz    Ryd( 5d)     0.00009
    24    O    1  dyz    Ryd( 3d)     0.00833
    25    O    1  dyz    Ryd( 4d)     0.00059
    26    O    1  dyz    Ryd( 5d)     0.00033
    27    O    1  dx2y2  Ryd( 3d)     0.01313
    28    O    1  dx2y2  Ryd( 4d)     0.00034
    29    O    1  dx2y2  Ryd( 5d)     0.00018
    30    O    1  dz2    Ryd( 3d)     0.00956
    31    O    1  dz2    Ryd( 4d)     0.00055
    32    O    1  dz2    Ryd( 5d)     0.00016
    33    O    1  f(0)   Ryd( 4f)     0.00070
    34    O    1  f(0)   Ryd( 5f)     0.00010
    35    O    1  f(C1)  Ryd( 4f)     0.00066
    36    O    1  f(C1)  Ryd( 5f)     0.00011
    37    O    1  f(S1)  Ryd( 4f)     0.00057
    38    O    1  f(S1)  Ryd( 5f)     0.00011
    39    O    1  f(C2)  Ryd( 4f)     0.00058
    40    O    1  f(C2)  Ryd( 5f)     0.00012
    41    O    1  f(S2)  Ryd( 4f)     0.00054
    42    O    1  f(S2)  Ryd( 5f)     0.00012
    43    O    1  f(C3)  Ryd( 4f)     0.00057
    44    O    1  f(C3)  Ryd( 5f)     0.00014
    45    O    1  f(S3)  Ryd( 4f)     0.00053
    46    O    1  f(S3)  Ryd( 5f)     0.00014

    47   Cl    2  S      Cor( 1S)     2.00000
    48   Cl    2  S      Cor( 2S)     1.99981
    49   Cl    2  S      Val( 3S)     1.88626
    50   Cl    2  S      Ryd( 4S)     0.00772
    51   Cl    2  S      Ryd( 5S)     0.00053
    52   Cl    2  S      Ryd( 6S)     0.00016
    53   Cl    2  px     Cor( 2p)     1.99996
    54   Cl    2  px     Val( 3p)     0.90516
    55   Cl    2  px     Ryd( 4p)     0.00633
    56   Cl    2  px     Ryd( 5p)     0.00052
    57   Cl    2  px     Ryd( 6p)     0.00020
    58   Cl    2  py     Cor( 2p)     2.00003
    59   Cl    2  py     Val( 3p)     1.95353
    60   Cl    2  py     Ryd( 4p)     0.00974
    61   Cl    2  py     Ryd( 5p)     0.00052
    62   Cl    2  py     Ryd( 6p)     0.00009
    63   Cl    2  pz     Cor( 2p)     2.00003
    64   Cl    2  pz     Val( 3p)     1.95467
    65   Cl    2  pz     Ryd( 4p)     0.01039
    66   Cl    2  pz     Ryd( 5p)     0.00066
    67   Cl    2  pz     Ryd( 6p)     0.00003
    68   Cl    2  dxy    Ryd( 3d)     0.01656
    69   Cl    2  dxy    Ryd( 4d)     0.00078
    70   Cl    2  dxy    Ryd( 5d)     0.00032
    71   Cl    2  dxz    Ryd( 3d)     0.02091
    72   Cl    2  dxz    Ryd( 4d)     0.00103
    73   Cl    2  dxz    Ryd( 5d)     0.00036
    74   Cl    2  dyz    Ryd( 3d)     0.01678
    75   Cl    2  dyz    Ryd( 4d)     0.00073
    76   Cl    2  dyz    Ryd( 5d)     0.00018
    77   Cl    2  dx2y2  Ryd( 3d)     0.01839
    78   Cl    2  dx2y2  Ryd( 4d)     0.00047
    79   Cl    2  dx2y2  Ryd( 5d)     0.00016
    80   Cl    2  dz2    Ryd( 3d)     0.01742
    81   Cl    2  dz2    Ryd( 4d)     0.00060
    82   Cl    2  dz2    Ryd( 5d)     0.00015
    83   Cl    2  f(0)   Ryd( 4f)     0.00131
    84   Cl    2  f(0)   Ryd( 5f)     0.00013
    85   Cl    2  f(C1)  Ryd( 4f)     0.00144
    86   Cl    2  f(C1)  Ryd( 5f)     0.00014
    87   Cl    2  f(S1)  Ryd( 4f)     0.00127
    88   Cl    2  f(S1)  Ryd( 5f)     0.00013
    89   Cl    2  f(C2)  Ryd( 4f)     0.00133
    90   Cl    2  f(C2)  Ryd( 5f)     0.00013
    91   Cl    2  f(S2)  Ryd( 4f)     0.00120
    92   Cl    2  f(S2)  Ryd( 5f)     0.00013
    93   Cl    2  f(C3)  Ryd( 4f)     0.00154
    94   Cl    2  f(C3)  Ryd( 5f)     0.00013
    95   Cl    2  f(S3)  Ryd( 4f)     0.00126
    96   Cl    2  f(S3)  Ryd( 5f)     0.00014

    97   Br    3  S      Cor( 1S)     2.00000
    98   Br    3  S      Cor( 2S)     2.00000
    99   Br    3  S      Cor( 3S)     1.99991
   100   Br    3  S      Val( 4S)     1.97112
   101   Br    3  S      Ryd( 5S)     0.00202
   102   Br    3  S      Ryd( 6S)     0.00046
   103   Br    3  S      Ryd( 7S)     0.00016
   104   Br    3  px     Cor( 3p)     2.00000
   105   Br    3  px     Cor( 2p)     2.00001
   106   Br    3  px     Val( 4p)     1.94995
   107   Br    3  px     Ryd( 5p)     0.01120
   108   Br    3  px     Ryd( 6p)     0.00081
   109   Br    3  px     Ryd( 7p)     0.00009
   110   Br    3  py     Cor( 2p)     2.00000
   111   Br    3  py     Cor( 3p)     1.99995
   112   Br    3  py     Val( 4p)     1.88020
   113   Br    3  py     Ryd( 5p)     0.00972
   114   Br    3  py     Ryd( 6p)     0.00076
   115   Br    3  py     Ryd( 7p)     0.00011
   116   Br    3  pz     Cor( 3p)     2.00000
   117   Br    3  pz     Cor( 2p)     2.00001
   118   Br    3  pz     Val( 4p)     1.95276
   119   Br    3  pz     Ryd( 5p)     0.01132
   120   Br    3  pz     Ryd( 6p)     0.00082
   121   Br    3  pz     Ryd( 7p)     0.00009
   122   Br    3  dxy    Cor( 3d)     1.99766
   123   Br    3  dxy    Ryd( 4d)     0.01883
   124   Br    3  dxy    Ryd( 5d)     0.00146
   125   Br    3  dxy    Ryd( 6d)     0.00021
   126   Br    3  dxz    Cor( 3d)     1.99769
   127   Br    3  dxz    Ryd( 4d)     0.01866
   128   Br    3  dxz    Ryd( 5d)     0.00175
   129   Br    3  dxz    Ryd( 6d)     0.00025
   130   Br    3  dyz    Cor( 3d)     1.99766
   131   Br    3  dyz    Ryd( 4d)     0.01896
   132   Br    3  dyz    Ryd( 5d)     0.00148
   133   Br    3  dyz    Ryd( 6d)     0.00021
   134   Br    3  dx2y2  Cor( 3d)     1.99764
   135   Br    3  dx2y2  Ryd( 4d)     0.01852
   136   Br    3  dx2y2  Ryd( 5d)     0.00160
   137   Br    3  dx2y2  Ryd( 6d)     0.00025
   138   Br    3  dz2    Cor( 3d)     1.99767
   139   Br    3  dz2    Ryd( 4d)     0.01858
   140   Br    3  dz2    Ryd( 5d)     0.00171
   141   Br    3  dz2    Ryd( 6d)     0.00022
   142   Br    3  f(0)   Ryd( 4f)     0.00173
   143   Br    3  f(0)   Ryd( 5f)     0.00025
   144   Br    3  f(C1)  Ryd( 4f)     0.00175
   145   Br    3  f(C1)  Ryd( 5f)     0.00025
   146   Br    3  f(S1)  Ryd( 4f)     0.00175
   147   Br    3  f(S1)  Ryd( 5f)     0.00027
   148   Br    3  f(C2)  Ryd( 4f)     0.00173
   149   Br    3  f(C2)  Ryd( 5f)     0.00026
   150   Br    3  f(S2)  Ryd( 4f)     0.00176
   151   Br    3  f(S2)  Ryd( 5f)     0.00026
   152   Br    3  f(C3)  Ryd( 4f)     0.00171
   153   Br    3  f(C3)  Ryd( 5f)     0.00027
   154   Br    3  f(S3)  Ryd( 4f)     0.00172
   155   Br    3  f(S3)  Ryd( 5f)     0.00027

   156    H    4  S      Val( 1S)     0.49266
   157    H    4  S      Ryd( 2S)     0.00893
   158    H    4  S      Ryd( 3S)     0.00028
   159    H    4  S      Ryd( 4S)     0.00013
   160    H    4  px     Ryd( 2p)     0.00391
   161    H    4  px     Ryd( 3p)     0.00050
   162    H    4  px     Ryd( 4p)     0.00012
   163    H    4  py     Ryd( 2p)     0.00528
   164    H    4  py     Ryd( 3p)     0.00086
   165    H    4  py     Ryd( 4p)     0.00036
   166    H    4  pz     Ryd( 2p)     0.00517
   167    H    4  pz     Ryd( 3p)     0.00041
   168    H    4  pz     Ryd( 4p)     0.00023
   169    H    4  dxy    Ryd( 3d)     0.00028
   170    H    4  dxy    Ryd( 4d)     0.00011
   171    H    4  dxz    Ryd( 3d)     0.00023
   172    H    4  dxz    Ryd( 4d)     0.00007
   173    H    4  dyz    Ryd( 3d)     0.00041
   174    H    4  dyz    Ryd( 4d)     0.00011
   175    H    4  dx2y2  Ryd( 3d)     0.00021
   176    H    4  dx2y2  Ryd( 4d)     0.00012
   177    H    4  dz2    Ryd( 3d)     0.00025
   178    H    4  dz2    Ryd( 4d)     0.00009

 WARNING:  5 low occupancy (<1.9990e) core orbitals found on Br    3


 Summary of Natural Population Analysis:                  
                                                          
                                       Natural Population 
                Natural  -----------------------------------------------
    Atom  No    Charge         Core      Valence    Rydberg      Total
 -----------------------------------------------------------------------
      O    1   -0.74137      1.99967     6.63330    0.10841     8.74137
     Cl    2    0.15854      9.99983     6.69962    0.14202    16.84146
     Br    3   -0.89643     27.98818     7.75402    0.15422    35.89643
      H    4    0.47926      0.00000     0.49266    0.02807     0.52074
 =======================================================================
   * Total *   -1.00000     39.98768    21.57960    0.43272    62.00000

                                 Natural Population      
 --------------------------------------------------------
   Core                      39.98768 ( 99.9692% of  40)
   Valence                   21.57960 ( 98.0891% of  22)
   Natural Minimal Basis     61.56728 ( 99.3021% of  62)
   Natural Rydberg Basis      0.43272 (  0.6979% of  62)
 --------------------------------------------------------

    Atom  No          Natural Electron Configuration
 ----------------------------------------------------------------------------
      O    1      [core]2S( 1.78)2p( 4.85)3S( 0.01)3p( 0.04)3d( 0.05)
     Cl    2      [core]3S( 1.89)3p( 4.81)4S( 0.01)3d( 0.09)4p( 0.03)4f( 0.01)
     Br    3      [core]4S( 1.97)4p( 5.78)4d( 0.09)5p( 0.03)4f( 0.01)5d( 0.01)
      H    4            1S( 0.49)2S( 0.01)2p( 0.01)


 NATURAL BOND ORBITAL ANALYSIS:

                       Occupancies       Lewis Structure    Low   High
           Occ.    -------------------  -----------------   occ   occ
  Cycle   Thresh.   Lewis   Non-Lewis     CR  BD  3C  LP    (L)   (NL)   Dev
 =============================================================================
   1(1)    1.90    61.45382   0.54618     20   2   0   9     1      0    0.12
   2(2)    1.90    61.45382   0.54618     20   2   0   9     1      0    0.12
   3(1)    1.80    61.45382   0.54618     20   2   0   9     0      0    0.12
   4(2)    1.80    61.45382   0.54618     20   2   0   9     0      0    0.12
   5(1)    1.70    61.45382   0.54618     20   2   0   9     0      0    0.12
   6(2)    1.70    61.45382   0.54618     20   2   0   9     0      0    0.12
   7(1)    1.60    61.45382   0.54618     20   2   0   9     0      0    0.12
   8(2)    1.60    61.45382   0.54618     20   2   0   9     0      0    0.12
   9(1)    1.50    61.06148   0.93852     20   1   0  10     0      1    0.59
  10(2)    1.50    61.06148   0.93852     20   1   0  10     0      1    0.59
  11(1)    1.90    61.45382   0.54618     20   2   0   9     1      0    0.12
 -----------------------------------------------------------------------------

 Structure accepted: RESONANCE keyword permits strongly delocalized structure

 WARNING:  5 low occupancy (<1.9990e) core orbitals found on Br    3

 --------------------------------------------------------
   Core                     39.98768 ( 99.969% of  40)
   Valence Lewis            21.46614 ( 97.573% of  22)
  ==================       ============================
   Total Lewis              61.45382 ( 99.119% of  62)
  -----------------------------------------------------
   Valence non-Lewis         0.15847 (  0.256% of  62)
   Rydberg non-Lewis         0.38770 (  0.625% of  62)
  ==================       ============================
   Total non-Lewis           0.54618 (  0.881% of  62)
 --------------------------------------------------------


       (Occupancy)   Bond orbital/ Coefficients/ Hybrids
 ---------------------------------------------------------------------------------
     1. (1.93865) BD ( 1) O   1 -Cl   2  
                ( 58.86%)   0.7672* O   1 s( 10.00%)p 8.95( 89.48%)d 0.05(  0.50%)
                                                  f 0.00(  0.02%)
                                            0.0003  0.3135 -0.0389 -0.0142 -0.0006
                                            0.9448 -0.0279 -0.0100 -0.0105 -0.0169
                                           -0.0290 -0.0051 -0.0001  0.0090  0.0056
                                            0.0010 -0.0001 -0.0226 -0.0016  0.0025
                                            0.0053  0.0007 -0.0001 -0.0041 -0.0004
                                            0.0006  0.0520  0.0047  0.0023 -0.0416
                                           -0.0038  0.0004 -0.0000 -0.0000 -0.0112
                                            0.0012 -0.0002  0.0001  0.0001 -0.0004
                                           -0.0022  0.0007  0.0055  0.0006 -0.0005
                                            0.0021
                ( 41.14%)   0.6414*Cl   2 s(  8.18%)p11.08( 90.59%)d 0.14(  1.13%)
                                                  f 0.01(  0.11%)
                                           -0.0000  0.0005  0.2806 -0.0542 -0.0103
                                            0.0022 -0.0004 -0.9495  0.0638  0.0141
                                           -0.0045 -0.0000 -0.0097 -0.0020  0.0023
                                           -0.0008  0.0000  0.0018  0.0001 -0.0007
                                            0.0003  0.0119 -0.0001  0.0008 -0.0037
                                           -0.0005 -0.0002 -0.0018  0.0001  0.0004
                                            0.0885 -0.0102 -0.0003 -0.0559  0.0056
                                            0.0008 -0.0003  0.0000  0.0208 -0.0033
                                            0.0005 -0.0002  0.0002  0.0000  0.0006
                                           -0.0004 -0.0253  0.0030 -0.0012  0.0002
     2. (1.96652) BD ( 1) O   1 - H   4  
                ( 78.96%)   0.8886* O   1 s( 30.08%)p 2.31( 69.42%)d 0.02(  0.49%)
                                                  f 0.00(  0.01%)
                                           -0.0003 -0.5483  0.0084  0.0081 -0.0018
                                            0.1956 -0.0178 -0.0028 -0.0028  0.7941
                                           -0.0096 -0.0068 -0.0039 -0.1577  0.0012
                                            0.0015  0.0016  0.0006  0.0029  0.0002
                                           -0.0001 -0.0007 -0.0002  0.0234  0.0014
                                           -0.0004  0.0569  0.0049  0.0022  0.0331
                                            0.0010 -0.0026  0.0038  0.0001 -0.0014
                                           -0.0005 -0.0074 -0.0003  0.0022  0.0007
                                           -0.0008 -0.0007 -0.0016 -0.0024  0.0005
                                           -0.0025
                ( 21.04%)   0.4587* H   4 s( 99.84%)p 0.00(  0.16%)d 0.00(  0.00%)
                                           -0.9984 -0.0406 -0.0019  0.0010 -0.0115
                                           -0.0077 -0.0017  0.0147 -0.0304  0.0102
                                           -0.0092  0.0061 -0.0007  0.0002  0.0022
                                           -0.0006 -0.0005 -0.0007 -0.0001  0.0017
                                            0.0002  0.0004  0.0027
     3. (1.99967) CR ( 1) O   1           s(100.00%)p 0.00(  0.00%)
                                            1.0000 -0.0004  0.0000  0.0000 -0.0000
                                           -0.0002  0.0000  0.0000  0.0000  0.0001
                                            0.0000 -0.0000 -0.0000 -0.0000 -0.0000
                                            0.0000  0.0000  0.0000  0.0000 -0.0000
                                           -0.0000 -0.0000 -0.0000  0.0000  0.0000
                                           -0.0000 -0.0000  0.0000  0.0000  0.0000
                                            0.0000 -0.0000  0.0000  0.0000  0.0000
                                           -0.0000 -0.0000 -0.0000  0.0000  0.0000
                                            0.0000 -0.0000 -0.0000 -0.0000 -0.0000
                                           -0.0000
     4. (2.00000) CR ( 1)Cl   2           s(100.00%)
                                            1.0000  0.0000  0.0000 -0.0000 -0.0000
                                            0.0000 -0.0000 -0.0000  0.0000  0.0000
                                           -0.0000 -0.0000 -0.0000 -0.0000  0.0000
                                           -0.0000 -0.0000  0.0000  0.0000 -0.0000
                                            0.0000  0.0000 -0.0000  0.0000 -0.0000
                                           -0.0000 -0.0000 -0.0000  0.0000  0.0000
                                            0.0000 -0.0000 -0.0000 -0.0000  0.0000
                                            0.0000 -0.0000  0.0000  0.0000 -0.0000
                                            0.0000 -0.0000  0.0000  0.0000  0.0000
                                           -0.0000 -0.0000  0.0000 -0.0000  0.0000
     5. (1.99981) CR ( 2)Cl   2           s(100.00%)p 0.00(  0.00%)
                                            0.0000  1.0000 -0.0004  0.0000  0.0000
                                           -0.0000  0.0000  0.0004 -0.0000 -0.0000
                                            0.0000  0.0000  0.0000  0.0000 -0.0000
                                            0.0000 -0.0000 -0.0000 -0.0000  0.0000
                                           -0.0000 -0.0000  0.0000 -0.0000  0.0000
                                            0.0000  0.0000  0.0000 -0.0000 -0.0000
                                           -0.0000  0.0000  0.0000  0.0000 -0.0000
                                           -0.0000  0.0000 -0.0000 -0.0000  0.0000
                                           -0.0000  0.0000 -0.0000 -0.0000 -0.0000
                                            0.0000  0.0000 -0.0000  0.0000 -0.0000
     6. (1.99996) CR ( 3)Cl   2           s(  0.00%)p 1.00(100.00%)
                                           -0.0000  0.0000  0.0001 -0.0000 -0.0000
                                            0.0000  1.0000 -0.0004  0.0000  0.0000
                                           -0.0000  0.0000 -0.0000 -0.0000  0.0000
                                           -0.0000 -0.0000  0.0000  0.0000 -0.0000
                                            0.0000  0.0000 -0.0000  0.0000 -0.0000
                                           -0.0000 -0.0000 -0.0000  0.0000  0.0000
                                            0.0000 -0.0000 -0.0000 -0.0000  0.0000
                                            0.0000 -0.0000  0.0000  0.0000 -0.0000
                                            0.0000 -0.0000  0.0000  0.0000  0.0000
                                           -0.0000 -0.0000  0.0000 -0.0000  0.0000
     7. (2.00003) CR ( 4)Cl   2           s(  0.00%)p 1.00(100.00%)
                                           -0.0000  0.0000  0.0000  0.0000  0.0000
                                            0.0000  0.0000 -0.0000  0.0000  0.0000
                                           -0.0000  1.0000  0.0002  0.0000  0.0000
                                            0.0000  0.0000 -0.0000 -0.0000  0.0000
                                           -0.0000 -0.0000  0.0000  0.0000  0.0000
                                            0.0000  0.0000  0.0000  0.0000 -0.0000
                                           -0.0000 -0.0000 -0.0000 -0.0000 -0.0000
                                           -0.0000  0.0000 -0.0000  0.0000  0.0000
                                           -0.0000  0.0000  0.0000 -0.0000 -0.0000
                                            0.0000 -0.0000  0.0000  0.0000 -0.0000
     8. (2.00003) CR ( 5)Cl   2           s(  0.00%)p 1.00(100.00%)
                                           -0.0000 -0.0000 -0.0000  0.0000  0.0000
                                            0.0000 -0.0000  0.0000 -0.0000  0.0000
                                            0.0000  0.0000 -0.0000 -0.0000  0.0000
                                           -0.0000  1.0000  0.0002  0.0000  0.0000
                                           -0.0000  0.0000  0.0000  0.0000  0.0000
                                            0.0000  0.0000  0.0000  0.0000  0.0000
                                           -0.0000  0.0000  0.0000  0.0000  0.0000
                                            0.0000 -0.0000  0.0000 -0.0000  0.0000
                                           -0.0000  0.0000  0.0000 -0.0000  0.0000
                                           -0.0000  0.0000  0.0000 -0.0000  0.0000
     9. (2.00000) CR ( 1)Br   3           s(100.00%)
                                            1.0000 -0.0000  0.0000  0.0000 -0.0000
                                            0.0000  0.0000  0.0000 -0.0000 -0.0000
                                            0.0000 -0.0000 -0.0000  0.0000 -0.0000
                                           -0.0000  0.0000 -0.0000  0.0000  0.0000
                                           -0.0000  0.0000  0.0000  0.0000  0.0000
                                           -0.0000 -0.0000 -0.0000 -0.0000 -0.0000
                                           -0.0000 -0.0000 -0.0000 -0.0000 -0.0000
                                           -0.0000 -0.0000  0.0000  0.0000  0.0000
                                            0.0000  0.0000  0.0000  0.0000  0.0000
                                           -0.0000 -0.0000 -0.0000  0.0000 -0.0000
                                           -0.0000 -0.0000 -0.0000  0.0000  0.0000
                                           -0.0000 -0.0000 -0.0000 -0.0000
    10. (2.00000) CR ( 2)Br   3           s(100.00%)
                                           -0.0000  1.0000  0.0000  0.0000 -0.0000
                                            0.0000  0.0000  0.0000 -0.0000 -0.0000
                                            0.0000 -0.0000 -0.0000  0.0000 -0.0000
                                           -0.0000  0.0000 -0.0000  0.0000  0.0000
                                           -0.0000 -0.0000  0.0000 -0.0000  0.0000
                                           -0.0000  0.0000 -0.0000 -0.0000 -0.0000
                                            0.0000 -0.0000 -0.0000 -0.0000 -0.0000
                                           -0.0000 -0.0000  0.0000  0.0000  0.0000
                                            0.0000  0.0000  0.0000  0.0000  0.0000
                                           -0.0000 -0.0000 -0.0000 -0.0000 -0.0000
                                           -0.0000 -0.0000 -0.0000  0.0000  0.0000
                                           -0.0000 -0.0000 -0.0000 -0.0000
    11. (1.99991) CR ( 3)Br   3           s(100.00%)
                                            0.0000  0.0000  1.0000 -0.0001  0.0000
                                           -0.0000 -0.0000 -0.0000  0.0000  0.0000
                                           -0.0000  0.0000  0.0000 -0.0000  0.0000
                                            0.0000 -0.0000  0.0000 -0.0000 -0.0000
                                            0.0000  0.0000 -0.0000  0.0000 -0.0000
                                            0.0000  0.0000 -0.0000  0.0000  0.0000
                                            0.0000 -0.0000  0.0000  0.0000  0.0000
                                           -0.0000  0.0000 -0.0000  0.0000 -0.0000
                                           -0.0000 -0.0000 -0.0000 -0.0000 -0.0000
                                           -0.0000  0.0000  0.0000 -0.0000  0.0000
                                            0.0000 -0.0000  0.0000  0.0000  0.0000
                                            0.0000  0.0000  0.0000  0.0000
    12. (2.00000) CR ( 4)Br   3           s(  0.00%)p 1.00(100.00%)
                                            0.0000  0.0000 -0.0000 -0.0000  0.0000
                                           -0.0000 -0.0000  1.0000  0.0000  0.0000
                                            0.0000  0.0000 -0.0000  0.0000 -0.0000
                                           -0.0000 -0.0000 -0.0000  0.0000  0.0000
                                           -0.0000 -0.0000 -0.0000 -0.0000  0.0000
                                           -0.0000  0.0000 -0.0000 -0.0000 -0.0000
                                            0.0000 -0.0000  0.0000  0.0000 -0.0000
                                            0.0000  0.0000 -0.0000  0.0000 -0.0000
                                           -0.0000 -0.0000  0.0000 -0.0000  0.0000
                                            0.0000 -0.0000 -0.0000 -0.0000  0.0000
                                            0.0000  0.0000  0.0000  0.0000  0.0000
                                           -0.0000 -0.0000  0.0000  0.0000
    13. (2.00001) CR ( 5)Br   3           s(  0.00%)p 1.00(100.00%)
                                           -0.0000 -0.0000  0.0000  0.0000 -0.0000
                                            0.0000  0.0000  0.0000  1.0000 -0.0002
                                           -0.0000 -0.0000  0.0000 -0.0000  0.0000
                                            0.0000  0.0000  0.0000 -0.0000 -0.0000
                                            0.0000  0.0000  0.0000  0.0000 -0.0000
                                            0.0000 -0.0000  0.0000  0.0000  0.0000
                                           -0.0000  0.0000 -0.0000 -0.0000  0.0000
                                           -0.0000 -0.0000  0.0000 -0.0000  0.0000
                                            0.0000  0.0000 -0.0000  0.0000 -0.0000
                                           -0.0000  0.0000  0.0000  0.0000 -0.0000
                                           -0.0000 -0.0000 -0.0000 -0.0000 -0.0000
                                            0.0000  0.0000 -0.0000 -0.0000
    14. (2.00000) CR ( 6)Br   3           s(  0.00%)p 1.00(100.00%)
                                            0.0000  0.0000 -0.0000 -0.0000  0.0000
                                           -0.0000 -0.0000  0.0000 -0.0000 -0.0000
                                           -0.0000 -0.0000  0.0000  1.0000  0.0000
                                            0.0000 -0.0000  0.0000 -0.0000  0.0000
                                           -0.0000 -0.0000 -0.0000 -0.0000 -0.0000
                                            0.0000 -0.0000  0.0000  0.0000  0.0000
                                           -0.0000  0.0000 -0.0000  0.0000 -0.0000
                                            0.0000  0.0000 -0.0000 -0.0000 -0.0000
                                            0.0000 -0.0000 -0.0000  0.0000 -0.0000
                                            0.0000  0.0000  0.0000  0.0000 -0.0000
                                           -0.0000  0.0000  0.0000 -0.0000 -0.0000
                                            0.0000  0.0000 -0.0000 -0.0000
    15. (1.99995) CR ( 7)Br   3           s(  0.00%)p 1.00(100.00%)
                                           -0.0000 -0.0000  0.0000  0.0001 -0.0000
                                            0.0000  0.0000 -0.0000  0.0000  0.0000
                                            0.0000  0.0000 -0.0000  0.0000  1.0000
                                           -0.0000  0.0000 -0.0000  0.0000 -0.0000
                                            0.0000  0.0000  0.0000  0.0000  0.0000
                                           -0.0000  0.0000 -0.0000 -0.0000 -0.0000
                                            0.0000 -0.0000  0.0000 -0.0000  0.0000
                                           -0.0000 -0.0000  0.0000  0.0000  0.0000
                                           -0.0000  0.0000  0.0000 -0.0000  0.0000
                                           -0.0000 -0.0000 -0.0000 -0.0000  0.0000
                                            0.0000 -0.0000 -0.0000  0.0000  0.0000
                                           -0.0000 -0.0000  0.0000  0.0000
    16. (2.00000) CR ( 8)Br   3           s(  0.00%)p 1.00(100.00%)
                                            0.0000  0.0000 -0.0000 -0.0000 -0.0000
                                            0.0000  0.0000  0.0000 -0.0000 -0.0000
                                           -0.0000  0.0000 -0.0000  0.0000 -0.0000
                                           -0.0000 -0.0000  0.0000 -0.0000  1.0000
                                            0.0000  0.0000  0.0000  0.0000 -0.0000
                                            0.0000 -0.0000  0.0000  0.0000 -0.0000
                                            0.0000 -0.0000 -0.0000 -0.0000  0.0000
                                           -0.0000 -0.0000 -0.0000  0.0000 -0.0000
                                           -0.0000 -0.0000  0.0000 -0.0000  0.0000
                                           -0.0000 -0.0000  0.0000  0.0000  0.0000
                                            0.0000 -0.0000 -0.0000  0.0000  0.0000
                                            0.0000  0.0000  0.0000  0.0000
    17. (2.00001) CR ( 9)Br   3           s(  0.00%)p 1.00(100.00%)
                                           -0.0000 -0.0000  0.0000  0.0000  0.0000
                                           -0.0000 -0.0000 -0.0000  0.0000  0.0000
                                            0.0000 -0.0000  0.0000 -0.0000  0.0000
                                            0.0000  0.0000 -0.0000  0.0000  0.0000
                                            1.0000 -0.0002 -0.0000 -0.0000  0.0000
                                           -0.0000  0.0000 -0.0000 -0.0000  0.0000
                                           -0.0000  0.0000  0.0000  0.0000 -0.0000
                                            0.0000  0.0000  0.0000 -0.0000  0.0000
                                            0.0000  0.0000 -0.0000  0.0000 -0.0000
                                            0.0000  0.0000 -0.0000 -0.0000 -0.0000
                                           -0.0000  0.0000  0.0000 -0.0000 -0.0000
                                           -0.0000 -0.0000 -0.0000 -0.0000
    18. (1.99766) CR (10)Br   3           s(  0.00%)p 0.00(  0.00%)d 1.00(100.00%)
                                           -0.0000 -0.0000  0.0000  0.0000  0.0000
                                            0.0000 -0.0000 -0.0000  0.0000  0.0000
                                            0.0000  0.0000 -0.0000  0.0000 -0.0000
                                           -0.0000  0.0000 -0.0000  0.0000  0.0000
                                           -0.0000 -0.0000  0.0000 -0.0000  0.0000
                                            1.0000  0.0000 -0.0000 -0.0000 -0.0000
                                            0.0000 -0.0000  0.0000 -0.0000 -0.0000
                                            0.0000 -0.0000  0.0000  0.0000  0.0000
                                           -0.0000  0.0000  0.0000  0.0000  0.0000
                                           -0.0000 -0.0000 -0.0000 -0.0000 -0.0000
                                           -0.0000  0.0000  0.0000  0.0000  0.0000
                                           -0.0000 -0.0000  0.0000  0.0000
    19. (1.99769) CR (11)Br   3           s(  0.00%)p 0.00(  0.00%)d 1.00(100.00%)
                                           -0.0000 -0.0000  0.0000  0.0000 -0.0000
                                            0.0000  0.0000 -0.0000  0.0000  0.0000
                                            0.0000  0.0000 -0.0000  0.0000 -0.0000
                                           -0.0000  0.0000 -0.0000  0.0000 -0.0000
                                            0.0000  0.0000  0.0000  0.0000 -0.0000
                                           -0.0000  0.0000 -0.0000 -0.0000  1.0000
                                            0.0000 -0.0000  0.0000 -0.0000  0.0000
                                           -0.0000 -0.0000  0.0000  0.0000 -0.0000
                                           -0.0000  0.0000  0.0000 -0.0000  0.0000
                                           -0.0000 -0.0000 -0.0000 -0.0000  0.0000
                                            0.0000 -0.0000 -0.0000  0.0000  0.0000
                                           -0.0000 -0.0000  0.0000  0.0000
    20. (1.99766) CR (12)Br   3           s(  0.00%)p 0.00(  0.00%)d 1.00(100.00%)
                                           -0.0000 -0.0000  0.0000  0.0000 -0.0000
                                            0.0000  0.0000  0.0000 -0.0000 -0.0000
                                            0.0000 -0.0000 -0.0000  0.0000 -0.0000
                                           -0.0000  0.0000 -0.0000 -0.0000 -0.0000
                                            0.0000  0.0000  0.0000  0.0000 -0.0000
                                           -0.0000 -0.0000  0.0000 -0.0000 -0.0000
                                            0.0000 -0.0000 -0.0000  1.0000  0.0000
                                           -0.0000 -0.0000  0.0000  0.0000  0.0000
                                           -0.0000  0.0000  0.0000 -0.0000  0.0000
                                           -0.0000 -0.0000  0.0000  0.0000  0.0000
                                            0.0000 -0.0000 -0.0000  0.0000  0.0000
                                            0.0000 -0.0000  0.0000 -0.0000
    21. (1.99764) CR (13)Br   3           s(  0.00%)p 0.00(  0.00%)d 1.00(100.00%)
                                            0.0000  0.0000 -0.0000 -0.0000  0.0000
                                           -0.0000 -0.0000 -0.0000  0.0000  0.0000
                                            0.0000  0.0000  0.0000 -0.0000  0.0000
                                            0.0000 -0.0000  0.0000 -0.0000 -0.0000
                                            0.0000  0.0000 -0.0000  0.0000 -0.0000
                                            0.0000  0.0000 -0.0000  0.0000  0.0000
                                            0.0000 -0.0000  0.0000  0.0000  0.0000
                                            0.0000  0.0000  1.0000  0.0000 -0.0000
                                           -0.0000 -0.0000 -0.0000 -0.0000 -0.0000
                                           -0.0000  0.0000 -0.0000 -0.0000  0.0000
                                            0.0000  0.0000  0.0000  0.0000  0.0000
                                           -0.0000 -0.0000  0.0000  0.0000
    22. (1.99767) CR (14)Br   3           s(  0.00%)p 0.00(  0.00%)d 1.00(100.00%)
                                            0.0000  0.0000 -0.0000 -0.0000  0.0000
                                           -0.0000 -0.0000 -0.0000  0.0000  0.0000
                                           -0.0000  0.0000  0.0000 -0.0000  0.0000
                                            0.0000 -0.0000  0.0000 -0.0000 -0.0000
                                            0.0000  0.0000  0.0000  0.0000 -0.0000
                                            0.0000 -0.0000  0.0000  0.0000  0.0000
                                            0.0000 -0.0000 -0.0000  0.0000  0.0000
                                           -0.0000 -0.0000 -0.0000 -0.0000 -0.0000
                                           -0.0000  1.0000  0.0000 -0.0000 -0.0000
                                           -0.0000 -0.0000  0.0000  0.0000  0.0000
                                            0.0000 -0.0000 -0.0000  0.0000  0.0000
                                            0.0000  0.0000  0.0000  0.0000
    23. (1.96684) LP ( 1) O   1           s( 60.03%)p 0.66( 39.87%)d 0.00(  0.10%)
                                                  f 0.00(  0.00%)
                                            0.0002  0.7746  0.0123  0.0082 -0.0013
                                           -0.2447 -0.0038 -0.0040 -0.0023  0.5681
                                            0.0082  0.0056  0.0017 -0.1261 -0.0019
                                           -0.0011 -0.0002  0.0221  0.0022 -0.0033
                                           -0.0051 -0.0007  0.0004  0.0081  0.0004
                                           -0.0006  0.0159  0.0000 -0.0040  0.0110
                                            0.0006  0.0007  0.0016 -0.0002 -0.0000
                                            0.0005 -0.0025  0.0003  0.0000  0.0003
                                            0.0008 -0.0004  0.0034 -0.0021  0.0036
                                           -0.0017
    24. (1.95330) LP ( 2) O   1           s(  0.01%)p 1.00( 99.79%)d 0.00(  0.18%)
                                                  f 0.00(  0.01%)
                                           -0.0000  0.0085  0.0027  0.0012 -0.0001
                                           -0.0084 -0.0002 -0.0000 -0.0004  0.2019
                                            0.0041  0.0010  0.0012  0.9781  0.0199
                                            0.0060  0.0066  0.0059  0.0009 -0.0003
                                            0.0290  0.0050 -0.0004 -0.0252  0.0038
                                            0.0110  0.0057 -0.0010 -0.0025  0.0113
                                           -0.0004 -0.0027 -0.0096  0.0007 -0.0004
                                           -0.0002 -0.0037 -0.0001  0.0046 -0.0021
                                            0.0009  0.0011 -0.0002 -0.0004  0.0013
                                           -0.0008
    25. (1.97409) LP ( 1)Cl   2           s( 91.99%)p 0.09(  7.99%)d 0.00(  0.02%)
                                                  f 0.00(  0.00%)
                                            0.0000  0.0003  0.9591  0.0062  0.0012
                                           -0.0003  0.0000  0.2813 -0.0059 -0.0029
                                            0.0012  0.0000 -0.0255  0.0015  0.0002
                                           -0.0005 -0.0000  0.0079  0.0002  0.0001
                                            0.0000  0.0001 -0.0003 -0.0005  0.0001
                                            0.0001  0.0002 -0.0003 -0.0001  0.0001
                                           -0.0114  0.0005  0.0000  0.0073  0.0005
                                            0.0004 -0.0001  0.0001 -0.0020 -0.0004
                                            0.0001 -0.0000  0.0000  0.0000  0.0002
                                           -0.0001  0.0033  0.0000 -0.0005  0.0003
    26. (1.95618) LP ( 2)Cl   2           s(  0.00%)p 1.00( 99.95%)d 0.00(  0.04%)
                                                  f 0.00(  0.01%)
                                            0.0000  0.0000  0.0046 -0.0016 -0.0007
                                           -0.0005  0.0000  0.0009  0.0001 -0.0002
                                            0.0001  0.0000 -0.1267 -0.0016 -0.0007
                                            0.0000  0.0002 -0.9915 -0.0148 -0.0050
                                            0.0023 -0.0014 -0.0023 -0.0011 -0.0070
                                           -0.0167 -0.0086 -0.0037 -0.0033 -0.0011
                                            0.0003  0.0002  0.0002 -0.0003 -0.0002
                                           -0.0001  0.0053 -0.0008  0.0003 -0.0002
                                            0.0007 -0.0004 -0.0066  0.0010 -0.0009
                                            0.0007  0.0002 -0.0002 -0.0010  0.0002
    27. (1.95497) LP ( 3)Cl   2           s(  0.09%)p99.99( 99.87%)d 0.44(  0.04%)
                                                  f 0.10(  0.01%)
                                            0.0000 -0.0000  0.0282  0.0061  0.0040
                                            0.0018  0.0000 -0.0031 -0.0002 -0.0003
                                           -0.0007 -0.0002  0.9912  0.0126  0.0016
                                            0.0001  0.0000 -0.1265 -0.0020 -0.0003
                                            0.0001 -0.0016  0.0141  0.0080  0.0008
                                           -0.0015 -0.0010  0.0002 -0.0001 -0.0002
                                           -0.0078 -0.0049 -0.0031 -0.0009 -0.0028
                                           -0.0005  0.0010 -0.0002  0.0001  0.0002
                                           -0.0023  0.0001 -0.0007 -0.0000 -0.0003
                                            0.0002 -0.0013  0.0003  0.0087 -0.0014
    28. (1.97861) LP ( 1)Br   3           s( 93.21%)p 0.07(  6.79%)d 0.00(  0.00%)
                                                  f 0.00(  0.00%)
                                           -0.0000 -0.0000  0.0002  0.9655 -0.0002
                                            0.0005  0.0004  0.0000 -0.0000 -0.0622
                                            0.0002 -0.0002 -0.0002  0.0000 -0.0001
                                           -0.2512  0.0012 -0.0007  0.0001  0.0000
                                           -0.0000 -0.0300  0.0001 -0.0000  0.0000
                                           -0.0000 -0.0000 -0.0000 -0.0002 -0.0000
                                           -0.0001  0.0000 -0.0000 -0.0000 -0.0004
                                           -0.0000 -0.0001  0.0000  0.0000  0.0003
                                            0.0002  0.0000  0.0001  0.0001  0.0002
                                           -0.0000 -0.0001 -0.0000 -0.0000 -0.0003
                                           -0.0001 -0.0000 -0.0001  0.0000  0.0000
                                           -0.0002 -0.0001 -0.0002 -0.0002
    29. (1.95397) LP ( 2)Br   3           s(  0.00%)p 1.00( 99.99%)d 0.00(  0.01%)
                                                  f 0.00(  0.00%)
                                           -0.0000 -0.0000 -0.0000 -0.0002 -0.0006
                                            0.0003  0.0011  0.0000 -0.0000 -0.1224
                                           -0.0003 -0.0001 -0.0000  0.0000 -0.0000
                                           -0.0885  0.0001  0.0002 -0.0002 -0.0000
                                            0.0002  0.9885  0.0026  0.0016 -0.0003
                                            0.0000 -0.0014  0.0002  0.0002 -0.0000
                                            0.0016 -0.0003 -0.0003 -0.0000  0.0083
                                           -0.0018 -0.0010 -0.0000  0.0007 -0.0001
                                           -0.0003 -0.0000  0.0023 -0.0008  0.0004
                                           -0.0019 -0.0011  0.0003  0.0002  0.0012
                                            0.0007 -0.0022 -0.0011  0.0010  0.0006
                                            0.0005  0.0002  0.0001 -0.0000
    30. (1.95369) LP ( 3)Br   3           s(  0.00%)p 1.00( 99.98%)d 0.00(  0.01%)
                                                  f 0.00(  0.00%)
                                            0.0000 -0.0000 -0.0000  0.0068  0.0003
                                           -0.0000 -0.0005 -0.0000  0.0002  0.9690
                                            0.0026  0.0013 -0.0003  0.0000 -0.0000
                                           -0.2258 -0.0005 -0.0004  0.0001 -0.0000
                                            0.0000  0.0998  0.0003  0.0002  0.0000
                                           -0.0000  0.0089 -0.0018 -0.0009 -0.0000
                                            0.0016 -0.0006  0.0004 -0.0000  0.0006
                                           -0.0002 -0.0001 -0.0000  0.0033 -0.0002
                                           -0.0011  0.0000  0.0003 -0.0001  0.0001
                                           -0.0002 -0.0002 -0.0008 -0.0005  0.0002
                                            0.0001  0.0000 -0.0000  0.0008  0.0005
                                           -0.0025 -0.0013  0.0018  0.0009
    31. (1.86931) LP ( 4)Br   3           s(  6.78%)p13.75( 93.17%)d 0.01(  0.05%)
                                                  f 0.00(  0.01%)
                                           -0.0000  0.0000 -0.0000  0.2603  0.0007
                                           -0.0021 -0.0015  0.0000 -0.0000  0.2052
                                           -0.0011 -0.0005  0.0005 -0.0000 -0.0000
                                            0.9368 -0.0053 -0.0034  0.0005  0.0000
                                            0.0000  0.1093  0.0004 -0.0003  0.0003
                                           -0.0000  0.0076 -0.0017  0.0001 -0.0000
                                            0.0012 -0.0003  0.0001  0.0000  0.0056
                                           -0.0014  0.0005 -0.0000 -0.0163  0.0032
                                            0.0008 -0.0000 -0.0108  0.0024 -0.0003
                                           -0.0012 -0.0005 -0.0009 -0.0005 -0.0038
                                           -0.0020 -0.0014 -0.0006  0.0006  0.0003
                                           -0.0030 -0.0015 -0.0038 -0.0015
    32. (0.01931) RY*( 1) O   1           s(  0.03%)p99.99( 98.59%)d39.02(  1.32%)
                                                  f 1.57(  0.05%)
                                           -0.0000 -0.0000  0.0183  0.0013  0.0003
                                            0.0012 -0.0076  0.0004 -0.0015 -0.0048
                                            0.1964 -0.0071 -0.0038 -0.0245  0.9721
                                           -0.0400 -0.0124  0.0174  0.0048  0.0010
                                            0.0855  0.0272  0.0099 -0.0595  0.0023
                                            0.0168  0.0120 -0.0013 -0.0037  0.0268
                                            0.0013 -0.0030 -0.0111  0.0100  0.0006
                                            0.0000 -0.0020  0.0024  0.0123 -0.0104
                                           -0.0032  0.0014  0.0011 -0.0004  0.0038
                                           -0.0032
    33. (0.01580) RY*( 2) O   1           s( 30.35%)p 2.22( 67.31%)d 0.07(  2.11%)
                                                  f 0.01(  0.23%)
                                           -0.0000  0.0013  0.5496 -0.0377 -0.0052
                                            0.0385 -0.3436 -0.0031  0.0210 -0.0167
                                            0.7245 -0.0001 -0.0501  0.0024 -0.1591
                                            0.0026  0.0107  0.1276  0.0248  0.0063
                                           -0.0312 -0.0072 -0.0036  0.0188 -0.0016
                                           -0.0053  0.0226  0.0029  0.0012  0.0468
                                            0.0021 -0.0055 -0.0036  0.0007 -0.0053
                                            0.0016  0.0027  0.0020 -0.0099  0.0046
                                            0.0076 -0.0042  0.0327 -0.0147  0.0241
                                           -0.0122
    34. (0.00782) RY*( 3) O   1           s( 16.43%)p 0.50(  8.19%)d 4.51( 74.06%)
                                                  f 0.08(  1.32%)
                                           -0.0000  0.0165  0.3999 -0.0619  0.0156
                                           -0.0209 -0.1399  0.0073  0.0309 -0.0102
                                           -0.2313  0.0264 -0.0713  0.0004  0.0384
                                           -0.0039  0.0041 -0.8211 -0.0125 -0.0241
                                            0.0771  0.0036  0.0036 -0.0130 -0.0029
                                           -0.0000  0.1445  0.0087  0.0284  0.1941
                                           -0.0088  0.0042 -0.0059  0.0032 -0.0235
                                            0.0145  0.0015  0.0021  0.0025 -0.0005
                                           -0.0178  0.0077 -0.0476  0.0162 -0.0892
                                            0.0395
    35. (0.00700) RY*( 4) O   1           s(  0.09%)p 4.36(  0.40%)d99.99( 97.83%)
                                                  f18.42(  1.68%)
                                           -0.0000  0.0018  0.0300 -0.0031 -0.0009
                                           -0.0018 -0.0018  0.0011  0.0023 -0.0020
                                           -0.0059 -0.0023 -0.0018 -0.0165 -0.0597
                                           -0.0088 -0.0033  0.0573 -0.0065  0.0004
                                            0.9192 -0.0360  0.0163  0.3344 -0.0191
                                            0.0057 -0.0753  0.0049  0.0003 -0.1021
                                            0.0050 -0.0038 -0.0413  0.0189  0.0052
                                           -0.0022  0.0175 -0.0078  0.1059 -0.0469
                                           -0.0235  0.0104 -0.0041  0.0004  0.0154
                                           -0.0072
    36. (0.00624) RY*( 5) O   1           s(  1.05%)p11.59( 12.22%)d80.78( 85.18%)
                                                  f 1.47(  1.55%)
[...]
                                           -0.0585  0.3757  0.1400 -0.3762  0.1734
                                           -0.0757 -0.0176 -0.1435  0.0113  0.0838
                                           -0.0816  0.0937 -0.0982
   163. (0.00031) RY*( 9) H   4           s(  8.59%)p 8.72( 74.90%)d 1.92( 16.50%)
                                           -0.0021 -0.0222  0.2921  0.0101 -0.0340
                                            0.1646  0.1323  0.0613 -0.0994  0.0416
                                            0.1081 -0.8216  0.0360 -0.2493  0.0182
                                            0.0646 -0.0842  0.1534 -0.1973  0.1352
                                            0.0319  0.0727  0.0655
   164. (0.00024) RY*(10) H   4           s(  4.65%)p 1.60(  7.45%)d18.92( 87.91%)
                                            0.0058  0.0025  0.2039  0.0697  0.0700
                                            0.0430 -0.0989 -0.0182 -0.1965  0.0664
                                           -0.0079  0.1169  0.0291  0.3411  0.0392
                                            0.7817 -0.0830 -0.0207 -0.0151  0.2921
                                           -0.0175  0.2245 -0.0806
   165. (0.00024) RY*(11) H   4           s(  2.75%)p13.11( 36.11%)d22.20( 61.14%)
                                            0.0154  0.0626 -0.0305  0.1499 -0.0944
                                           -0.1464  0.1533 -0.0421 -0.3373  0.3858
                                           -0.0275  0.1875 -0.0831 -0.3840 -0.0186
                                            0.0245  0.0082 -0.0129  0.0543  0.4743
                                            0.0953 -0.4673  0.0862
   166. (0.00021) RY*(12) H   4           s(  2.25%)p13.47( 30.36%)d29.89( 67.38%)
                                            0.0154  0.0212  0.0984  0.1103  0.0381
                                           -0.0365 -0.0327 -0.0317 -0.4133  0.3289
                                            0.0339  0.1247  0.0553  0.0979 -0.0600
                                           -0.4428  0.0624  0.1476  0.0070  0.0980
                                            0.0701  0.6510  0.0236
   167. (0.00017) RY*(13) H   4           s(  8.32%)p 1.16(  9.67%)d 9.85( 82.01%)
                                           -0.0040 -0.0300  0.2792 -0.0659  0.0494
                                           -0.0399 -0.2128  0.0134  0.1213 -0.1694
                                            0.0007 -0.0527  0.0315  0.4674  0.1074
                                           -0.3926  0.0255  0.0720 -0.1058  0.5464
                                           -0.0984 -0.2858 -0.1700
   168. (0.00014) RY*(14) H   4           s(  8.40%)p 4.79( 40.25%)d 6.11( 51.34%)
                                           -0.0029 -0.0055  0.1418  0.2528  0.0102
                                            0.0531  0.1372 -0.0117  0.0222 -0.0532
                                           -0.0148 -0.1946 -0.5824  0.0865 -0.1096
                                           -0.0572  0.1500 -0.3659  0.5496  0.0495
                                           -0.0910  0.0806 -0.1227
   169. (0.00011) RY*(15) H   4           s(  1.03%)p37.27( 38.43%)d58.70( 60.54%)
                                            0.0024  0.0061  0.0998 -0.0178 -0.0264
                                           -0.1085 -0.5754 -0.0118  0.0442  0.1297
                                            0.0042 -0.0556 -0.1369 -0.2071  0.6579
                                            0.0054 -0.0449 -0.0755  0.1528 -0.0949
                                            0.2944  0.0374 -0.0373
   170. (0.00011) RY*(16) H   4           s( 63.25%)p 0.10(  6.25%)d 0.48( 30.50%)
                                           -0.0011 -0.0039  0.3045  0.7347  0.0284
                                            0.1271 -0.0198  0.0094  0.0518  0.1245
                                           -0.0183  0.0491  0.1554  0.2162 -0.0298
                                           -0.0413 -0.0359  0.0765 -0.0889 -0.3488
                                            0.1872 -0.2653  0.1160
   171. (0.00006) RY*(17) H   4           s(  0.00%)p 1.00(  0.76%)d99.99( 99.24%)
   172. (0.00005) RY*(18) H   4           s( 25.03%)p 1.29( 32.22%)d 1.71( 42.75%)
   173. (0.00005) RY*(19) H   4           s(  0.10%)p99.99( 32.78%)d99.99( 67.12%)
   174. (0.00006) RY*(20) H   4           s(  0.38%)p 5.59(  2.15%)d99.99( 97.47%)
   175. (0.00004) RY*(21) H   4           s( 18.30%)p 1.87( 34.31%)d 2.59( 47.39%)
   176. (0.00004) RY*(22) H   4           s( 12.78%)p 1.80( 22.96%)d 5.03( 64.26%)
   177. (0.05884) BD*( 1) O   1 -Cl   2  
                ( 41.14%)   0.6414* O   1 s( 10.00%)p 8.95( 89.48%)d 0.05(  0.50%)
                                                  f 0.00(  0.02%)
                                           -0.0003 -0.3135  0.0389  0.0142  0.0006
                                           -0.9448  0.0279  0.0100  0.0105  0.0169
                                            0.0290  0.0051  0.0001 -0.0090 -0.0056
                                           -0.0010  0.0001  0.0226  0.0016 -0.0025
                                           -0.0053 -0.0007  0.0001  0.0041  0.0004
                                           -0.0006 -0.0520 -0.0047 -0.0023  0.0416
                                            0.0038 -0.0004  0.0000  0.0000  0.0112
                                           -0.0012  0.0002 -0.0001 -0.0001  0.0004
                                            0.0022 -0.0007 -0.0055 -0.0006  0.0005
                                           -0.0021
                ( 58.86%)  -0.7672*Cl   2 s(  8.18%)p11.08( 90.59%)d 0.14(  1.13%)
                                                  f 0.01(  0.11%)
                                            0.0000 -0.0005 -0.2806  0.0542  0.0103
                                           -0.0022  0.0004  0.9495 -0.0638 -0.0141
                                            0.0045  0.0000  0.0097  0.0020 -0.0023
                                            0.0008 -0.0000 -0.0018 -0.0001  0.0007
                                           -0.0003 -0.0119  0.0001 -0.0008  0.0037
                                            0.0005  0.0002  0.0018 -0.0001 -0.0004
                                           -0.0885  0.0102  0.0003  0.0559 -0.0056
                                           -0.0008  0.0003 -0.0000 -0.0208  0.0033
                                           -0.0005  0.0002 -0.0002 -0.0000 -0.0006
                                            0.0004  0.0253 -0.0030  0.0012 -0.0002
   178. (0.09964) BD*( 1) O   1 - H   4  
                ( 21.04%)   0.4587* O   1 s( 30.08%)p 2.31( 69.42%)d 0.02(  0.49%)
                                                  f 0.00(  0.01%)
                                            0.0003  0.5483 -0.0084 -0.0081  0.0018
                                           -0.1956  0.0178  0.0028  0.0028 -0.7941
                                            0.0096  0.0068  0.0039  0.1577 -0.0012
                                           -0.0015 -0.0016 -0.0006 -0.0029 -0.0002
                                            0.0001  0.0007  0.0002 -0.0234 -0.0014
                                            0.0004 -0.0569 -0.0049 -0.0022 -0.0331
                                           -0.0010  0.0026 -0.0038 -0.0001  0.0014
                                            0.0005  0.0074  0.0003 -0.0022 -0.0007
                                            0.0008  0.0007  0.0016  0.0024 -0.0005
                                            0.0025
                ( 78.96%)  -0.8886* H   4 s( 99.84%)p 0.00(  0.16%)d 0.00(  0.00%)
                                            0.9984  0.0406  0.0019 -0.0010  0.0115
                                            0.0077  0.0017 -0.0147  0.0304 -0.0102
                                            0.0092 -0.0061  0.0007 -0.0002 -0.0022
                                            0.0006  0.0005  0.0007  0.0001 -0.0017
                                           -0.0002 -0.0004 -0.0027


 NHO Directionality and "Bond Bending" (deviations from line of nuclear centers)

         [Thresholds for printing:  angular deviation  >  1.0 degree]
                                    hybrid p-character > 25.0%
                                    orbital occupancy  >  0.10e

                                Line of Centers        Hybrid 1              Hybrid 2
                                ---------------  -------------------   ------------------
                NBO               Theta   Phi    Theta   Phi    Dev    Theta   Phi    Dev
 ========================================================================================
     1. BD (   1) O   1 -Cl   2    90.0    0.0    89.0  356.7   3.4      --     --    --
    23. LP (   1) O   1             --     --    101.5  113.6   --       --     --    --
    24. LP (   2) O   1             --     --     11.7   92.5   --       --     --    --
    26. LP (   2)Cl   2             --     --    172.7  270.4   --       --     --    --
    27. LP (   3)Cl   2             --     --     97.3   90.2   --       --     --    --
    29. LP (   2)Br   3             --     --      8.7  215.7   --       --     --    --
    30. LP (   3)Br   3             --     --     84.3  346.9   --       --     --    --
    31. LP (   4)Br   3             --     --     83.4   77.6   --       --     --    --


 Natural Bond Orbitals (Summary):

           NBO                  Occupancy  
 -----------------------------------------------
 Molecular unit  1  (HOCl)
     1. BD (   1) O   1 -Cl   2          1.93865
     2. BD (   1) O   1 - H   4          1.96652
     3. CR (   1) O   1                  1.99967
     4. CR (   1)Cl   2                  2.00000
     5. CR (   2)Cl   2                  1.99981
     6. CR (   3)Cl   2                  1.99996
     7. CR (   4)Cl   2                  2.00003
     8. CR (   5)Cl   2                  2.00003
    23. LP (   1) O   1                  1.96684
    24. LP (   2) O   1                  1.95330
    25. LP (   1)Cl   2                  1.97409
    26. LP (   2)Cl   2                  1.95618
    27. LP (   3)Cl   2                  1.95497
    32. RY*(   1) O   1                  0.01931
    33. RY*(   2) O   1                  0.01580
    34. RY*(   3) O   1                  0.00782
    35. RY*(   4) O   1                  0.00700
    36. RY*(   5) O   1                  0.00624
    37. RY*(   6) O   1                  0.00609
    38. RY*(   7) O   1                  0.00569
    39. RY*(   8) O   1                  0.00309
    40. RY*(   9) O   1                  0.00251
    41. RY*(  10) O   1                  0.00081
    42. RY*(  11) O   1                  0.00064
    43. RY*(  12) O   1                  0.00059
    44. RY*(  13) O   1                  0.00059
    45. RY*(  14) O   1                  0.00050
    46. RY*(  15) O   1                  0.00050
    47. RY*(  16) O   1                  0.00048
    48. RY*(  17) O   1                  0.00047
    49. RY*(  18) O   1                  0.00045
    50. RY*(  19) O   1                  0.00045
    51. RY*(  20) O   1                  0.00045
    52. RY*(  21) O   1                  0.00044
    53. RY*(  22) O   1                  0.00041
    54. RY*(  23) O   1                  0.00034
    55. RY*(  24) O   1                  0.00029
    56. RY*(  25) O   1                  0.00024
    57. RY*(  26) O   1                  0.00020
    58. RY*(  27) O   1                  0.00013
    59. RY*(  28) O   1                  0.00013
    60. RY*(  29) O   1                  0.00012
    61. RY*(  30) O   1                  0.00008
    62. RY*(  31) O   1                  0.00009
    63. RY*(  32) O   1                  0.00008
    64. RY*(  33) O   1                  0.00007
    65. RY*(  34) O   1                  0.00008
    66. RY*(  35) O   1                  0.00008
    67. RY*(  36) O   1                  0.00006
    68. RY*(  37) O   1                  0.00005
    69. RY*(  38) O   1                  0.00006
    70. RY*(  39) O   1                  0.00004
    71. RY*(  40) O   1                  0.00003
    72. RY*(  41) O   1                  0.00001
    73. RY*(   1)Cl   2                  0.02209
    74. RY*(   2)Cl   2                  0.01727
    75. RY*(   3)Cl   2                  0.01675
    76. RY*(   4)Cl   2                  0.01646
    77. RY*(   5)Cl   2                  0.01160
    78. RY*(   6)Cl   2                  0.00923
    79. RY*(   7)Cl   2                  0.00901
    80. RY*(   8)Cl   2                  0.00626
    81. RY*(   9)Cl   2                  0.00166
    82. RY*(  10)Cl   2                  0.00126
    83. RY*(  11)Cl   2                  0.00126
    84. RY*(  12)Cl   2                  0.00119
    85. RY*(  13)Cl   2                  0.00120
    86. RY*(  14)Cl   2                  0.00116
    87. RY*(  15)Cl   2                  0.00110
    88. RY*(  16)Cl   2                  0.00094
    89. RY*(  17)Cl   2                  0.00076
    90. RY*(  18)Cl   2                  0.00076
    91. RY*(  19)Cl   2                  0.00063
    92. RY*(  20)Cl   2                  0.00054
    93. RY*(  21)Cl   2                  0.00043
    94. RY*(  22)Cl   2                  0.00035
    95. RY*(  23)Cl   2                  0.00036
    96. RY*(  24)Cl   2                  0.00031
    97. RY*(  25)Cl   2                  0.00019
    98. RY*(  26)Cl   2                  0.00016
    99. RY*(  27)Cl   2                  0.00014
   100. RY*(  28)Cl   2                  0.00013
   101. RY*(  29)Cl   2                  0.00012
   102. RY*(  30)Cl   2                  0.00012
   103. RY*(  31)Cl   2                  0.00011
   104. RY*(  32)Cl   2                  0.00010
   105. RY*(  33)Cl   2                  0.00009
   106. RY*(  34)Cl   2                  0.00010
   107. RY*(  35)Cl   2                  0.00010
   108. RY*(  36)Cl   2                  0.00007
   109. RY*(  37)Cl   2                  0.00008
   110. RY*(  38)Cl   2                  0.00005
   111. RY*(  39)Cl   2                  0.00004
   112. RY*(  40)Cl   2                  0.00003
   113. RY*(  41)Cl   2                  0.00000
   155. RY*(   1) H   4                  0.01068
   156. RY*(   2) H   4                  0.00545
   157. RY*(   3) H   4                  0.00483
   158. RY*(   4) H   4                  0.00360
   159. RY*(   5) H   4                  0.00059
   160. RY*(   6) H   4                  0.00051
   161. RY*(   7) H   4                  0.00047
   162. RY*(   8) H   4                  0.00034
   163. RY*(   9) H   4                  0.00031
   164. RY*(  10) H   4                  0.00024
   165. RY*(  11) H   4                  0.00024
   166. RY*(  12) H   4                  0.00021
   167. RY*(  13) H   4                  0.00017
   168. RY*(  14) H   4                  0.00014
   169. RY*(  15) H   4                  0.00011
   170. RY*(  16) H   4                  0.00011
   171. RY*(  17) H   4                  0.00006
   172. RY*(  18) H   4                  0.00005
   173. RY*(  19) H   4                  0.00005
   174. RY*(  20) H   4                  0.00006
   175. RY*(  21) H   4                  0.00004
   176. RY*(  22) H   4                  0.00004
   177. BD*(   1) O   1 -Cl   2          0.05884
   178. BD*(   1) O   1 - H   4          0.09964
       -------------------------------
              Total Lewis   25.71005  ( 98.4925%)
        Valence non-Lewis    0.15847  (  0.6071%)
        Rydberg non-Lewis    0.23505  (  0.9004%)
       -------------------------------
            Total unit  1   26.10357  (100.0000%)
           Charge unit  1   -0.10357

 Molecular unit  2  (Br)
     9. CR (   1)Br   3                  2.00000
    10. CR (   2)Br   3                  2.00000
    11. CR (   3)Br   3                  1.99991
    12. CR (   4)Br   3                  2.00000
    13. CR (   5)Br   3                  2.00001
    14. CR (   6)Br   3                  2.00000
    15. CR (   7)Br   3                  1.99995
    16. CR (   8)Br   3                  2.00000
    17. CR (   9)Br   3                  2.00001
    18. CR (  10)Br   3                  1.99766
    19. CR (  11)Br   3                  1.99769
    20. CR (  12)Br   3                  1.99766
    21. CR (  13)Br   3                  1.99764
    22. CR (  14)Br   3                  1.99767
    28. LP (   1)Br   3                  1.97861
    29. LP (   2)Br   3                  1.95397
    30. LP (   3)Br   3                  1.95369
    31. LP (   4)Br   3                  1.86931
   114. RY*(   1)Br   3                  0.01882
   115. RY*(   2)Br   3                  0.01876
   116. RY*(   3)Br   3                  0.01865
   117. RY*(   4)Br   3                  0.01865
   118. RY*(   5)Br   3                  0.01787
   119. RY*(   6)Br   3                  0.01133
   120. RY*(   7)Br   3                  0.01126
   121. RY*(   8)Br   3                  0.00936
   122. RY*(   9)Br   3                  0.00236
   123. RY*(  10)Br   3                  0.00180
   124. RY*(  11)Br   3                  0.00179
   125. RY*(  12)Br   3                  0.00175
   126. RY*(  13)Br   3                  0.00175
   127. RY*(  14)Br   3                  0.00175
   128. RY*(  15)Br   3                  0.00175
   129. RY*(  16)Br   3                  0.00175
   130. RY*(  17)Br   3                  0.00175
   131. RY*(  18)Br   3                  0.00175
   132. RY*(  19)Br   3                  0.00143
   133. RY*(  20)Br   3                  0.00140
   134. RY*(  21)Br   3                  0.00122
   135. RY*(  22)Br   3                  0.00080
   136. RY*(  23)Br   3                  0.00079
   137. RY*(  24)Br   3                  0.00073
   138. RY*(  25)Br   3                  0.00040
   139. RY*(  26)Br   3                  0.00028
   140. RY*(  27)Br   3                  0.00026
   141. RY*(  28)Br   3                  0.00025
   142. RY*(  29)Br   3                  0.00026
   143. RY*(  30)Br   3                  0.00025
   144. RY*(  31)Br   3                  0.00024
   145. RY*(  32)Br   3                  0.00024
   146. RY*(  33)Br   3                  0.00022
   147. RY*(  34)Br   3                  0.00022
   148. RY*(  35)Br   3                  0.00018
   149. RY*(  36)Br   3                  0.00016
   150. RY*(  37)Br   3                  0.00015
   151. RY*(  38)Br   3                  0.00011
   152. RY*(  39)Br   3                  0.00007
   153. RY*(  40)Br   3                  0.00007
   154. RY*(  41)Br   3                  0.00004
       -------------------------------
              Total Lewis   35.74377  ( 99.5747%)
        Valence non-Lewis    0.00000  (  0.0000%)
        Rydberg non-Lewis    0.15266  (  0.4253%)
       -------------------------------
            Total unit  2   35.89643  (100.0000%)
           Charge unit  2   -0.89643
 Leave Link  607 at Fri Nov  5 16:35:52 2021, MaxMem= 16106127360 cpu:              79.2 elap:               2.9
 (Enter /sw/contrib/gaussian/g16/B01/g16/l9999.exe)
 1\1\GINC-N2219\SP\RMP2-FC\Aug-CC-pVTZ\Br1Cl1H1O1(1-)\CGAVINH\05-Nov-20
 21\0\\#p pop=NBO SP NoSymm mp2/aug-cc-pvtz density=current\\title\\-1,
 1\O\X,1,10.\Cl,1,1.69710154,2,90.\Br,1,3.09318778,2,90.,3,102.48429983
 ,0\H,1,0.96862334,2,80.,3,102.48429983,0\\Version=ES64L-G16RevB.01\HF=
 -3107.4786512\MP2=-3108.1801236\RMSD=3.844e-09\Dipole=0.8817846,0.9812
 298,0.0516552\Quadrupole=7.9554502,-17.3294751,9.3740249,-6.2160773,-0
 .0483474,-0.023181\PG=C01 [X(Br1Cl1H1O1)]\\@


 A true friend is someone who is there for
 you when he'd rather be anywhere else.
                               -- Len Wein
 Job cpu time:       0 days  0 hours  6 minutes  3.8 seconds.
 Elapsed time:       0 days  0 hours  0 minutes 19.2 seconds.
 File lengths (MBytes):  RWF=     15 Int=      0 D2E=      0 Chk=      8 Scr=      1
 Normal termination of Gaussian 16 at Fri Nov  5 16:35:53 2021.
