 Entering Gaussian System, Link 0=g16
 Input=brhocl_oop_45_sp.gjf
 Output=brhocl_oop_45_sp.log
 Initial command:
 /sw/contrib/gaussian/g16/B01/g16/l1.exe "/scr/Gau-19571.inp" -scrdir="/scr/"
 Entering Link 1 = /sw/contrib/gaussian/g16/B01/g16/l1.exe PID=     19572.
  
 Copyright (c) 1988-2017, Gaussian, Inc.  All Rights Reserved.
  
 This is part of the Gaussian(R) 16 program.  It is based on
 the Gaussian(R) 09 system (copyright 2009, Gaussian, Inc.),
 the Gaussian(R) 03 system (copyright 2003, Gaussian, Inc.),
 the Gaussian(R) 98 system (copyright 1998, Gaussian, Inc.),
 the Gaussian(R) 94 system (copyright 1995, Gaussian, Inc.),
 the Gaussian 92(TM) system (copyright 1992, Gaussian, Inc.),
 the Gaussian 90(TM) system (copyright 1990, Gaussian, Inc.),
 the Gaussian 88(TM) system (copyright 1988, Gaussian, Inc.),
 the Gaussian 86(TM) system (copyright 1986, Carnegie Mellon
 University), and the Gaussian 82(TM) system (copyright 1983,
 Carnegie Mellon University). Gaussian is a federally registered
 trademark of Gaussian, Inc.
  
 This software contains proprietary and confidential information,
 including trade secrets, belonging to Gaussian, Inc.
  
 This software is provided under written license and may be
 used, copied, transmitted, or stored only in accord with that
 written license.
  
 The following legend is applicable only to US Government
 contracts under FAR:
  
                    RESTRICTED RIGHTS LEGEND
  
 Use, reproduction and disclosure by the US Government is
 subject to restrictions as set forth in subparagraphs (a)
 and (c) of the Commercial Computer Software - Restricted
 Rights clause in FAR 52.227-19.
  
 Gaussian, Inc.
 340 Quinnipiac St., Bldg. 40, Wallingford CT 06492
  
  
 ---------------------------------------------------------------
 Warning -- This program may not be used in any manner that
 competes with the business of Gaussian, Inc. or will provide
 assistance to any competitor of Gaussian, Inc.  The licensee
 of this program is prohibited from giving any competitor of
 Gaussian, Inc. access to this program.  By using this program,
 the user acknowledges that Gaussian, Inc. is engaged in the
 business of creating and licensing software in the field of
 computational chemistry and represents and warrants to the
 licensee that it is not a competitor of Gaussian, Inc. and that
 it will not use this program in any manner prohibited above.
 ---------------------------------------------------------------
  

 Cite this work as:
 Gaussian 16, Revision B.01,
 M. J. Frisch, G. W. Trucks, H. B. Schlegel, G. E. Scuseria, 
 M. A. Robb, J. R. Cheeseman, G. Scalmani, V. Barone, 
 G. A. Petersson, H. Nakatsuji, X. Li, M. Caricato, A. V. Marenich, 
 J. Bloino, B. G. Janesko, R. Gomperts, B. Mennucci, H. P. Hratchian, 
 J. V. Ortiz, A. F. Izmaylov, J. L. Sonnenberg, D. Williams-Young, 
 F. Ding, F. Lipparini, F. Egidi, J. Goings, B. Peng, A. Petrone, 
 T. Henderson, D. Ranasinghe, V. G. Zakrzewski, J. Gao, N. Rega, 
 G. Zheng, W. Liang, M. Hada, M. Ehara, K. Toyota, R. Fukuda, 
 J. Hasegawa, M. Ishida, T. Nakajima, Y. Honda, O. Kitao, H. Nakai, 
 T. Vreven, K. Throssell, J. A. Montgomery, Jr., J. E. Peralta, 
 F. Ogliaro, M. J. Bearpark, J. J. Heyd, E. N. Brothers, K. N. Kudin, 
 V. N. Staroverov, T. A. Keith, R. Kobayashi, J. Normand, 
 K. Raghavachari, A. P. Rendell, J. C. Burant, S. S. Iyengar, 
 J. Tomasi, M. Cossi, J. M. Millam, M. Klene, C. Adamo, R. Cammi, 
 J. W. Ochterski, R. L. Martin, K. Morokuma, O. Farkas, 
 J. B. Foresman, and D. J. Fox, Gaussian, Inc., Wallingford CT, 2016.
 
 ******************************************
 Gaussian 16:  ES64L-G16RevB.01 20-Dec-2017
                 5-Nov-2021 
 ******************************************
 %nproc=28
 Will use up to   28 processors via shared memory.
 %mem=120GB
 %chk=/gscratch/ilahie/mccoygrp/coire_hocl/oop_s_rOH_f/brhocl/brhocl_oop_0_sp.chk
 ----------------------------------------------------
 #p pop=NBO SP NoSymm mp2/aug-cc-pvtz density=current
 ----------------------------------------------------
 1/30=1,38=1,172=1/1;
 2/12=2,15=1,17=6,18=5,40=1/2;
 3/5=16,6=1,7=10,11=9,25=1,30=1,71=1/1,2,3;
 4//1;
 5/5=2,38=5/2;
 8/6=4,10=1/1;
 9/15=1,16=-3/6;
 10/5=1,13=10,31=1/2;
 6/7=2,8=2,9=2,10=2,22=-1,40=1/1,7;
 99/5=1,9=1/99;
 Leave Link    1 at Fri Nov  5 16:37:50 2021, MaxMem= 16106127360 cpu:               0.6 elap:               0.0
 (Enter /sw/contrib/gaussian/g16/B01/g16/l101.exe)
 -----
 title
 -----
 Symbolic Z-matrix:
 Charge = -1 Multiplicity = 1
 O
 X                    1     10. 
 Cl                   1    r1       2     90. 
 Br                   1    r2       2     90.      3    a1       0
 H                    1    r3       2    oop      3    a1       0
       Variables:
  r1                    1.69745                  
  r2                    3.09319                  
  r3                    0.96862                  
  a1                  102.4843                   
  OOP                  45.                       
 
 ITRead=  0  0  0  0
 MicOpt= -1 -1 -1 -1
 NAtoms=      4 NQM=        4 NQMF=       0 NMMI=      0 NMMIF=      0
                NMic=       0 NMicF=      0.
                    Isotopes and Nuclear Properties:
 (Nuclear quadrupole moments (NQMom) in fm**2, nuclear magnetic moments (NMagM)
  in nuclear magnetons)

  Atom         1           2           3           4
 IAtWgt=          16          35          79           1
 AtmWgt=  15.9949146  34.9688527  78.9183361   1.0078250
 NucSpn=           0           3           3           1
 AtZEff=  -0.0000000  -0.0000000  -0.0000000  -0.0000000
 NQMom=    0.0000000  -8.1650000  31.3000000   0.0000000
 NMagM=    0.0000000   0.8218740   2.1063990   2.7928460
 AtZNuc=   8.0000000  17.0000000  35.0000000   1.0000000
 Leave Link  101 at Fri Nov  5 16:37:50 2021, MaxMem= 16106127360 cpu:               2.2 elap:               0.1
 (Enter /sw/contrib/gaussian/g16/B01/g16/l202.exe)
                          Input orientation:                          
 ---------------------------------------------------------------------
 Center     Atomic      Atomic             Coordinates (Angstroms)
 Number     Number       Type             X           Y           Z
 ---------------------------------------------------------------------
      1          8           0        0.000000    0.000000    0.000000
      2         17           0        1.697452    0.000000    0.000000
      3         35           0       -0.668661   -3.020050    0.000000
      4          1           0       -0.148061   -0.668725    0.684920
 ---------------------------------------------------------------------
                    Distance matrix (angstroms):
                    1          2          3          4
     1  O    0.000000
     2  Cl   1.697452   0.000000
     3  Br   3.093188   3.836560   0.000000
     4  H    0.968623   2.078996   2.503771   0.000000
 Symmetry turned off by external request.
 Stoichiometry    BrClHO(1-)
 Framework group  C1[X(BrClHO)]
 Deg. of freedom     6
 Full point group                 C1      NOp   1
 Rotational constants (GHZ):          21.3249976           1.2737396           1.2045536
 Leave Link  202 at Fri Nov  5 16:37:50 2021, MaxMem= 16106127360 cpu:               1.1 elap:               0.1
 (Enter /sw/contrib/gaussian/g16/B01/g16/l301.exe)
 Standard basis: Aug-CC-pVTZ (5D, 7F)
 Ernie: Thresh=  0.10000D-02 Tol=  0.10000D-05 Strict=F.
 Ernie:  48 primitive shells out of 228 were deleted.
   178 basis functions,   430 primitive gaussians,   208 cartesian basis functions
    31 alpha electrons       31 beta electrons
       nuclear repulsion energy       188.4630494725 Hartrees.
 IExCor=    0 DFT=F Ex=HF Corr=None ExCW=0 ScaHFX=  1.000000
 ScaDFX=  1.000000  1.000000  1.000000  1.000000 ScalE2=  1.000000  1.000000
 IRadAn=      5 IRanWt=     -1 IRanGd=            0 ICorTp=0 IEmpDi=  4
 NAtoms=    4 NActive=    4 NUniq=    4 SFac= 1.00D+00 NAtFMM=   60 NAOKFM=F Big=F
 Integral buffers will be    131072 words long.
 Raffenetti 1 integral format.
 Two-electron integral symmetry is turned off.
 Leave Link  301 at Fri Nov  5 16:37:50 2021, MaxMem= 16106127360 cpu:               1.1 elap:               0.1
 (Enter /sw/contrib/gaussian/g16/B01/g16/l302.exe)
 NPDir=0 NMtPBC=     1 NCelOv=     1 NCel=       1 NClECP=     1 NCelD=      1
         NCelK=      1 NCelE2=     1 NClLst=     1 CellRange=     0.0.
 One-electron integrals computed using PRISM.
 NBasis=   178 RedAO= T EigKep=  2.92D-04  NBF=   178
 NBsUse=   178 1.00D-06 EigRej= -1.00D+00 NBFU=   178
 Leave Link  302 at Fri Nov  5 16:37:50 2021, MaxMem= 16106127360 cpu:               4.3 elap:               0.2
 (Enter /sw/contrib/gaussian/g16/B01/g16/l303.exe)
 DipDrv:  MaxL=1.
 Leave Link  303 at Fri Nov  5 16:37:50 2021, MaxMem= 16106127360 cpu:               0.7 elap:               0.0
 (Enter /sw/contrib/gaussian/g16/B01/g16/l401.exe)
 ExpMin= 2.53D-02 ExpMax= 1.06D+07 ExpMxC= 1.21D+04 IAcc=3 IRadAn=         5 AccDes= 0.00D+00
 Harris functional with IExCor=  205 and IRadAn=       5 diagonalized for initial guess.
 HarFok:  IExCor=  205 AccDes= 0.00D+00 IRadAn=         5 IDoV= 1 UseB2=F ITyADJ=14
 ICtDFT=  3500011 ScaDFX=  1.000000  1.000000  1.000000  1.000000
 FoFCou: FMM=F IPFlag=           0 FMFlag=      100000 FMFlg1=           0
         NFxFlg=           0 DoJE=T BraDBF=F KetDBF=T FulRan=T
         wScrn=  0.000000 ICntrl=       500 IOpCl=  0 I1Cent=   200000004 NGrid=           0
         NMat0=    1 NMatS0=      1 NMatT0=    0 NMatD0=    1 NMtDS0=    0 NMtDT0=    0
 Symmetry not used in FoFCou.
 Harris En= -3106.39088784345    
 JPrj=0 DoOrth=F DoCkMO=F.
 Leave Link  401 at Fri Nov  5 16:37:51 2021, MaxMem= 16106127360 cpu:               8.5 elap:               0.4
 (Enter /sw/contrib/gaussian/g16/B01/g16/l502.exe)
 Keep R1 ints in memory in canonical form, NReq=149454250.
 FoFCou: FMM=F IPFlag=           0 FMFlag=           0 FMFlg1=           0
         NFxFlg=           0 DoJE=F BraDBF=F KetDBF=F FulRan=T
         wScrn=  0.000000 ICntrl=       600 IOpCl=  0 I1Cent=           0 NGrid=           0
         NMat0=    1 NMatS0=  15931 NMatT0=    0 NMatD0=    1 NMtDS0=    0 NMtDT0=    0
 Symmetry not used in FoFCou.
 Two-electron integral symmetry not used.
 Closed shell SCF:
 Using DIIS extrapolation, IDIIS=  1040.
 NGot= 16106127360 LenX= 15979127348 LenY= 15979083643
 Requested convergence on RMS density matrix=1.00D-08 within 128 cycles.
 Requested convergence on MAX density matrix=1.00D-06.
 Requested convergence on             energy=1.00D-06.
 No special actions if energy rises.

 Cycle   1  Pass 1  IDiag  1:
 E= -3107.29283934508    
 DIIS: error= 4.98D-02 at cycle   1 NSaved=   1.
 NSaved= 1 IEnMin= 1 EnMin= -3107.29283934508     IErMin= 1 ErrMin= 4.98D-02
 ErrMax= 4.98D-02  0.00D+00 EMaxC= 1.00D-01 BMatC= 6.19D-01 BMatP= 6.19D-01
 IDIUse=3 WtCom= 5.02D-01 WtEn= 4.98D-01
 Coeff-Com:  0.100D+01
 Coeff-En:   0.100D+01
 Coeff:      0.100D+01
 Gap=     0.553 Goal=   None    Shift=    0.000
 GapD=    0.553 DampG=2.000 DampE=0.500 DampFc=1.0000 IDamp=-1.
 RMSDP=2.73D-03 MaxDP=8.98D-02              OVMax= 1.22D-01

 Cycle   2  Pass 1  IDiag  1:
 E= -3107.43510451533     Delta-E=       -0.142265170245 Rises=F Damp=F
 DIIS: error= 9.96D-03 at cycle   2 NSaved=   2.
 NSaved= 2 IEnMin= 2 EnMin= -3107.43510451533     IErMin= 2 ErrMin= 9.96D-03
 ErrMax= 9.96D-03  0.00D+00 EMaxC= 1.00D-01 BMatC= 4.44D-02 BMatP= 6.19D-01
 IDIUse=3 WtCom= 9.00D-01 WtEn= 9.96D-02
 Coeff-Com:  0.138D+00 0.862D+00
 Coeff-En:   0.000D+00 0.100D+01
 Coeff:      0.124D+00 0.876D+00
 Gap=     0.308 Goal=   None    Shift=    0.000
 RMSDP=9.80D-04 MaxDP=4.01D-02 DE=-1.42D-01 OVMax= 7.63D-02

 Cycle   3  Pass 1  IDiag  1:
 E= -3107.45534751614     Delta-E=       -0.020243000811 Rises=F Damp=F
 DIIS: error= 5.72D-03 at cycle   3 NSaved=   3.
 NSaved= 3 IEnMin= 3 EnMin= -3107.45534751614     IErMin= 3 ErrMin= 5.72D-03
 ErrMax= 5.72D-03  0.00D+00 EMaxC= 1.00D-01 BMatC= 1.33D-02 BMatP= 4.44D-02
 IDIUse=3 WtCom= 9.43D-01 WtEn= 5.72D-02
 Coeff-Com:  0.720D-02 0.351D+00 0.642D+00
 Coeff-En:   0.000D+00 0.153D+00 0.847D+00
 Coeff:      0.678D-02 0.340D+00 0.653D+00
 Gap=     0.306 Goal=   None    Shift=    0.000
 RMSDP=3.35D-04 MaxDP=1.37D-02 DE=-2.02D-02 OVMax= 3.55D-02

 Cycle   4  Pass 1  IDiag  1:
 E= -3107.46450821041     Delta-E=       -0.009160694272 Rises=F Damp=F
 DIIS: error= 6.82D-04 at cycle   4 NSaved=   4.
 NSaved= 4 IEnMin= 4 EnMin= -3107.46450821041     IErMin= 4 ErrMin= 6.82D-04
 ErrMax= 6.82D-04  0.00D+00 EMaxC= 1.00D-01 BMatC= 1.36D-04 BMatP= 1.33D-02
 IDIUse=3 WtCom= 9.93D-01 WtEn= 6.82D-03
 Coeff-Com: -0.492D-02-0.330D-01 0.268D-01 0.101D+01
 Coeff-En:   0.000D+00 0.000D+00 0.000D+00 0.100D+01
 Coeff:     -0.489D-02-0.328D-01 0.266D-01 0.101D+01
 Gap=     0.304 Goal=   None    Shift=    0.000
 RMSDP=5.84D-05 MaxDP=1.30D-03 DE=-9.16D-03 OVMax= 3.79D-03

 Cycle   5  Pass 1  IDiag  1:
 E= -3107.46468080960     Delta-E=       -0.000172599183 Rises=F Damp=F
 DIIS: error= 1.84D-04 at cycle   5 NSaved=   5.
 NSaved= 5 IEnMin= 5 EnMin= -3107.46468080960     IErMin= 5 ErrMin= 1.84D-04
 ErrMax= 1.84D-04  0.00D+00 EMaxC= 1.00D-01 BMatC= 1.12D-05 BMatP= 1.36D-04
 IDIUse=3 WtCom= 9.98D-01 WtEn= 1.84D-03
 Coeff-Com:  0.623D-03-0.136D-01-0.296D-01-0.185D+00 0.123D+01
 Coeff-En:   0.000D+00 0.000D+00 0.000D+00 0.000D+00 0.100D+01
 Coeff:      0.622D-03-0.136D-01-0.295D-01-0.184D+00 0.123D+01
 Gap=     0.305 Goal=   None    Shift=    0.000
 RMSDP=2.95D-05 MaxDP=9.85D-04 DE=-1.73D-04 OVMax= 2.69D-03

 Cycle   6  Pass 1  IDiag  1:
 E= -3107.46471135448     Delta-E=       -0.000030544888 Rises=F Damp=F
 DIIS: error= 6.46D-05 at cycle   6 NSaved=   6.
 NSaved= 6 IEnMin= 6 EnMin= -3107.46471135448     IErMin= 6 ErrMin= 6.46D-05
 ErrMax= 6.46D-05  0.00D+00 EMaxC= 1.00D-01 BMatC= 1.63D-06 BMatP= 1.12D-05
 IDIUse=1 WtCom= 1.00D+00 WtEn= 0.00D+00
 Coeff-Com:  0.574D-03 0.257D-02-0.219D-02-0.129D+00 0.683D-02 0.112D+01
 Coeff:      0.574D-03 0.257D-02-0.219D-02-0.129D+00 0.683D-02 0.112D+01
 Gap=     0.305 Goal=   None    Shift=    0.000
 RMSDP=1.21D-05 MaxDP=4.84D-04 DE=-3.05D-05 OVMax= 1.31D-03

 Cycle   7  Pass 1  IDiag  1:
 E= -3107.46471647333     Delta-E=       -0.000005118850 Rises=F Damp=F
 DIIS: error= 2.53D-05 at cycle   7 NSaved=   7.
 NSaved= 7 IEnMin= 7 EnMin= -3107.46471647333     IErMin= 7 ErrMin= 2.53D-05
 ErrMax= 2.53D-05  0.00D+00 EMaxC= 1.00D-01 BMatC= 1.83D-07 BMatP= 1.63D-06
 IDIUse=1 WtCom= 1.00D+00 WtEn= 0.00D+00
 Coeff-Com: -0.228D-03 0.152D-02 0.603D-02 0.472D-01-0.169D+00-0.210D+00
 Coeff-Com:  0.132D+01
 Coeff:     -0.228D-03 0.152D-02 0.603D-02 0.472D-01-0.169D+00-0.210D+00
 Coeff:      0.132D+01
 Gap=     0.305 Goal=   None    Shift=    0.000
 RMSDP=5.28D-06 MaxDP=1.90D-04 DE=-5.12D-06 OVMax= 5.43D-04

 Cycle   8  Pass 1  IDiag  1:
 E= -3107.46471715552     Delta-E=       -0.000000682183 Rises=F Damp=F
 DIIS: error= 6.43D-06 at cycle   8 NSaved=   8.
 NSaved= 8 IEnMin= 8 EnMin= -3107.46471715552     IErMin= 8 ErrMin= 6.43D-06
 ErrMax= 6.43D-06  0.00D+00 EMaxC= 1.00D-01 BMatC= 1.16D-08 BMatP= 1.83D-07
 IDIUse=1 WtCom= 1.00D+00 WtEn= 0.00D+00
 Coeff-Com: -0.137D-04-0.679D-03-0.559D-03 0.770D-02 0.960D-02-0.498D-01
 Coeff-Com: -0.148D+00 0.118D+01
 Coeff:     -0.137D-04-0.679D-03-0.559D-03 0.770D-02 0.960D-02-0.498D-01
 Coeff:     -0.148D+00 0.118D+01
 Gap=     0.305 Goal=   None    Shift=    0.000
 RMSDP=1.23D-06 MaxDP=2.58D-05 DE=-6.82D-07 OVMax= 1.22D-04

 Cycle   9  Pass 1  IDiag  1:
 E= -3107.46471719518     Delta-E=       -0.000000039667 Rises=F Damp=F
 DIIS: error= 2.99D-06 at cycle   9 NSaved=   9.
 NSaved= 9 IEnMin= 9 EnMin= -3107.46471719518     IErMin= 9 ErrMin= 2.99D-06
 ErrMax= 2.99D-06  0.00D+00 EMaxC= 1.00D-01 BMatC= 1.68D-09 BMatP= 1.16D-08
 IDIUse=1 WtCom= 1.00D+00 WtEn= 0.00D+00
 Coeff-Com:  0.214D-04-0.511D-04-0.486D-03-0.650D-02 0.160D-01 0.363D-01
 Coeff-Com: -0.147D+00-0.424D-01 0.114D+01
 Coeff:      0.214D-04-0.511D-04-0.486D-03-0.650D-02 0.160D-01 0.363D-01
 Coeff:     -0.147D+00-0.424D-01 0.114D+01
 Gap=     0.305 Goal=   None    Shift=    0.000
 RMSDP=4.66D-07 MaxDP=1.07D-05 DE=-3.97D-08 OVMax= 5.22D-05

 Cycle  10  Pass 1  IDiag  1:
 E= -3107.46471720127     Delta-E=       -0.000000006083 Rises=F Damp=F
 DIIS: error= 1.48D-06 at cycle  10 NSaved=  10.
 NSaved=10 IEnMin=10 EnMin= -3107.46471720127     IErMin=10 ErrMin= 1.48D-06
 ErrMax= 1.48D-06  0.00D+00 EMaxC= 1.00D-01 BMatC= 3.09D-10 BMatP= 1.68D-09
 IDIUse=1 WtCom= 1.00D+00 WtEn= 0.00D+00
 Coeff-Com: -0.904D-06 0.104D-03 0.163D-03 0.348D-03-0.451D-02-0.192D-02
 Coeff-Com:  0.606D-01-0.211D+00-0.196D+00 0.135D+01
 Coeff:     -0.904D-06 0.104D-03 0.163D-03 0.348D-03-0.451D-02-0.192D-02
 Coeff:      0.606D-01-0.211D+00-0.196D+00 0.135D+01
 Gap=     0.305 Goal=   None    Shift=    0.000
 RMSDP=2.73D-07 MaxDP=7.17D-06 DE=-6.08D-09 OVMax= 3.16D-05

 Cycle  11  Pass 1  IDiag  1:
 E= -3107.46471720280     Delta-E=       -0.000000001532 Rises=F Damp=F
 DIIS: error= 5.56D-07 at cycle  11 NSaved=  11.
 NSaved=11 IEnMin=11 EnMin= -3107.46471720280     IErMin=11 ErrMin= 5.56D-07
 ErrMax= 5.56D-07  0.00D+00 EMaxC= 1.00D-01 BMatC= 3.68D-11 BMatP= 3.09D-10
 IDIUse=1 WtCom= 1.00D+00 WtEn= 0.00D+00
 Coeff-Com: -0.210D-05-0.295D-05 0.267D-04 0.534D-03-0.999D-03-0.275D-02
 Coeff-Com:  0.512D-02 0.441D-01-0.118D+00-0.264D+00 0.134D+01
 Coeff:     -0.210D-05-0.295D-05 0.267D-04 0.534D-03-0.999D-03-0.275D-02
 Coeff:      0.512D-02 0.441D-01-0.118D+00-0.264D+00 0.134D+01
 Gap=     0.305 Goal=   None    Shift=    0.000
 RMSDP=1.09D-07 MaxDP=3.02D-06 DE=-1.53D-09 OVMax= 1.13D-05

 Cycle  12  Pass 1  IDiag  1:
 E= -3107.46471720299     Delta-E=       -0.000000000195 Rises=F Damp=F
 DIIS: error= 1.28D-07 at cycle  12 NSaved=  12.
 NSaved=12 IEnMin=12 EnMin= -3107.46471720299     IErMin=12 ErrMin= 1.28D-07
 ErrMax= 1.28D-07  0.00D+00 EMaxC= 1.00D-01 BMatC= 4.76D-12 BMatP= 3.68D-11
 IDIUse=1 WtCom= 1.00D+00 WtEn= 0.00D+00
 Coeff-Com:  0.324D-06-0.186D-04-0.316D-04-0.415D-04 0.799D-03 0.103D-03
 Coeff-Com: -0.977D-02 0.332D-01 0.260D-01-0.183D+00-0.282D-01 0.116D+01
 Coeff:      0.324D-06-0.186D-04-0.316D-04-0.415D-04 0.799D-03 0.103D-03
 Coeff:     -0.977D-02 0.332D-01 0.260D-01-0.183D+00-0.282D-01 0.116D+01
 Gap=     0.305 Goal=   None    Shift=    0.000
 RMSDP=3.46D-08 MaxDP=9.26D-07 DE=-1.95D-10 OVMax= 3.57D-06

 Cycle  13  Pass 1  IDiag  1:
 E= -3107.46471720302     Delta-E=       -0.000000000022 Rises=F Damp=F
 DIIS: error= 5.37D-08 at cycle  13 NSaved=  13.
 NSaved=13 IEnMin=13 EnMin= -3107.46471720302     IErMin=13 ErrMin= 5.37D-08
 ErrMax= 5.37D-08  0.00D+00 EMaxC= 1.00D-01 BMatC= 7.51D-13 BMatP= 4.76D-12
 IDIUse=1 WtCom= 1.00D+00 WtEn= 0.00D+00
 Coeff-Com:  0.195D-06 0.666D-05 0.638D-05-0.712D-04-0.726D-04 0.220D-03
 Coeff-Com:  0.255D-02-0.153D-01 0.324D-02 0.886D-01-0.110D+00-0.511D+00
 Coeff-Com:  0.154D+01
 Coeff:      0.195D-06 0.666D-05 0.638D-05-0.712D-04-0.726D-04 0.220D-03
 Coeff:      0.255D-02-0.153D-01 0.324D-02 0.886D-01-0.110D+00-0.511D+00
 Coeff:      0.154D+01
 Gap=     0.305 Goal=   None    Shift=    0.000
 RMSDP=1.56D-08 MaxDP=3.05D-07 DE=-2.18D-11 OVMax= 1.96D-06

 Cycle  14  Pass 1  IDiag  1:
 E= -3107.46471720302     Delta-E=       -0.000000000003 Rises=F Damp=F
 DIIS: error= 2.56D-08 at cycle  14 NSaved=  14.
 NSaved=14 IEnMin=14 EnMin= -3107.46471720302     IErMin=14 ErrMin= 2.56D-08
 ErrMax= 2.56D-08  0.00D+00 EMaxC= 1.00D-01 BMatC= 1.45D-13 BMatP= 7.51D-13
 IDIUse=1 WtCom= 1.00D+00 WtEn= 0.00D+00
 Coeff-Com: -0.670D-07 0.812D-06 0.249D-05 0.196D-04-0.783D-04-0.560D-04
 Coeff-Com:  0.547D-03 0.182D-04-0.559D-02-0.203D-02 0.587D-01-0.716D-01
 Coeff-Com: -0.459D+00 0.148D+01
 Coeff:     -0.670D-07 0.812D-06 0.249D-05 0.196D-04-0.783D-04-0.560D-04
 Coeff:      0.547D-03 0.182D-04-0.559D-02-0.203D-02 0.587D-01-0.716D-01
 Coeff:     -0.459D+00 0.148D+01
 Gap=     0.305 Goal=   None    Shift=    0.000
 RMSDP=7.38D-09 MaxDP=1.64D-07 DE=-3.18D-12 OVMax= 9.38D-07

 SCF Done:  E(RHF) =  -3107.46471720     A.U. after   14 cycles
            NFock= 14  Conv=0.74D-08     -V/T= 2.0000
 KE= 3.107351793592D+03 PE=-7.819704357067D+03 EE= 1.416424796799D+03
 Leave Link  502 at Fri Nov  5 16:37:55 2021, MaxMem= 16106127360 cpu:              42.0 elap:               4.3
 (Enter /sw/contrib/gaussian/g16/B01/g16/l801.exe)
 ExpMin= 2.53D-02 ExpMax= 1.06D+07 ExpMxC= 1.21D+04 IAcc=3 IRadAn=         5 AccDes= 0.00D+00
 HarFok:  IExCor=  205 AccDes= 0.00D+00 IRadAn=         5 IDoV=-2 UseB2=F ITyADJ=14
 ICtDFT= 12500011 ScaDFX=  1.000000  1.000000  1.000000  1.000000
 Largest valence mixing into a core orbital is  4.48D-04
 Largest core mixing into a valence orbital is  1.61D-04
 Range of M.O.s used for correlation:    16   178
 NBasis=   178 NAE=    31 NBE=    31 NFC=    15 NFV=     0
 NROrb=    163 NOA=    16 NOB=    16 NVA=   147 NVB=   147

 **** Warning!!: The largest alpha MO coefficient is  0.11295733D+02

 Leave Link  801 at Fri Nov  5 16:37:55 2021, MaxMem= 16106127360 cpu:               2.2 elap:               0.1
 (Enter /sw/contrib/gaussian/g16/B01/g16/l906.exe)
 Frozen-core derivative calculation, NFC=  15 NFV=   0.
 FulOut=F Deriv=T AODrv=F NAtomX=     4
   MMem=         124  MDisk=          16 MDiskD=          16
  W3Min=     1147744 MinDsk=     1765480 NBas6D=         208
 NBas2D=       22240    NTT=       21736    LW2=     9911920
    MDV= 16105653495 MDiskM=      387107 NBas2p=       22040
 Fully in-core method, ICMem=   527338992.
 IMap=   1   2   3   4   5   6   7   8   9  10  11  12  13  14  15  16  17  18  19  20
 IMap=  21  22  23  24  25  26  27  28  29  30  31
 JobTyp=1 Pass  1 fully in-core, NPsUse= 28.
 Compute canonical integrals.
 FoFCou: FMM=F IPFlag=           0 FMFlag=           0 FMFlg1=           0
         NFxFlg=           0 DoJE=F BraDBF=F KetDBF=F FulRan=T
         wScrn=  0.000000 ICntrl=       600 IOpCl=  1 I1Cent=           0 NGrid=           0
         NMat0=    1 NMatS0=  22240 NMatT0=    0 NMatD0=    1 NMtDS0=    0 NMtDT0=    0
 Symmetry not used in FoFCou.
 Spin components of T(2) and E(2):
     alpha-alpha T2 =       0.3002190738D-01 E2=     -0.9311222208D-01
     alpha-beta  T2 =       0.1613155926D+00 E2=     -0.5130658546D+00
     beta-beta   T2 =       0.3002190738D-01 E2=     -0.9311222208D-01
 The integrals were generated   1 times.
 ANorm=    0.1105151305D+01
 E2 =    -0.6992902988D+00 EUMP2 =    -0.31081640075018D+04
 Leave Link  906 at Fri Nov  5 16:38:01 2021, MaxMem= 16106127360 cpu:             171.9 elap:               6.2
 (Enter /sw/contrib/gaussian/g16/B01/g16/l1002.exe)
 Minotr:  Closed shell wavefunction.
          Computing MP2/KS-MP2 derivatives.
          Using Z-Vector for PSCF gradient.
          Skipping F1 and S1 gradient terms here.
          Frozen-core window.
          Direct CPHF calculation.
          Differentiating once with respect to electric field.
                with respect to dipole field.
          Electric field/nuclear overlap derivatives assumed to be zero.
          Requested convergence is 1.0D-10 RMS, and 1.0D-09 maximum.
          NewPWx=F KeepS1=T KeepF1=T KeepIn=T MapXYZ=F SortEE=F KeepMc=T.
 Keep R1 ints in memory in canonical form, NReq=149458882.
 FoFCou: FMM=F IPFlag=           0 FMFlag=           0 FMFlg1=           0
         NFxFlg=           0 DoJE=F BraDBF=F KetDBF=F FulRan=T
         wScrn=  0.000000 ICntrl=       600 IOpCl=  0 I1Cent=           0 NGrid=           0
         NMat0=    1 NMatS0=  15931 NMatT0=    0 NMatD0=    1 NMtDS0=    0 NMtDT0=    0
 Symmetry not used in FoFCou.
 Two-electron integral symmetry not used.
          MDV=   16106127360 using IRadAn=       5.
          Solving linear equations separately, MaxMat=       0.
          There are     1 degrees of freedom in the 1st order CPHF.  IDoFFX=0 NUNeed=     1.
 LinEq1:  Iter=  0 NonCon=     1 RMS=2.61D-03 Max=3.73D-02 NDo=     1
 AX will form     1 AO Fock derivatives at one time.
 LinEq1:  Iter=  1 NonCon=     1 RMS=4.17D-04 Max=4.10D-03 NDo=     1
 LinEq1:  Iter=  2 NonCon=     1 RMS=2.04D-04 Max=3.44D-03 NDo=     1
 LinEq1:  Iter=  3 NonCon=     1 RMS=6.67D-05 Max=9.08D-04 NDo=     1
 LinEq1:  Iter=  4 NonCon=     1 RMS=2.71D-05 Max=7.37D-04 NDo=     1
 LinEq1:  Iter=  5 NonCon=     1 RMS=1.21D-05 Max=2.82D-04 NDo=     1
 LinEq1:  Iter=  6 NonCon=     1 RMS=3.63D-06 Max=8.52D-05 NDo=     1
 LinEq1:  Iter=  7 NonCon=     1 RMS=9.77D-07 Max=1.33D-05 NDo=     1
 LinEq1:  Iter=  8 NonCon=     1 RMS=2.88D-07 Max=3.84D-06 NDo=     1
 LinEq1:  Iter=  9 NonCon=     1 RMS=7.56D-08 Max=1.55D-06 NDo=     1
 LinEq1:  Iter= 10 NonCon=     1 RMS=1.88D-08 Max=3.75D-07 NDo=     1
 LinEq1:  Iter= 11 NonCon=     1 RMS=4.82D-09 Max=1.05D-07 NDo=     1
 LinEq1:  Iter= 12 NonCon=     1 RMS=1.09D-09 Max=1.88D-08 NDo=     1
 LinEq1:  Iter= 13 NonCon=     1 RMS=2.92D-10 Max=3.47D-09 NDo=     1
 LinEq1:  Iter= 14 NonCon=     0 RMS=7.24D-11 Max=6.38D-10 NDo=     1
 Linear equations converged to 1.000D-10 1.000D-09 after    14 iterations.
 End of Minotr F.D. properties file   721 does not exist.
 End of Minotr F.D. properties file   722 does not exist.
 End of Minotr F.D. properties file   788 does not exist.
 Leave Link 1002 at Fri Nov  5 16:38:06 2021, MaxMem= 16106127360 cpu:              40.4 elap:               4.6
 (Enter /sw/contrib/gaussian/g16/B01/g16/l601.exe)
 Copying SCF densities to generalized density rwf, IOpCl= 0 IROHF=0.

 **********************************************************************

            Population analysis using the MP2 Density.

 **********************************************************************

 Alpha  occ. eigenvalues -- -489.73719-104.74414 -64.87746 -58.23197 -58.23193
 Alpha  occ. eigenvalues --  -58.23188 -20.48541 -10.46370  -9.54996  -7.93085
 Alpha  occ. eigenvalues --   -7.92813  -7.92798  -7.15761  -7.15729  -7.15714
 Alpha  occ. eigenvalues --   -2.89933  -2.89926  -2.89903  -2.89864  -2.89862
 Alpha  occ. eigenvalues --   -1.25495  -0.91201  -0.70767  -0.56366  -0.45919
 Alpha  occ. eigenvalues --   -0.44933  -0.32334  -0.29718  -0.16224  -0.15787
 Alpha  occ. eigenvalues --   -0.15655
 Alpha virt. eigenvalues --    0.14893   0.17459   0.21685   0.22543   0.24342
 Alpha virt. eigenvalues --    0.25082   0.25173   0.27240   0.27902   0.30934
 Alpha virt. eigenvalues --    0.32151   0.33425   0.36380   0.39613   0.44052
 Alpha virt. eigenvalues --    0.45617   0.49170   0.49692   0.51125   0.53288
 Alpha virt. eigenvalues --    0.54368   0.55462   0.56259   0.58337   0.59402
 Alpha virt. eigenvalues --    0.60113   0.62999   0.64286   0.72999   0.74472
 Alpha virt. eigenvalues --    0.75396   0.77860   0.81756   0.85950   0.86990
 Alpha virt. eigenvalues --    0.87307   0.89702   0.93688   0.96496   0.99355
 Alpha virt. eigenvalues --    1.01221   1.02286   1.03287   1.03878   1.04110
 Alpha virt. eigenvalues --    1.07141   1.07297   1.08845   1.10670   1.12292
 Alpha virt. eigenvalues --    1.12400   1.17108   1.18699   1.19472   1.20533
 Alpha virt. eigenvalues --    1.21057   1.22430   1.23826   1.25934   1.31853
 Alpha virt. eigenvalues --    1.33341   1.36349   1.38973   1.43057   1.47718
 Alpha virt. eigenvalues --    1.49946   1.55057   1.58834   1.63178   1.66706
 Alpha virt. eigenvalues --    1.68463   1.69745   1.72907   1.76286   1.85363
 Alpha virt. eigenvalues --    1.96052   2.09864   2.31046   2.39394   2.40024
 Alpha virt. eigenvalues --    2.41007   2.45532   2.46820   2.48109   2.51204
 Alpha virt. eigenvalues --    2.53479   2.55041   2.56405   2.56584   2.56968
 Alpha virt. eigenvalues --    2.57150   2.59656   2.60770   2.63166   2.63405
 Alpha virt. eigenvalues --    2.65269   2.66447   2.68556   2.69435   2.70562
 Alpha virt. eigenvalues --    2.71111   2.71703   2.75285   2.78473   2.79490
 Alpha virt. eigenvalues --    2.86265   2.92145   2.95731   2.99155   3.10954
 Alpha virt. eigenvalues --    3.17954   3.20269   3.21116   3.23024   3.28625
 Alpha virt. eigenvalues --    3.33282   3.46520   3.53658   3.54542   3.91106
 Alpha virt. eigenvalues --    3.99046   4.31818   4.38658   4.45111   4.54329
 Alpha virt. eigenvalues --    4.60671   4.72816   4.91989   5.00263   5.39643
 Alpha virt. eigenvalues --    5.48273   5.69490   6.35247   6.59860   6.84777
 Alpha virt. eigenvalues --    6.89528   6.90476   6.96612   7.32752   7.37130
 Alpha virt. eigenvalues --    7.39425   7.45963   7.46983   7.69172   7.71742
 Alpha virt. eigenvalues --    8.40391  14.81717
          Condensed to atoms (all electrons):
               1          2          3          4
     1  O    8.478086  -0.109394  -0.072779   0.076297
     2  Cl  -0.109394  17.034500  -0.000269   0.001416
     3  Br  -0.072779  -0.000269  35.940371   0.061103
     4  H    0.076297   0.001416   0.061103   0.634296
 Mulliken charges:
               1
     1  O   -0.372209
     2  Cl   0.073747
     3  Br  -0.928426
     4  H    0.226888
 Sum of Mulliken charges =  -1.00000
 Mulliken charges with hydrogens summed into heavy atoms:
               1
     1  O   -0.145322
     2  Cl   0.073747
     3  Br  -0.928426
 Electronic spatial extent (au):  <R**2>=           1501.5110
 Charge=             -1.0000 electrons
 Dipole moment (field-independent basis, Debye):
    X=              2.1792    Y=             12.0380    Z=              0.6375  Tot=             12.2503
 Quadrupole moment (field-independent basis, Debye-Ang):
   XX=            -45.4035   YY=            -83.4841   ZZ=            -42.4498
   XY=             -9.3562   XZ=             -0.2797   YZ=             -0.1542
 Traceless Quadrupole moment (field-independent basis, Debye-Ang):
   XX=             11.7090   YY=            -26.3716   ZZ=             14.6626
   XY=             -9.3562   XZ=             -0.2797   YZ=             -0.1542
 Octapole moment (field-independent basis, Debye-Ang**2):
  XXX=            -14.7196  YYY=            336.6658  ZZZ=             -1.7982  XYY=             20.3718
  XXY=             77.0845  XXZ=             -1.3226  XZZ=             -7.1281  YZZ=             71.1038
  YYZ=             -3.0845  XYZ=             -0.5360
 Hexadecapole moment (field-independent basis, Debye-Ang**3):
 XXXX=           -335.6037 YYYY=          -1725.3779 ZZZZ=            -65.3614 XXXY=           -150.0537
 XXXZ=             -0.4366 YYYX=           -226.3141 YYYZ=             11.2453 ZZZX=              0.2447
 ZZZY=              2.6882 XXYY=           -305.8552 XXZZ=            -71.8370 YYZZ=           -237.6522
 XXYZ=              1.2644 YYXZ=              1.9289 ZZXY=            -48.2613
 N-N= 1.884630494725D+02 E-N=-7.818261609011D+03  KE= 3.107380118885D+03
 No NMR shielding tensors so no spin-rotation constants.
 Leave Link  601 at Fri Nov  5 16:38:06 2021, MaxMem= 16106127360 cpu:               4.4 elap:               0.2
 (Enter /sw/contrib/gaussian/g16/B01/g16/l607.exe)
 ******************************Gaussian NBO Version 3.1******************************
             N A T U R A L   A T O M I C   O R B I T A L   A N D
          N A T U R A L   B O N D   O R B I T A L   A N A L Y S I S
 ******************************Gaussian NBO Version 3.1******************************
       /RESON  / : Allow strongly delocalized NBO set

 Analyzing the MP2 density

 Job title: title                                                           

 Storage needed:     95974 in NPA,    127345 in NBO (********** available)
 GSVD:  LWork=        4314 too small for GESVD, short by       49391 words or       49391 for optimal perf.


 NATURAL POPULATIONS:  Natural atomic orbital occupancies 
                                                          
   NAO  Atom  No  lang   Type(AO)    Occupancy
 --------------------------------------------
     1    O    1  S      Cor( 1S)     1.99970
     2    O    1  S      Val( 2S)     1.79339
     3    O    1  S      Ryd( 3S)     0.00888
     4    O    1  S      Ryd( 4S)     0.00102
     5    O    1  S      Ryd( 5S)     0.00015
     6    O    1  px     Val( 2p)     1.21334
     7    O    1  px     Ryd( 3p)     0.00643
     8    O    1  px     Ryd( 4p)     0.00059
     9    O    1  px     Ryd( 5p)     0.00030
    10    O    1  py     Val( 2p)     1.80211
    11    O    1  py     Ryd( 3p)     0.01586
    12    O    1  py     Ryd( 4p)     0.00070
    13    O    1  py     Ryd( 5p)     0.00036
    14    O    1  pz     Val( 2p)     1.77601
    15    O    1  pz     Ryd( 3p)     0.01530
    16    O    1  pz     Ryd( 4p)     0.00070
    17    O    1  pz     Ryd( 5p)     0.00023
    18    O    1  dxy    Ryd( 3d)     0.00888
    19    O    1  dxy    Ryd( 4d)     0.00053
    20    O    1  dxy    Ryd( 5d)     0.00013
    21    O    1  dxz    Ryd( 3d)     0.00921
    22    O    1  dxz    Ryd( 4d)     0.00054
    23    O    1  dxz    Ryd( 5d)     0.00009
    24    O    1  dyz    Ryd( 3d)     0.01179
    25    O    1  dyz    Ryd( 4d)     0.00053
    26    O    1  dyz    Ryd( 5d)     0.00013
    27    O    1  dx2y2  Ryd( 3d)     0.01040
    28    O    1  dx2y2  Ryd( 4d)     0.00049
    29    O    1  dx2y2  Ryd( 5d)     0.00026
    30    O    1  dz2    Ryd( 3d)     0.00973
    31    O    1  dz2    Ryd( 4d)     0.00056
    32    O    1  dz2    Ryd( 5d)     0.00020
    33    O    1  f(0)   Ryd( 4f)     0.00057
    34    O    1  f(0)   Ryd( 5f)     0.00011
    35    O    1  f(C1)  Ryd( 4f)     0.00057
    36    O    1  f(C1)  Ryd( 5f)     0.00012
    37    O    1  f(S1)  Ryd( 4f)     0.00059
    38    O    1  f(S1)  Ryd( 5f)     0.00012
    39    O    1  f(C2)  Ryd( 4f)     0.00064
    40    O    1  f(C2)  Ryd( 5f)     0.00012
    41    O    1  f(S2)  Ryd( 4f)     0.00060
    42    O    1  f(S2)  Ryd( 5f)     0.00014
    43    O    1  f(C3)  Ryd( 4f)     0.00062
    44    O    1  f(C3)  Ryd( 5f)     0.00012
    45    O    1  f(S3)  Ryd( 4f)     0.00066
    46    O    1  f(S3)  Ryd( 5f)     0.00013

    47   Cl    2  S      Cor( 1S)     2.00000
    48   Cl    2  S      Cor( 2S)     1.99982
    49   Cl    2  S      Val( 3S)     1.88789
    50   Cl    2  S      Ryd( 4S)     0.00833
    51   Cl    2  S      Ryd( 5S)     0.00056
    52   Cl    2  S      Ryd( 6S)     0.00017
    53   Cl    2  px     Cor( 2p)     1.99997
    54   Cl    2  px     Val( 3p)     0.89893
    55   Cl    2  px     Ryd( 4p)     0.00667
    56   Cl    2  px     Ryd( 5p)     0.00052
    57   Cl    2  px     Ryd( 6p)     0.00020
    58   Cl    2  py     Cor( 2p)     2.00003
    59   Cl    2  py     Val( 3p)     1.95389
    60   Cl    2  py     Ryd( 4p)     0.00996
    61   Cl    2  py     Ryd( 5p)     0.00058
    62   Cl    2  py     Ryd( 6p)     0.00009
    63   Cl    2  pz     Cor( 2p)     2.00003
    64   Cl    2  pz     Val( 3p)     1.95425
    65   Cl    2  pz     Ryd( 4p)     0.01005
    66   Cl    2  pz     Ryd( 5p)     0.00059
    67   Cl    2  pz     Ryd( 6p)     0.00003
    68   Cl    2  dxy    Ryd( 3d)     0.01858
    69   Cl    2  dxy    Ryd( 4d)     0.00090
    70   Cl    2  dxy    Ryd( 5d)     0.00034
    71   Cl    2  dxz    Ryd( 3d)     0.01861
    72   Cl    2  dxz    Ryd( 4d)     0.00088
    73   Cl    2  dxz    Ryd( 5d)     0.00034
    74   Cl    2  dyz    Ryd( 3d)     0.01686
    75   Cl    2  dyz    Ryd( 4d)     0.00073
    76   Cl    2  dyz    Ryd( 5d)     0.00018
    77   Cl    2  dx2y2  Ryd( 3d)     0.01867
    78   Cl    2  dx2y2  Ryd( 4d)     0.00051
    79   Cl    2  dx2y2  Ryd( 5d)     0.00016
    80   Cl    2  dz2    Ryd( 3d)     0.01730
    81   Cl    2  dz2    Ryd( 4d)     0.00063
    82   Cl    2  dz2    Ryd( 5d)     0.00016
    83   Cl    2  f(0)   Ryd( 4f)     0.00127
    84   Cl    2  f(0)   Ryd( 5f)     0.00013
    85   Cl    2  f(C1)  Ryd( 4f)     0.00140
    86   Cl    2  f(C1)  Ryd( 5f)     0.00013
    87   Cl    2  f(S1)  Ryd( 4f)     0.00126
    88   Cl    2  f(S1)  Ryd( 5f)     0.00013
    89   Cl    2  f(C2)  Ryd( 4f)     0.00130
    90   Cl    2  f(C2)  Ryd( 5f)     0.00014
    91   Cl    2  f(S2)  Ryd( 4f)     0.00119
    92   Cl    2  f(S2)  Ryd( 5f)     0.00013
    93   Cl    2  f(C3)  Ryd( 4f)     0.00158
    94   Cl    2  f(C3)  Ryd( 5f)     0.00015
    95   Cl    2  f(S3)  Ryd( 4f)     0.00134
    96   Cl    2  f(S3)  Ryd( 5f)     0.00014

    97   Br    3  S      Cor( 1S)     2.00002
    98   Br    3  S      Cor( 2S)     2.00000
    99   Br    3  S      Cor( 3S)     2.00000
   100   Br    3  S      Val( 4S)     1.97999
   101   Br    3  S      Ryd( 5S)     0.00347
   102   Br    3  S      Ryd( 6S)     0.00058
   103   Br    3  S      Ryd( 7S)     0.00020
   104   Br    3  px     Cor( 2p)     2.00002
   105   Br    3  px     Cor( 3p)     2.00000
   106   Br    3  px     Val( 4p)     1.95256
   107   Br    3  px     Ryd( 5p)     0.01198
   108   Br    3  px     Ryd( 6p)     0.00083
   109   Br    3  px     Ryd( 7p)     0.00009
   110   Br    3  py     Cor( 2p)     2.00001
   111   Br    3  py     Cor( 3p)     2.00000
   112   Br    3  py     Val( 4p)     1.93160
   113   Br    3  py     Ryd( 5p)     0.01094
   114   Br    3  py     Ryd( 6p)     0.00081
   115   Br    3  py     Ryd( 7p)     0.00008
   116   Br    3  pz     Cor( 2p)     2.00002
   117   Br    3  pz     Cor( 3p)     2.00000
   118   Br    3  pz     Val( 4p)     1.94868
   119   Br    3  pz     Ryd( 5p)     0.01199
   120   Br    3  pz     Ryd( 6p)     0.00083
   121   Br    3  pz     Ryd( 7p)     0.00007
   122   Br    3  dxy    Cor( 3d)     1.99768
   123   Br    3  dxy    Ryd( 4d)     0.01899
   124   Br    3  dxy    Ryd( 5d)     0.00165
   125   Br    3  dxy    Ryd( 6d)     0.00023
   126   Br    3  dxz    Cor( 3d)     1.99769
   127   Br    3  dxz    Ryd( 4d)     0.01883
   128   Br    3  dxz    Ryd( 5d)     0.00179
   129   Br    3  dxz    Ryd( 6d)     0.00023
   130   Br    3  dyz    Cor( 3d)     1.99768
   131   Br    3  dyz    Ryd( 4d)     0.01926
   132   Br    3  dyz    Ryd( 5d)     0.00166
   133   Br    3  dyz    Ryd( 6d)     0.00028
   134   Br    3  dx2y2  Cor( 3d)     1.99767
   135   Br    3  dx2y2  Ryd( 4d)     0.01883
   136   Br    3  dx2y2  Ryd( 5d)     0.00168
   137   Br    3  dx2y2  Ryd( 6d)     0.00029
   138   Br    3  dz2    Cor( 3d)     1.99768
   139   Br    3  dz2    Ryd( 4d)     0.01878
   140   Br    3  dz2    Ryd( 5d)     0.00175
   141   Br    3  dz2    Ryd( 6d)     0.00023
   142   Br    3  f(0)   Ryd( 4f)     0.00176
   143   Br    3  f(0)   Ryd( 5f)     0.00026
   144   Br    3  f(C1)  Ryd( 4f)     0.00176
   145   Br    3  f(C1)  Ryd( 5f)     0.00025
   146   Br    3  f(S1)  Ryd( 4f)     0.00175
   147   Br    3  f(S1)  Ryd( 5f)     0.00026
   148   Br    3  f(C2)  Ryd( 4f)     0.00176
   149   Br    3  f(C2)  Ryd( 5f)     0.00027
   150   Br    3  f(S2)  Ryd( 4f)     0.00177
   151   Br    3  f(S2)  Ryd( 5f)     0.00026
   152   Br    3  f(C3)  Ryd( 4f)     0.00175
   153   Br    3  f(C3)  Ryd( 5f)     0.00027
   154   Br    3  f(S3)  Ryd( 4f)     0.00175
   155   Br    3  f(S3)  Ryd( 5f)     0.00027

   156    H    4  S      Val( 1S)     0.48629
   157    H    4  S      Ryd( 2S)     0.00460
   158    H    4  S      Ryd( 3S)     0.00032
   159    H    4  S      Ryd( 4S)     0.00015
   160    H    4  px     Ryd( 2p)     0.00263
   161    H    4  px     Ryd( 3p)     0.00045
   162    H    4  px     Ryd( 4p)     0.00010
   163    H    4  py     Ryd( 2p)     0.00570
   164    H    4  py     Ryd( 3p)     0.00057
   165    H    4  py     Ryd( 4p)     0.00027
   166    H    4  pz     Ryd( 2p)     0.00332
   167    H    4  pz     Ryd( 3p)     0.00057
   168    H    4  pz     Ryd( 4p)     0.00019
   169    H    4  dxy    Ryd( 3d)     0.00024
   170    H    4  dxy    Ryd( 4d)     0.00009
   171    H    4  dxz    Ryd( 3d)     0.00016
   172    H    4  dxz    Ryd( 4d)     0.00007
   173    H    4  dyz    Ryd( 3d)     0.00030
   174    H    4  dyz    Ryd( 4d)     0.00009
   175    H    4  dx2y2  Ryd( 3d)     0.00029
   176    H    4  dx2y2  Ryd( 4d)     0.00010
   177    H    4  dz2    Ryd( 3d)     0.00024
   178    H    4  dz2    Ryd( 4d)     0.00011

 WARNING:  5 low occupancy (<1.9990e) core orbitals found on Br    3


 Summary of Natural Population Analysis:                  
                                                          
                                       Natural Population 
                Natural  -----------------------------------------------
    Atom  No    Charge         Core      Valence    Rydberg      Total
 -----------------------------------------------------------------------
      O    1   -0.69364      1.99970     6.58484    0.10909     8.69364
     Cl    2    0.16231      9.99985     6.69496    0.14287    16.83769
     Br    3   -0.96183     27.98847     7.81282    0.16053    35.96183
      H    4    0.49315      0.00000     0.48629    0.02056     0.50685
 =======================================================================
   * Total *   -1.00000     39.98802    21.57892    0.43306    62.00000

                                 Natural Population      
 --------------------------------------------------------
   Core                      39.98802 ( 99.9701% of  40)
   Valence                   21.57892 ( 98.0860% of  22)
   Natural Minimal Basis     61.56694 ( 99.3015% of  62)
   Natural Rydberg Basis      0.43306 (  0.6985% of  62)
 --------------------------------------------------------

    Atom  No          Natural Electron Configuration
 ----------------------------------------------------------------------------
      O    1      [core]2S( 1.79)2p( 4.79)3S( 0.01)3p( 0.04)3d( 0.05)
     Cl    2      [core]3S( 1.89)3p( 4.81)4S( 0.01)3d( 0.09)4p( 0.03)4f( 0.01)
     Br    3      [core]4S( 1.98)4p( 5.83)4d( 0.09)5p( 0.03)4f( 0.01)5d( 0.01)
      H    4            1S( 0.49)2p( 0.01)


 NATURAL BOND ORBITAL ANALYSIS:

                       Occupancies       Lewis Structure    Low   High
           Occ.    -------------------  -----------------   occ   occ
  Cycle   Thresh.   Lewis   Non-Lewis     CR  BD  3C  LP    (L)   (NL)   Dev
 =============================================================================
   1(1)    1.90    61.51433   0.48567     20   2   0   9     0      0    0.03
 -----------------------------------------------------------------------------

 Structure accepted: No low occupancy Lewis orbitals

 WARNING:  5 low occupancy (<1.9990e) core orbitals found on Br    3

 --------------------------------------------------------
   Core                     39.98803 ( 99.970% of  40)
   Valence Lewis            21.52631 ( 97.847% of  22)
  ==================       ============================
   Total Lewis              61.51433 ( 99.217% of  62)
  -----------------------------------------------------
   Valence non-Lewis         0.10078 (  0.163% of  62)
   Rydberg non-Lewis         0.38489 (  0.621% of  62)
  ==================       ============================
   Total non-Lewis           0.48567 (  0.783% of  62)
 --------------------------------------------------------


       (Occupancy)   Bond orbital/ Coefficients/ Hybrids
 ---------------------------------------------------------------------------------
     1. (1.93898) BD ( 1) O   1 -Cl   2  
                ( 59.11%)   0.7688* O   1 s(  9.56%)p 9.40( 89.87%)d 0.06(  0.55%)
                                                  f 0.00(  0.02%)
                                            0.0003  0.3064 -0.0396 -0.0122 -0.0017
                                            0.9470 -0.0199 -0.0085 -0.0090  0.0103
                                           -0.0200 -0.0037 -0.0001  0.0209  0.0211
                                            0.0039 -0.0005 -0.0139 -0.0004  0.0021
                                            0.0219  0.0031 -0.0002 -0.0138 -0.0017
                                            0.0011  0.0590  0.0054  0.0011 -0.0328
                                           -0.0028 -0.0006 -0.0002  0.0005 -0.0063
                                           -0.0001  0.0000 -0.0006  0.0008 -0.0013
                                           -0.0069  0.0018  0.0094 -0.0005 -0.0004
                                            0.0013
                ( 40.89%)   0.6394*Cl   2 s(  8.11%)p11.17( 90.64%)d 0.14(  1.14%)
                                                  f 0.01(  0.11%)
                                           -0.0000  0.0005  0.2783 -0.0596 -0.0102
                                           -0.0027 -0.0004 -0.9496  0.0663  0.0135
                                           -0.0034 -0.0000 -0.0034 -0.0017  0.0009
                                           -0.0002  0.0000  0.0032 -0.0001 -0.0023
                                            0.0012  0.0046 -0.0008  0.0002 -0.0134
                                           -0.0018 -0.0008 -0.0052 -0.0004  0.0010
                                            0.0912 -0.0108 -0.0006 -0.0521  0.0058
                                           -0.0002 -0.0008  0.0002  0.0195 -0.0023
                                           -0.0001  0.0000  0.0007 -0.0000  0.0019
                                           -0.0016 -0.0263  0.0038 -0.0006  0.0005
     2. (1.96466) BD ( 1) O   1 - H   4  
                ( 76.83%)   0.8766* O   1 s( 24.27%)p 3.10( 75.18%)d 0.02(  0.54%)
                                                  f 0.00(  0.01%)
                                           -0.0002 -0.4925  0.0045  0.0065 -0.0018
                                            0.1651 -0.0176 -0.0025 -0.0016  0.5741
                                           -0.0112 -0.0057 -0.0006 -0.6280  0.0089
                                            0.0062  0.0036  0.0069  0.0027  0.0002
                                           -0.0065 -0.0030 -0.0005  0.0631  0.0035
                                           -0.0004  0.0257  0.0026  0.0022 -0.0244
                                           -0.0031 -0.0021  0.0060 -0.0009 -0.0001
                                            0.0010  0.0071  0.0009  0.0026  0.0020
                                           -0.0014 -0.0018  0.0005 -0.0013  0.0032
                                           -0.0017
                ( 23.17%)   0.4813* H   4 s( 99.82%)p 0.00(  0.18%)d 0.00(  0.00%)
                                           -0.9990 -0.0158 -0.0007  0.0004 -0.0104
                                           -0.0064  0.0029  0.0007 -0.0206 -0.0058
                                           -0.0264  0.0217  0.0054  0.0010  0.0016
                                           -0.0010 -0.0018  0.0022  0.0001 -0.0000
                                           -0.0015  0.0005  0.0014
     3. (1.99970) CR ( 1) O   1           s(100.00%)p 0.00(  0.00%)
                                            1.0000 -0.0004  0.0000  0.0000  0.0000
                                           -0.0002  0.0000  0.0000  0.0000  0.0001
                                            0.0000 -0.0000 -0.0000 -0.0001 -0.0000
                                            0.0000  0.0000  0.0000  0.0000  0.0000
                                           -0.0000 -0.0000 -0.0000  0.0000  0.0000
                                           -0.0000 -0.0000 -0.0000  0.0000  0.0000
                                            0.0000 -0.0000  0.0000 -0.0000  0.0000
                                           -0.0000  0.0000  0.0000  0.0000  0.0000
                                            0.0000 -0.0000 -0.0000  0.0000  0.0000
                                           -0.0000
     4. (2.00000) CR ( 1)Cl   2           s(100.00%)
                                            1.0000  0.0000  0.0000 -0.0000 -0.0000
                                           -0.0000 -0.0000 -0.0000  0.0000  0.0000
                                           -0.0000 -0.0000 -0.0000 -0.0000  0.0000
                                           -0.0000  0.0000  0.0000  0.0000 -0.0000
                                            0.0000  0.0000 -0.0000  0.0000 -0.0000
                                           -0.0000 -0.0000 -0.0000 -0.0000  0.0000
                                            0.0000 -0.0000 -0.0000 -0.0000  0.0000
                                           -0.0000 -0.0000  0.0000  0.0000 -0.0000
                                           -0.0000  0.0000  0.0000 -0.0000  0.0000
                                           -0.0000 -0.0000  0.0000 -0.0000  0.0000
     5. (1.99983) CR ( 2)Cl   2           s(100.00%)p 0.00(  0.00%)
                                            0.0000  1.0000 -0.0004  0.0000  0.0000
                                            0.0000  0.0000  0.0004 -0.0000 -0.0000
                                            0.0000  0.0000  0.0000  0.0000 -0.0000
                                            0.0000 -0.0000 -0.0000 -0.0000  0.0000
                                           -0.0000 -0.0000  0.0000  0.0000  0.0000
                                            0.0000  0.0000  0.0000  0.0000 -0.0000
                                           -0.0000  0.0000  0.0000  0.0000 -0.0000
                                            0.0000  0.0000 -0.0000 -0.0000  0.0000
                                            0.0000 -0.0000 -0.0000  0.0000 -0.0000
                                            0.0000  0.0000 -0.0000  0.0000 -0.0000
     6. (1.99997) CR ( 3)Cl   2           s(  0.00%)p 1.00(100.00%)
                                           -0.0000  0.0000  0.0001 -0.0000 -0.0000
                                           -0.0000  1.0000 -0.0004  0.0000  0.0000
                                           -0.0000 -0.0000 -0.0000 -0.0000  0.0000
                                           -0.0000  0.0000  0.0000  0.0000 -0.0000
                                            0.0000  0.0000 -0.0000 -0.0000 -0.0000
                                           -0.0000 -0.0000 -0.0000 -0.0000  0.0000
                                            0.0000 -0.0000 -0.0000 -0.0000  0.0000
                                           -0.0000 -0.0000  0.0000  0.0000 -0.0000
                                           -0.0000  0.0000  0.0000 -0.0000  0.0000
                                           -0.0000 -0.0000  0.0000 -0.0000  0.0000
     7. (2.00003) CR ( 4)Cl   2           s(  0.00%)p 1.00(100.00%)
                                           -0.0000  0.0000  0.0000  0.0000  0.0000
                                           -0.0000 -0.0000 -0.0000  0.0000  0.0000
                                           -0.0000  1.0000  0.0002  0.0000  0.0000
                                           -0.0000  0.0000 -0.0000 -0.0000  0.0000
                                           -0.0000  0.0000  0.0000  0.0000  0.0000
                                            0.0000  0.0000  0.0000  0.0000  0.0000
                                           -0.0000 -0.0000 -0.0000 -0.0000 -0.0000
                                           -0.0000  0.0000 -0.0000  0.0000  0.0000
                                           -0.0000 -0.0000  0.0000 -0.0000 -0.0000
                                            0.0000 -0.0000  0.0000  0.0000 -0.0000
     8. (2.00003) CR ( 5)Cl   2           s(  0.00%)p 1.00(100.00%)
                                            0.0000 -0.0000 -0.0000  0.0000  0.0000
                                           -0.0000  0.0000  0.0000 -0.0000  0.0000
                                           -0.0000  0.0000 -0.0000 -0.0000  0.0000
                                           -0.0000  1.0000  0.0002  0.0000  0.0000
                                           -0.0000  0.0000  0.0000  0.0000  0.0000
                                            0.0000  0.0000  0.0000  0.0000  0.0000
                                           -0.0000  0.0000  0.0000  0.0000  0.0000
                                           -0.0000 -0.0000 -0.0000 -0.0000  0.0000
                                           -0.0000  0.0000  0.0000 -0.0000  0.0000
                                            0.0000  0.0000  0.0000 -0.0000 -0.0000
     9. (2.00002) CR ( 1)Br   3           s(100.00%)
                                            1.0000 -0.0000 -0.0000 -0.0000  0.0000
                                            0.0000  0.0000 -0.0000 -0.0000  0.0000
                                           -0.0000 -0.0000  0.0000 -0.0000 -0.0000
                                            0.0001  0.0000 -0.0000 -0.0000 -0.0000
                                           -0.0000  0.0000  0.0000 -0.0000  0.0000
                                           -0.0000  0.0000 -0.0000  0.0000 -0.0000
                                            0.0000 -0.0000  0.0000 -0.0000  0.0000
                                           -0.0000  0.0000  0.0000 -0.0000  0.0000
                                            0.0000  0.0000 -0.0000  0.0000  0.0000
                                           -0.0000 -0.0000 -0.0000 -0.0000 -0.0000
                                           -0.0000 -0.0000 -0.0000  0.0000  0.0000
                                           -0.0000 -0.0000 -0.0000 -0.0000
    10. (2.00000) CR ( 2)Br   3           s(100.00%)
                                           -0.0000  1.0000 -0.0000  0.0000  0.0000
                                            0.0000 -0.0000 -0.0000 -0.0000  0.0000
                                           -0.0000 -0.0000  0.0000 -0.0000 -0.0000
                                            0.0000  0.0000 -0.0000 -0.0000 -0.0000
                                           -0.0000  0.0000  0.0000 -0.0000  0.0000
                                           -0.0000  0.0000 -0.0000  0.0000 -0.0000
                                            0.0000 -0.0000  0.0000 -0.0000  0.0000
                                           -0.0000  0.0000  0.0000 -0.0000  0.0000
                                            0.0000  0.0000 -0.0000  0.0000  0.0000
                                           -0.0000 -0.0000 -0.0000 -0.0000  0.0000
                                           -0.0000 -0.0000 -0.0000  0.0000  0.0000
                                           -0.0000 -0.0000 -0.0000 -0.0000
    11. (2.00000) CR ( 3)Br   3           s(100.00%)
                                           -0.0000 -0.0000  1.0000  0.0000  0.0000
                                            0.0000 -0.0000 -0.0000 -0.0000  0.0000
                                           -0.0000 -0.0000  0.0000 -0.0000 -0.0000
                                            0.0000  0.0000 -0.0000 -0.0000 -0.0000
                                           -0.0000  0.0000  0.0000 -0.0000  0.0000
                                           -0.0000  0.0000 -0.0000  0.0000 -0.0000
                                            0.0000 -0.0000  0.0000 -0.0000  0.0000
                                           -0.0000  0.0000  0.0000 -0.0000  0.0000
                                            0.0000  0.0000 -0.0000  0.0000  0.0000
                                           -0.0000 -0.0000 -0.0000 -0.0000  0.0000
                                           -0.0000 -0.0000 -0.0000  0.0000  0.0000
                                           -0.0000 -0.0000 -0.0000 -0.0000
    12. (2.00002) CR ( 4)Br   3           s(  0.00%)p 1.00(100.00%)
                                           -0.0000 -0.0000 -0.0000  0.0000  0.0000
                                            0.0000 -0.0000  1.0000 -0.0000 -0.0000
                                           -0.0000 -0.0000  0.0000 -0.0000 -0.0000
                                            0.0000  0.0000 -0.0000 -0.0000 -0.0000
                                           -0.0000  0.0000  0.0000 -0.0000  0.0000
                                           -0.0000 -0.0000  0.0000 -0.0000  0.0000
                                           -0.0000  0.0000 -0.0000 -0.0000  0.0000
                                           -0.0000  0.0000  0.0000 -0.0000  0.0000
                                            0.0000  0.0000 -0.0000  0.0000  0.0000
                                           -0.0000 -0.0000  0.0000  0.0000 -0.0000
                                           -0.0000 -0.0000 -0.0000 -0.0000 -0.0000
                                            0.0000  0.0000 -0.0000 -0.0000
    13. (2.00000) CR ( 5)Br   3           s(  0.00%)p 1.00(100.00%)
                                           -0.0000 -0.0000 -0.0000  0.0000  0.0000
                                            0.0000 -0.0000 -0.0000  1.0000 -0.0000
                                           -0.0000 -0.0000  0.0000 -0.0000 -0.0000
                                            0.0000  0.0000 -0.0000 -0.0000 -0.0000
                                           -0.0000  0.0000  0.0000 -0.0000  0.0000
                                           -0.0000 -0.0000  0.0000 -0.0000 -0.0000
                                           -0.0000  0.0000 -0.0000 -0.0000  0.0000
                                           -0.0000  0.0000  0.0000 -0.0000  0.0000
                                            0.0000  0.0000 -0.0000  0.0000  0.0000
                                           -0.0000 -0.0000  0.0000 -0.0000 -0.0000
                                           -0.0000 -0.0000 -0.0000 -0.0000 -0.0000
                                            0.0000  0.0000 -0.0000 -0.0000
    14. (2.00001) CR ( 6)Br   3           s(  0.00%)p 1.00(100.00%)
                                           -0.0000 -0.0000 -0.0000  0.0000  0.0000
                                            0.0000 -0.0000 -0.0000 -0.0000  0.0000
                                           -0.0000 -0.0000  0.0000  1.0000 -0.0000
                                            0.0001  0.0000 -0.0000 -0.0000 -0.0000
                                           -0.0000  0.0000  0.0000 -0.0000  0.0000
                                           -0.0000  0.0000 -0.0000  0.0000 -0.0000
                                            0.0000 -0.0000  0.0000 -0.0000  0.0000
                                           -0.0000  0.0000  0.0000 -0.0000  0.0000
                                            0.0000  0.0000 -0.0000  0.0000  0.0000
                                           -0.0000 -0.0000 -0.0000 -0.0000  0.0000
                                           -0.0000 -0.0000 -0.0000  0.0000  0.0000
                                           -0.0000 -0.0000 -0.0000 -0.0000
    15. (2.00000) CR ( 7)Br   3           s(  0.00%)p 1.00(100.00%)
                                           -0.0000 -0.0000 -0.0000  0.0000  0.0000
                                            0.0000 -0.0000 -0.0000 -0.0000  0.0000
                                            0.0000 -0.0000  0.0000 -0.0000  1.0000
                                            0.0000  0.0000 -0.0000 -0.0000 -0.0000
                                           -0.0000  0.0000  0.0000 -0.0000  0.0000
                                           -0.0000  0.0000 -0.0000  0.0000 -0.0000
                                            0.0000 -0.0000  0.0000 -0.0000  0.0000
                                           -0.0000  0.0000  0.0000 -0.0000  0.0000
                                            0.0000  0.0000 -0.0000 -0.0000  0.0000
                                           -0.0000 -0.0000  0.0000 -0.0000  0.0000
                                            0.0000 -0.0000 -0.0000  0.0000  0.0000
                                           -0.0000 -0.0000 -0.0000 -0.0000
    16. (2.00002) CR ( 8)Br   3           s(  0.00%)p 1.00(100.00%)
                                           -0.0000 -0.0000 -0.0000  0.0000  0.0000
                                           -0.0000  0.0000 -0.0000 -0.0000  0.0000
                                           -0.0000 -0.0000  0.0000 -0.0000 -0.0000
                                            0.0000 -0.0000 -0.0000 -0.0000  1.0000
                                           -0.0000 -0.0000  0.0000 -0.0000  0.0000
                                           -0.0000  0.0000 -0.0000  0.0000 -0.0000
                                            0.0000 -0.0000  0.0000 -0.0000  0.0000
                                           -0.0000  0.0000  0.0000 -0.0000  0.0000
                                            0.0000  0.0000 -0.0000  0.0000 -0.0000
                                           -0.0000 -0.0000 -0.0000 -0.0000 -0.0000
                                           -0.0000 -0.0000 -0.0000  0.0000  0.0000
                                           -0.0000 -0.0000 -0.0000 -0.0000
    17. (2.00000) CR ( 9)Br   3           s(  0.00%)p 1.00(100.00%)
                                           -0.0000 -0.0000 -0.0000  0.0000  0.0000
                                           -0.0000  0.0000 -0.0000 -0.0000  0.0000
                                           -0.0000 -0.0000  0.0000 -0.0000 -0.0000
                                            0.0000 -0.0000 -0.0000 -0.0000 -0.0000
                                            1.0000 -0.0000  0.0000 -0.0000  0.0000
                                           -0.0000  0.0000 -0.0000  0.0000 -0.0000
                                            0.0000 -0.0000  0.0000 -0.0000  0.0000
                                           -0.0000  0.0000  0.0000 -0.0000  0.0000
                                            0.0000  0.0000 -0.0000  0.0000 -0.0000
                                           -0.0000 -0.0000 -0.0000 -0.0000 -0.0000
                                           -0.0000 -0.0000 -0.0000  0.0000  0.0000
                                           -0.0000 -0.0000 -0.0000 -0.0000
    18. (1.99768) CR (10)Br   3           s(  0.00%)p 0.00(  0.00%)d 1.00(100.00%)
                                           -0.0000 -0.0000 -0.0000  0.0000  0.0000
                                            0.0000  0.0000 -0.0000 -0.0000  0.0000
                                           -0.0000 -0.0000  0.0000 -0.0000 -0.0000
                                            0.0000  0.0000 -0.0000 -0.0000 -0.0000
                                           -0.0000  0.0000  0.0000 -0.0000  0.0000
                                            1.0000  0.0000 -0.0000  0.0000 -0.0000
                                            0.0000 -0.0000  0.0000 -0.0000  0.0000
                                           -0.0000  0.0000  0.0000 -0.0000  0.0000
                                            0.0000  0.0000 -0.0000  0.0000  0.0000
                                           -0.0000 -0.0000 -0.0000 -0.0000 -0.0000
                                           -0.0000 -0.0000 -0.0000  0.0000  0.0000
                                           -0.0000 -0.0000 -0.0000 -0.0000
    19. (1.99769) CR (11)Br   3           s(  0.00%)p 0.00(  0.00%)d 1.00(100.00%)
                                           -0.0000 -0.0000 -0.0000  0.0000  0.0000
                                            0.0000  0.0000  0.0000 -0.0000  0.0000
                                           -0.0000  0.0000  0.0000 -0.0000 -0.0000
                                            0.0000  0.0000 -0.0000 -0.0000 -0.0000
                                           -0.0000  0.0000  0.0000 -0.0000  0.0000
                                           -0.0000  0.0000 -0.0000  0.0000  1.0000
                                            0.0000 -0.0000  0.0000 -0.0000  0.0000
                                           -0.0000  0.0000  0.0000 -0.0000  0.0000
                                            0.0000  0.0000 -0.0000  0.0000  0.0000
                                           -0.0000 -0.0000 -0.0000 -0.0000 -0.0000
                                           -0.0000 -0.0000 -0.0000  0.0000  0.0000
                                           -0.0000 -0.0000 -0.0000 -0.0000
    20. (1.99768) CR (12)Br   3           s(  0.00%)p 0.00(  0.00%)d 1.00(100.00%)
                                           -0.0000 -0.0000 -0.0000  0.0000  0.0000
                                            0.0000 -0.0000 -0.0000 -0.0000  0.0000
                                           -0.0000 -0.0000  0.0000 -0.0000 -0.0000
                                            0.0000  0.0000 -0.0000 -0.0000 -0.0000
                                           -0.0000  0.0000  0.0000 -0.0000  0.0000
                                           -0.0000  0.0000 -0.0000  0.0000 -0.0000
                                            0.0000 -0.0000  0.0000  1.0000  0.0000
                                           -0.0000  0.0000  0.0000 -0.0000  0.0000
                                            0.0000  0.0000 -0.0000  0.0000  0.0000
                                           -0.0000 -0.0000 -0.0000 -0.0000 -0.0000
                                           -0.0000 -0.0000 -0.0000  0.0000  0.0000
                                           -0.0000 -0.0000 -0.0000 -0.0000
    21. (1.99767) CR (13)Br   3           s(  0.00%)p 0.00(  0.00%)d 1.00(100.00%)
                                            0.0000  0.0000  0.0000 -0.0000 -0.0000
                                           -0.0000 -0.0000  0.0000  0.0000 -0.0000
                                            0.0000  0.0000 -0.0000  0.0000  0.0000
                                           -0.0000 -0.0000  0.0000  0.0000  0.0000
                                            0.0000 -0.0000 -0.0000  0.0000 -0.0000
                                            0.0000 -0.0000  0.0000 -0.0000  0.0000
                                           -0.0000  0.0000 -0.0000  0.0000 -0.0000
                                            0.0000 -0.0000  1.0000  0.0000 -0.0000
                                           -0.0000 -0.0000  0.0000 -0.0000 -0.0000
                                            0.0000  0.0000  0.0000  0.0000  0.0000
                                            0.0000  0.0000  0.0000 -0.0000 -0.0000
                                            0.0000  0.0000  0.0000  0.0000
    22. (1.99768) CR (14)Br   3           s(  0.00%)p 0.00(  0.00%)d 1.00(100.00%)
                                            0.0000  0.0000  0.0000 -0.0000 -0.0000
                                            0.0000 -0.0000  0.0000  0.0000 -0.0000
                                            0.0000  0.0000 -0.0000  0.0000  0.0000
                                           -0.0000 -0.0000  0.0000  0.0000  0.0000
                                            0.0000 -0.0000 -0.0000  0.0000 -0.0000
                                            0.0000 -0.0000  0.0000 -0.0000  0.0000
                                           -0.0000  0.0000 -0.0000  0.0000 -0.0000
                                            0.0000 -0.0000 -0.0000  0.0000 -0.0000
                                           -0.0000  1.0000  0.0000 -0.0000  0.0000
                                            0.0000  0.0000  0.0000  0.0000  0.0000
                                            0.0000  0.0000  0.0000 -0.0000 -0.0000
                                            0.0000  0.0000  0.0000  0.0000
    23. (1.96912) LP ( 1) O   1           s( 66.27%)p 0.51( 33.63%)d 0.00(  0.09%)
                                                  f 0.00(  0.00%)
                                            0.0002  0.8140  0.0105  0.0058 -0.0006
                                           -0.2576 -0.0028 -0.0041 -0.0018  0.3481
                                            0.0062  0.0042  0.0030 -0.3856 -0.0051
                                           -0.0040 -0.0014  0.0150  0.0009 -0.0025
                                           -0.0195 -0.0026  0.0012  0.0147  0.0003
                                           -0.0013  0.0043 -0.0003 -0.0027 -0.0065
                                           -0.0006  0.0011  0.0025 -0.0005 -0.0019
                                            0.0012  0.0013  0.0000 -0.0015  0.0008
                                            0.0027 -0.0010  0.0020 -0.0014  0.0029
                                           -0.0009
    24. (1.95381) LP ( 2) O   1           s(  0.02%)p99.99( 99.74%)d 9.92(  0.23%)
                                                  f 0.67(  0.02%)
                                           -0.0000 -0.0037  0.0135  0.0056 -0.0010
                                           -0.0208 -0.0026 -0.0005 -0.0017  0.7377
                                            0.0145  0.0041  0.0030  0.6724  0.0153
                                            0.0051  0.0043  0.0237  0.0036 -0.0008
                                            0.0214  0.0036 -0.0003  0.0104  0.0029
                                            0.0027  0.0109 -0.0032 -0.0062  0.0295
                                           -0.0008 -0.0065  0.0006  0.0005 -0.0005
                                           -0.0006 -0.0056  0.0003  0.0085 -0.0008
                                           -0.0003  0.0003 -0.0002 -0.0009  0.0064
                                           -0.0020
    25. (1.97465) LP ( 1)Cl   2           s( 92.14%)p 0.09(  7.83%)d 0.00(  0.02%)
                                                  f 0.00(  0.00%)
                                            0.0000  0.0003  0.9599  0.0069  0.0012
                                            0.0003  0.0000  0.2789 -0.0059 -0.0026
                                            0.0009 -0.0000 -0.0053  0.0021  0.0004
                                           -0.0005  0.0000  0.0222  0.0008  0.0001
                                            0.0002  0.0006  0.0000 -0.0002  0.0003
                                            0.0004  0.0006 -0.0009 -0.0003  0.0001
                                           -0.0111  0.0006 -0.0002  0.0081  0.0008
                                            0.0003 -0.0003  0.0001 -0.0024 -0.0002
                                           -0.0001  0.0001  0.0002 -0.0000  0.0005
                                           -0.0003  0.0030  0.0003 -0.0004  0.0002
    26. (1.95620) LP ( 2)Cl   2           s(  0.02%)p99.99( 99.92%)d 2.03(  0.05%)
                                                  f 0.37(  0.01%)
                                            0.0000  0.0000  0.0126 -0.0081 -0.0037
                                            0.0018 -0.0000  0.0045  0.0002 -0.0009
                                            0.0010  0.0001 -0.6600 -0.0086 -0.0026
                                            0.0002  0.0001 -0.7505 -0.0114 -0.0033
                                            0.0014 -0.0047 -0.0115 -0.0059 -0.0039
                                           -0.0126 -0.0067 -0.0056 -0.0051 -0.0016
                                            0.0033  0.0026  0.0019 -0.0001  0.0011
                                            0.0003  0.0029  0.0004  0.0006 -0.0004
                                            0.0017 -0.0001 -0.0061  0.0016  0.0004
                                           -0.0004  0.0008 -0.0005 -0.0058  0.0012
    27. (1.95510) LP ( 3)Cl   2           s(  0.04%)p99.99( 99.91%)d 0.95(  0.04%)
                                                  f 0.22(  0.01%)
                                            0.0000 -0.0000  0.0193  0.0044  0.0034
                                           -0.0014  0.0000 -0.0001 -0.0000 -0.0003
                                           -0.0008 -0.0001  0.7506  0.0097  0.0013
                                           -0.0001  0.0001 -0.6599 -0.0104 -0.0016
                                            0.0004 -0.0018  0.0107  0.0060  0.0031
                                           -0.0088 -0.0055 -0.0009 -0.0023 -0.0013
                                           -0.0075 -0.0048 -0.0028 -0.0031 -0.0033
                                           -0.0003  0.0038 -0.0003  0.0010 -0.0002
                                           -0.0004 -0.0009 -0.0045  0.0005 -0.0009
                                            0.0004 -0.0008 -0.0000  0.0070 -0.0012
    28. (1.98064) LP ( 1)Br   3           s( 98.86%)p 0.01(  1.14%)d 0.00(  0.00%)
                                                  f 0.00(  0.00%)
                                            0.0000  0.0000  0.0000  0.9943 -0.0001
                                           -0.0000 -0.0001 -0.0000 -0.0000 -0.0234
                                            0.0002 -0.0001 -0.0001 -0.0000 -0.0000
                                           -0.0971  0.0008 -0.0004  0.0001 -0.0000
                                           -0.0000 -0.0372  0.0007 -0.0001  0.0002
                                           -0.0000  0.0007 -0.0003  0.0001 -0.0000
                                            0.0002 -0.0001 -0.0000 -0.0000  0.0012
                                           -0.0005 -0.0000  0.0000 -0.0012  0.0004
                                            0.0000  0.0000 -0.0007  0.0002 -0.0000
                                           -0.0004 -0.0003 -0.0001 -0.0000 -0.0002
                                           -0.0001 -0.0005 -0.0004  0.0002  0.0002
                                           -0.0003 -0.0002 -0.0003 -0.0002
    29. (1.95361) LP ( 2)Br   3           s(  0.00%)p 1.00( 99.99%)d 0.00(  0.01%)
                                                  f 0.00(  0.00%)
                                           -0.0000 -0.0000 -0.0000  0.0045  0.0001
                                           -0.0004  0.0012  0.0000  0.0000  0.9789
                                           -0.0001  0.0007  0.0002 -0.0000 -0.0000
                                           -0.1294 -0.0001 -0.0001 -0.0001 -0.0000
                                           -0.0000 -0.1576  0.0002 -0.0001  0.0002
                                           -0.0000  0.0062 -0.0020  0.0006 -0.0000
                                            0.0037 -0.0018  0.0017  0.0000 -0.0011
                                            0.0001  0.0001 -0.0000  0.0018 -0.0004
                                           -0.0003  0.0000 -0.0008  0.0003 -0.0002
                                           -0.0001 -0.0001 -0.0002 -0.0001 -0.0003
                                           -0.0002  0.0006  0.0003  0.0015  0.0012
                                           -0.0014 -0.0010  0.0009  0.0007
    30. (1.95291) LP ( 3)Br   3           s(  0.00%)p 1.00( 99.99%)d 0.00(  0.00%)
                                                  f 0.00(  0.00%)
                                            0.0000  0.0000  0.0000  0.0046  0.0000
                                           -0.0015  0.0032 -0.0000 -0.0000 -0.0908
                                           -0.0002 -0.0001  0.0002  0.0000  0.0000
                                            0.4158 -0.0016 -0.0000  0.0002 -0.0000
                                           -0.0000 -0.9049  0.0010 -0.0006  0.0004
                                           -0.0000 -0.0006  0.0001 -0.0001  0.0000
                                           -0.0013  0.0003 -0.0001  0.0000 -0.0023
                                           -0.0001  0.0012  0.0000 -0.0010  0.0003
                                            0.0006  0.0000 -0.0045  0.0020 -0.0016
                                           -0.0002 -0.0003 -0.0004 -0.0003 -0.0020
                                           -0.0015  0.0000 -0.0003 -0.0004 -0.0003
                                           -0.0001 -0.0000 -0.0005 -0.0002
    31. (1.92663) LP ( 4)Br   3           s(  1.13%)p87.32( 98.83%)d 0.03(  0.03%)
                                                  f 0.00(  0.00%)
                                           -0.0001 -0.0000 -0.0000  0.1064  0.0012
                                            0.0002  0.0005 -0.0000 -0.0000  0.1811
                                           -0.0002 -0.0002  0.0007 -0.0001 -0.0000
                                            0.8948  0.0005 -0.0013 -0.0003 -0.0000
                                           -0.0000  0.3935  0.0033 -0.0004  0.0006
                                           -0.0000  0.0040 -0.0012  0.0003 -0.0000
                                            0.0029 -0.0008  0.0004 -0.0000  0.0138
                                           -0.0037  0.0018  0.0000 -0.0086  0.0017
                                            0.0005  0.0000 -0.0026  0.0006  0.0002
                                           -0.0022 -0.0015 -0.0001 -0.0002 -0.0003
                                           -0.0005 -0.0028 -0.0018  0.0013  0.0009
                                           -0.0013 -0.0010 -0.0015 -0.0007
    32. (0.01944) RY*( 1) O   1           s(  0.22%)p99.99( 97.91%)d 8.11(  1.81%)
                                                  f 0.25(  0.06%)
                                           -0.0000 -0.0009  0.0469  0.0056  0.0010
                                            0.0038 -0.0221 -0.0002 -0.0058 -0.0203
                                            0.7351 -0.0299 -0.0074 -0.0188  0.6602
                                           -0.0252 -0.0008  0.0694  0.0187  0.0044
                                            0.0612  0.0193  0.0067  0.0243  0.0072
                                            0.0054  0.0358  0.0000 -0.0059  0.0818
                                            0.0044 -0.0076 -0.0037  0.0026  0.0022
                                           -0.0004 -0.0055  0.0057  0.0105 -0.0086
                                           -0.0003  0.0008  0.0035 -0.0013  0.0128
                                           -0.0101
    33. (0.01499) RY*( 2) O   1           s( 29.05%)p 2.31( 67.16%)d 0.12(  3.47%)
                                                  f 0.01(  0.32%)
                                           -0.0000  0.0002  0.5354 -0.0621 -0.0012
                                            0.0415 -0.3871 -0.0041  0.0282 -0.0122
                                            0.4563 -0.0048 -0.0252  0.0065 -0.5565
                                            0.0081  0.0212  0.1010  0.0141  0.0035
                                           -0.1404 -0.0236 -0.0095  0.0591  0.0062
                                           -0.0069 -0.0127  0.0064  0.0049 -0.0090
                                            0.0001  0.0010  0.0116 -0.0083 -0.0239
                                            0.0110 -0.0175  0.0080 -0.0214  0.0091
                                            0.0189 -0.0101  0.0239 -0.0105  0.0140
                                           -0.0077
    34. (0.00763) RY*( 3) O   1           s( 13.20%)p 0.40(  5.22%)d 6.06( 79.93%)
                                                  f 0.13(  1.65%)
                                            0.0000  0.0130  0.3601 -0.0453  0.0092
                                           -0.0192 -0.1413  0.0037  0.0184 -0.0039
                                           -0.1248  0.0081 -0.0561 -0.0034  0.1106
                                           -0.0099  0.0184 -0.7223  0.0061 -0.0069
                                            0.4472  0.0064  0.0079  0.1855 -0.0040
                                            0.0117  0.1358  0.0112  0.0219  0.1540
                                           -0.0055  0.0010 -0.0069  0.0014  0.0170
                                           -0.0023  0.0128  0.0004  0.0539 -0.0217
                                           -0.0575  0.0232 -0.0173  0.0010 -0.0853
                                            0.0353
    35. (0.00707) RY*( 4) O   1           s(  1.29%)p 0.33(  0.43%)d74.82( 96.54%)
                                                  f 1.35(  1.74%)
                                           -0.0000  0.0065  0.1132 -0.0064 -0.0036
                                           -0.0041 -0.0208  0.0039  0.0099 -0.0133
                                           -0.0532 -0.0091 -0.0001 -0.0098 -0.0180
                                           -0.0077  0.0136  0.4417 -0.0311  0.0022
                                            0.7680 -0.0363  0.0022  0.0702 -0.0056
                                            0.0023 -0.2513  0.0120 -0.0036 -0.3308
                                            0.0188 -0.0088 -0.0784  0.0330  0.0255
                                           -0.0100  0.0142 -0.0061  0.0560 -0.0233
                                           -0.0110  0.0029 -0.0025 -0.0027  0.0670
                                           -0.0296
    36. (0.00626) RY*( 5) O   1           s(  0.08%)p44.21(  3.36%)d99.99( 95.07%)
                                                  f19.79(  1.50%)
                                           -0.0000  0.0003  0.0231 -0.0149 -0.0013
                                           -0.0095 -0.0872  0.0011  0.0188 -0.0362
[...]
   161. (0.00035) RY*( 7) H   4           s(  2.50%)p29.08( 72.59%)d 9.98( 24.91%)
                                            0.0070  0.0377 -0.0106  0.1529  0.0519
                                            0.6091  0.0673  0.0435 -0.1688  0.4607
                                           -0.1481  0.2849 -0.0450 -0.0018  0.1776
                                           -0.0551 -0.1382  0.2247 -0.1391 -0.2917
                                           -0.1072 -0.1561 -0.0679
   162. (0.00027) RY*( 8) H   4           s( 23.16%)p 1.17( 27.03%)d 2.15( 49.80%)
                                            0.0055 -0.0253  0.4691 -0.1047  0.0214
                                            0.1121 -0.0676  0.0222 -0.4535  0.0131
                                            0.0354 -0.0268 -0.2108  0.2857  0.0210
                                            0.4418 -0.1175 -0.0196 -0.1066  0.4241
                                            0.0646 -0.0529  0.0915
   163. (0.00024) RY*( 9) H   4           s(  7.42%)p 2.14( 15.92%)d10.33( 76.66%)
                                           -0.0016  0.0541 -0.1763  0.2005  0.0983
                                           -0.2407  0.0659  0.0334  0.0877  0.0728
                                           -0.0199 -0.0948  0.2525  0.6309 -0.0833
                                            0.3936  0.1044  0.3561 -0.0186 -0.2514
                                           -0.0439 -0.0398 -0.0425
   164. (0.00021) RY*(10) H   4           s( 13.30%)p 2.40( 31.93%)d 4.12( 54.77%)
                                            0.0109  0.0358  0.0054  0.3627 -0.0867
                                           -0.0587 -0.1953  0.0848 -0.3598 -0.2498
                                            0.0228  0.0156  0.2653 -0.4290 -0.0784
                                            0.0222  0.0262  0.5753  0.0516  0.1301
                                            0.0757  0.0020 -0.0053
   165. (0.00018) RY*(11) H   4           s( 18.73%)p 2.67( 50.02%)d 1.67( 31.26%)
                                           -0.0161 -0.0676  0.4165  0.0946  0.0190
                                            0.2240 -0.0179  0.1267  0.1431 -0.1401
                                           -0.0144 -0.6153 -0.1198  0.0010 -0.0785
                                           -0.1251 -0.0357  0.1068  0.0676 -0.4011
                                            0.1547 -0.0881  0.2844
   166. (0.00015) RY*(12) H   4           s(  8.20%)p 6.97( 57.12%)d 4.23( 34.69%)
                                           -0.0125 -0.0087  0.1778  0.2239 -0.0504
                                            0.0152 -0.2519 -0.0292  0.3329  0.4070
                                           -0.1132 -0.3081  0.3462 -0.1783 -0.0329
                                            0.1488  0.0158 -0.1850 -0.0896  0.3083
                                           -0.1029 -0.2547 -0.2808
   167. (0.00013) RY*(13) H   4           s( 36.67%)p 0.74( 27.17%)d 0.99( 36.16%)
                                           -0.0028 -0.0418 -0.3899  0.4614 -0.0271
                                           -0.0405 -0.1626  0.0298  0.1435 -0.0442
                                           -0.0380  0.0375 -0.4654 -0.0561 -0.0866
                                            0.1760 -0.1026 -0.1370 -0.3205  0.0756
                                            0.2265 -0.2125  0.2929
   168. (0.00011) RY*(14) H   4           s(  2.78%)p 8.38( 23.30%)d26.58( 73.92%)
                                           -0.0095 -0.0833 -0.0734  0.1241  0.0268
                                            0.0643 -0.2491  0.0347  0.0056  0.1880
                                            0.1115 -0.2364 -0.2473  0.0495 -0.0414
                                           -0.0850  0.0716  0.1240 -0.1880  0.0920
                                           -0.3768  0.7210 -0.0418
   169. (0.00010) RY*(15) H   4           s(  2.62%)p16.53( 43.34%)d20.61( 54.04%)
   170. (0.00007) RY*(16) H   4           s(  1.05%)p 5.29(  5.55%)d88.88( 93.39%)
   171. (0.00006) RY*(17) H   4           s(  1.64%)p 4.39(  7.20%)d55.64( 91.16%)
   172. (0.00007) RY*(18) H   4           s(  0.65%)p12.26(  7.93%)d99.99( 91.42%)
   173. (0.00003) RY*(19) H   4           s(  0.55%)p65.14( 35.61%)d99.99( 63.84%)
   174. (0.00004) RY*(20) H   4           s( 10.91%)p 2.38( 25.97%)d 5.79( 63.12%)
   175. (0.00004) RY*(21) H   4           s( 39.60%)p 0.21(  8.41%)d 1.31( 51.99%)
   176. (0.00004) RY*(22) H   4           s(  2.29%)p14.55( 33.31%)d28.12( 64.40%)
   177. (0.05924) BD*( 1) O   1 -Cl   2  
                ( 40.89%)   0.6394* O   1 s(  9.56%)p 9.40( 89.87%)d 0.06(  0.55%)
                                                  f 0.00(  0.02%)
                                           -0.0003 -0.3064  0.0396  0.0122  0.0017
                                           -0.9470  0.0199  0.0085  0.0090 -0.0103
                                            0.0200  0.0037  0.0001 -0.0209 -0.0211
                                           -0.0039  0.0005  0.0139  0.0004 -0.0021
                                           -0.0219 -0.0031  0.0002  0.0138  0.0017
                                           -0.0011 -0.0590 -0.0054 -0.0011  0.0328
                                            0.0028  0.0006  0.0002 -0.0005  0.0063
                                            0.0001 -0.0000  0.0006 -0.0008  0.0013
                                            0.0069 -0.0018 -0.0094  0.0005  0.0004
                                           -0.0013
                ( 59.11%)  -0.7688*Cl   2 s(  8.11%)p11.17( 90.64%)d 0.14(  1.14%)
                                                  f 0.01(  0.11%)
                                            0.0000 -0.0005 -0.2783  0.0596  0.0102
                                            0.0027  0.0004  0.9496 -0.0663 -0.0135
                                            0.0034  0.0000  0.0034  0.0017 -0.0009
                                            0.0002 -0.0000 -0.0032  0.0001  0.0023
                                           -0.0012 -0.0046  0.0008 -0.0002  0.0134
                                            0.0018  0.0008  0.0052  0.0004 -0.0010
                                           -0.0912  0.0108  0.0006  0.0521 -0.0058
                                            0.0002  0.0008 -0.0002 -0.0195  0.0023
                                            0.0001 -0.0000 -0.0007  0.0000 -0.0019
                                            0.0016  0.0263 -0.0038  0.0006 -0.0005
   178. (0.04153) BD*( 1) O   1 - H   4  
                ( 23.17%)   0.4813* O   1 s( 24.27%)p 3.10( 75.18%)d 0.02(  0.54%)
                                                  f 0.00(  0.01%)
                                            0.0002  0.4925 -0.0045 -0.0065  0.0018
                                           -0.1651  0.0176  0.0025  0.0016 -0.5741
                                            0.0112  0.0057  0.0006  0.6280 -0.0089
                                           -0.0062 -0.0036 -0.0069 -0.0027 -0.0002
                                            0.0065  0.0030  0.0005 -0.0631 -0.0035
                                            0.0004 -0.0257 -0.0026 -0.0022  0.0244
                                            0.0031  0.0021 -0.0060  0.0009  0.0001
                                           -0.0010 -0.0071 -0.0009 -0.0026 -0.0020
                                            0.0014  0.0018 -0.0005  0.0013 -0.0032
                                            0.0017
                ( 76.83%)  -0.8766* H   4 s( 99.82%)p 0.00(  0.18%)d 0.00(  0.00%)
                                            0.9990  0.0158  0.0007 -0.0004  0.0104
                                            0.0064 -0.0029 -0.0007  0.0206  0.0058
                                            0.0264 -0.0217 -0.0054 -0.0010 -0.0016
                                            0.0010  0.0018 -0.0022 -0.0001  0.0000
                                            0.0015 -0.0005 -0.0014


 NHO Directionality and "Bond Bending" (deviations from line of nuclear centers)

         [Thresholds for printing:  angular deviation  >  1.0 degree]
                                    hybrid p-character > 25.0%
                                    orbital occupancy  >  0.10e

                                Line of Centers        Hybrid 1              Hybrid 2
                                ---------------  -------------------   ------------------
                NBO               Theta   Phi    Theta   Phi    Dev    Theta   Phi    Dev
 ========================================================================================
     1. BD (   1) O   1 -Cl   2    90.0    0.0    87.2  359.1   3.0      --     --    --
     2. BD (   1) O   1 - H   4    45.0  257.5    43.3  255.6   2.2      --     --    --
    23. LP (   1) O   1             --     --    131.4  126.4   --       --     --    --
    24. LP (   2) O   1             --     --     47.5   91.9   --       --     --    --
    26. LP (   2)Cl   2             --     --    138.7  270.4   --       --     --    --
    27. LP (   3)Cl   2             --     --    131.4   90.1   --       --     --    --
    29. LP (   2)Br   3             --     --     99.0  352.5   --       --     --    --
    30. LP (   3)Br   3             --     --    154.9  102.4   --       --     --    --
    31. LP (   4)Br   3             --     --     66.5   78.5   --       --     --    --


 Natural Bond Orbitals (Summary):

           NBO                  Occupancy  
 -----------------------------------------------
 Molecular unit  1  (HOCl)
     1. BD (   1) O   1 -Cl   2          1.93898
     2. BD (   1) O   1 - H   4          1.96466
     3. CR (   1) O   1                  1.99970
     4. CR (   1)Cl   2                  2.00000
     5. CR (   2)Cl   2                  1.99983
     6. CR (   3)Cl   2                  1.99997
     7. CR (   4)Cl   2                  2.00003
     8. CR (   5)Cl   2                  2.00003
    23. LP (   1) O   1                  1.96912
    24. LP (   2) O   1                  1.95381
    25. LP (   1)Cl   2                  1.97465
    26. LP (   2)Cl   2                  1.95620
    27. LP (   3)Cl   2                  1.95510
    32. RY*(   1) O   1                  0.01944
    33. RY*(   2) O   1                  0.01499
    34. RY*(   3) O   1                  0.00763
    35. RY*(   4) O   1                  0.00707
    36. RY*(   5) O   1                  0.00626
    37. RY*(   6) O   1                  0.00611
    38. RY*(   7) O   1                  0.00568
    39. RY*(   8) O   1                  0.00272
    40. RY*(   9) O   1                  0.00243
    41. RY*(  10) O   1                  0.00076
    42. RY*(  11) O   1                  0.00070
    43. RY*(  12) O   1                  0.00064
    44. RY*(  13) O   1                  0.00057
    45. RY*(  14) O   1                  0.00051
    46. RY*(  15) O   1                  0.00050
    47. RY*(  16) O   1                  0.00049
    48. RY*(  17) O   1                  0.00048
    49. RY*(  18) O   1                  0.00047
    50. RY*(  19) O   1                  0.00044
    51. RY*(  20) O   1                  0.00045
    52. RY*(  21) O   1                  0.00043
    53. RY*(  22) O   1                  0.00041
    54. RY*(  23) O   1                  0.00034
    55. RY*(  24) O   1                  0.00030
    56. RY*(  25) O   1                  0.00024
    57. RY*(  26) O   1                  0.00019
    58. RY*(  27) O   1                  0.00015
    59. RY*(  28) O   1                  0.00012
    60. RY*(  29) O   1                  0.00012
    61. RY*(  30) O   1                  0.00012
    62. RY*(  31) O   1                  0.00010
    63. RY*(  32) O   1                  0.00009
    64. RY*(  33) O   1                  0.00007
    65. RY*(  34) O   1                  0.00008
    66. RY*(  35) O   1                  0.00008
    67. RY*(  36) O   1                  0.00007
    68. RY*(  37) O   1                  0.00006
    69. RY*(  38) O   1                  0.00004
    70. RY*(  39) O   1                  0.00005
    71. RY*(  40) O   1                  0.00004
    72. RY*(  41) O   1                  0.00002
    73. RY*(   1)Cl   2                  0.02193
    74. RY*(   2)Cl   2                  0.01739
    75. RY*(   3)Cl   2                  0.01682
    76. RY*(   4)Cl   2                  0.01626
    77. RY*(   5)Cl   2                  0.01169
    78. RY*(   6)Cl   2                  0.00915
    79. RY*(   7)Cl   2                  0.00895
    80. RY*(   8)Cl   2                  0.00626
    81. RY*(   9)Cl   2                  0.00177
    82. RY*(  10)Cl   2                  0.00126
    83. RY*(  11)Cl   2                  0.00126
    84. RY*(  12)Cl   2                  0.00119
    85. RY*(  13)Cl   2                  0.00119
    86. RY*(  14)Cl   2                  0.00116
    87. RY*(  15)Cl   2                  0.00109
    88. RY*(  16)Cl   2                  0.00094
    89. RY*(  17)Cl   2                  0.00076
    90. RY*(  18)Cl   2                  0.00074
    91. RY*(  19)Cl   2                  0.00061
    92. RY*(  20)Cl   2                  0.00054
    93. RY*(  21)Cl   2                  0.00041
    94. RY*(  22)Cl   2                  0.00038
    95. RY*(  23)Cl   2                  0.00032
    96. RY*(  24)Cl   2                  0.00031
    97. RY*(  25)Cl   2                  0.00019
    98. RY*(  26)Cl   2                  0.00015
    99. RY*(  27)Cl   2                  0.00015
   100. RY*(  28)Cl   2                  0.00012
   101. RY*(  29)Cl   2                  0.00013
   102. RY*(  30)Cl   2                  0.00011
   103. RY*(  31)Cl   2                  0.00012
   104. RY*(  32)Cl   2                  0.00010
   105. RY*(  33)Cl   2                  0.00009
   106. RY*(  34)Cl   2                  0.00010
   107. RY*(  35)Cl   2                  0.00009
   108. RY*(  36)Cl   2                  0.00010
   109. RY*(  37)Cl   2                  0.00006
   110. RY*(  38)Cl   2                  0.00007
   111. RY*(  39)Cl   2                  0.00003
   112. RY*(  40)Cl   2                  0.00003
   113. RY*(  41)Cl   2                  0.00001
   155. RY*(   1) H   4                  0.00717
   156. RY*(   2) H   4                  0.00446
   157. RY*(   3) H   4                  0.00271
   158. RY*(   4) H   4                  0.00236
   159. RY*(   5) H   4                  0.00059
   160. RY*(   6) H   4                  0.00045
   161. RY*(   7) H   4                  0.00035
   162. RY*(   8) H   4                  0.00027
   163. RY*(   9) H   4                  0.00024
   164. RY*(  10) H   4                  0.00021
   165. RY*(  11) H   4                  0.00018
   166. RY*(  12) H   4                  0.00015
   167. RY*(  13) H   4                  0.00013
   168. RY*(  14) H   4                  0.00011
   169. RY*(  15) H   4                  0.00010
   170. RY*(  16) H   4                  0.00007
   171. RY*(  17) H   4                  0.00006
   172. RY*(  18) H   4                  0.00007
   173. RY*(  19) H   4                  0.00003
   174. RY*(  20) H   4                  0.00004
   175. RY*(  21) H   4                  0.00004
   176. RY*(  22) H   4                  0.00004
   177. BD*(   1) O   1 -Cl   2          0.05924
   178. BD*(   1) O   1 - H   4          0.04153
       -------------------------------
              Total Lewis   25.71206  ( 98.7476%)
        Valence non-Lewis    0.10078  (  0.3870%)
        Rydberg non-Lewis    0.22533  (  0.8654%)
       -------------------------------
            Total unit  1   26.03817  (100.0000%)
           Charge unit  1   -0.03817

 Molecular unit  2  (Br)
     9. CR (   1)Br   3                  2.00002
    10. CR (   2)Br   3                  2.00000
    11. CR (   3)Br   3                  2.00000
    12. CR (   4)Br   3                  2.00002
    13. CR (   5)Br   3                  2.00000
    14. CR (   6)Br   3                  2.00001
    15. CR (   7)Br   3                  2.00000
    16. CR (   8)Br   3                  2.00002
    17. CR (   9)Br   3                  2.00000
    18. CR (  10)Br   3                  1.99768
    19. CR (  11)Br   3                  1.99769
    20. CR (  12)Br   3                  1.99768
    21. CR (  13)Br   3                  1.99767
    22. CR (  14)Br   3                  1.99768
    28. LP (   1)Br   3                  1.98064
    29. LP (   2)Br   3                  1.95361
    30. LP (   3)Br   3                  1.95291
    31. LP (   4)Br   3                  1.92663
   114. RY*(   1)Br   3                  0.01899
   115. RY*(   2)Br   3                  0.01894
   116. RY*(   3)Br   3                  0.01877
   117. RY*(   4)Br   3                  0.01877
   118. RY*(   5)Br   3                  0.01864
   119. RY*(   6)Br   3                  0.01203
   120. RY*(   7)Br   3                  0.01201
   121. RY*(   8)Br   3                  0.01082
   122. RY*(   9)Br   3                  0.00381
   123. RY*(  10)Br   3                  0.00181
   124. RY*(  11)Br   3                  0.00182
   125. RY*(  12)Br   3                  0.00177
   126. RY*(  13)Br   3                  0.00177
   127. RY*(  14)Br   3                  0.00177
   128. RY*(  15)Br   3                  0.00177
   129. RY*(  16)Br   3                  0.00177
   130. RY*(  17)Br   3                  0.00176
   131. RY*(  18)Br   3                  0.00176
   132. RY*(  19)Br   3                  0.00161
   133. RY*(  20)Br   3                  0.00157
   134. RY*(  21)Br   3                  0.00147
   135. RY*(  22)Br   3                  0.00082
   136. RY*(  23)Br   3                  0.00083
   137. RY*(  24)Br   3                  0.00079
   138. RY*(  25)Br   3                  0.00052
   139. RY*(  26)Br   3                  0.00030
   140. RY*(  27)Br   3                  0.00026
   141. RY*(  28)Br   3                  0.00027
   142. RY*(  29)Br   3                  0.00025
   143. RY*(  30)Br   3                  0.00024
   144. RY*(  31)Br   3                  0.00024
   145. RY*(  32)Br   3                  0.00025
   146. RY*(  33)Br   3                  0.00025
   147. RY*(  34)Br   3                  0.00023
   148. RY*(  35)Br   3                  0.00021
   149. RY*(  36)Br   3                  0.00020
   150. RY*(  37)Br   3                  0.00018
   151. RY*(  38)Br   3                  0.00012
   152. RY*(  39)Br   3                  0.00007
   153. RY*(  40)Br   3                  0.00007
   154. RY*(  41)Br   3                  0.00005
       -------------------------------
              Total Lewis   35.80227  ( 99.5563%)
        Valence non-Lewis    0.00000  (  0.0000%)
        Rydberg non-Lewis    0.15956  (  0.4437%)
       -------------------------------
            Total unit  2   35.96183  (100.0000%)
           Charge unit  2   -0.96183
 Leave Link  607 at Fri Nov  5 16:38:09 2021, MaxMem= 16106127360 cpu:              70.1 elap:               2.5
 (Enter /sw/contrib/gaussian/g16/B01/g16/l9999.exe)
 1\1\GINC-N2219\SP\RMP2-FC\Aug-CC-pVTZ\Br1Cl1H1O1(1-)\CGAVINH\05-Nov-20
 21\0\\#p pop=NBO SP NoSymm mp2/aug-cc-pvtz density=current\\title\\-1,
 1\O\X,1,10.\Cl,1,1.69745154,2,90.\Br,1,3.09318778,2,90.,3,102.48429983
 ,0\H,1,0.96862334,2,45.,3,102.48429983,0\\Version=ES64L-G16RevB.01\HF=
 -3107.4647172\MP2=-3108.1640075\RMSD=7.379e-09\Dipole=1.021735,1.44086
 71,0.2720142\Quadrupole=8.7053481,-19.6066514,10.9013033,-6.9560779,-0
 .2079789,-0.1146361\PG=C01 [X(Br1Cl1H1O1)]\\@


 ONLY A FOOL KNOWS EVERYTHING.

               -- THE CHEMIST ANALYST, SEPTEMBER 1946
 Job cpu time:       0 days  0 hours  5 minutes 52.3 seconds.
 Elapsed time:       0 days  0 hours  0 minutes 18.9 seconds.
 File lengths (MBytes):  RWF=     15 Int=      0 D2E=      0 Chk=      8 Scr=      1
 Normal termination of Gaussian 16 at Fri Nov  5 16:38:09 2021.
