 Entering Gaussian System, Link 0=g16
 Input=brhocl_oop_20_sp.gjf
 Output=brhocl_oop_20_sp.log
 Initial command:
 /sw/contrib/gaussian/g16/B01/g16/l1.exe "/scr/Gau-17275.inp" -scrdir="/scr/"
 Entering Link 1 = /sw/contrib/gaussian/g16/B01/g16/l1.exe PID=     17276.
  
 Copyright (c) 1988-2017, Gaussian, Inc.  All Rights Reserved.
  
 This is part of the Gaussian(R) 16 program.  It is based on
 the Gaussian(R) 09 system (copyright 2009, Gaussian, Inc.),
 the Gaussian(R) 03 system (copyright 2003, Gaussian, Inc.),
 the Gaussian(R) 98 system (copyright 1998, Gaussian, Inc.),
 the Gaussian(R) 94 system (copyright 1995, Gaussian, Inc.),
 the Gaussian 92(TM) system (copyright 1992, Gaussian, Inc.),
 the Gaussian 90(TM) system (copyright 1990, Gaussian, Inc.),
 the Gaussian 88(TM) system (copyright 1988, Gaussian, Inc.),
 the Gaussian 86(TM) system (copyright 1986, Carnegie Mellon
 University), and the Gaussian 82(TM) system (copyright 1983,
 Carnegie Mellon University). Gaussian is a federally registered
 trademark of Gaussian, Inc.
  
 This software contains proprietary and confidential information,
 including trade secrets, belonging to Gaussian, Inc.
  
 This software is provided under written license and may be
 used, copied, transmitted, or stored only in accord with that
 written license.
  
 The following legend is applicable only to US Government
 contracts under FAR:
  
                    RESTRICTED RIGHTS LEGEND
  
 Use, reproduction and disclosure by the US Government is
 subject to restrictions as set forth in subparagraphs (a)
 and (c) of the Commercial Computer Software - Restricted
 Rights clause in FAR 52.227-19.
  
 Gaussian, Inc.
 340 Quinnipiac St., Bldg. 40, Wallingford CT 06492
  
  
 ---------------------------------------------------------------
 Warning -- This program may not be used in any manner that
 competes with the business of Gaussian, Inc. or will provide
 assistance to any competitor of Gaussian, Inc.  The licensee
 of this program is prohibited from giving any competitor of
 Gaussian, Inc. access to this program.  By using this program,
 the user acknowledges that Gaussian, Inc. is engaged in the
 business of creating and licensing software in the field of
 computational chemistry and represents and warrants to the
 licensee that it is not a competitor of Gaussian, Inc. and that
 it will not use this program in any manner prohibited above.
 ---------------------------------------------------------------
  

 Cite this work as:
 Gaussian 16, Revision B.01,
 M. J. Frisch, G. W. Trucks, H. B. Schlegel, G. E. Scuseria, 
 M. A. Robb, J. R. Cheeseman, G. Scalmani, V. Barone, 
 G. A. Petersson, H. Nakatsuji, X. Li, M. Caricato, A. V. Marenich, 
 J. Bloino, B. G. Janesko, R. Gomperts, B. Mennucci, H. P. Hratchian, 
 J. V. Ortiz, A. F. Izmaylov, J. L. Sonnenberg, D. Williams-Young, 
 F. Ding, F. Lipparini, F. Egidi, J. Goings, B. Peng, A. Petrone, 
 T. Henderson, D. Ranasinghe, V. G. Zakrzewski, J. Gao, N. Rega, 
 G. Zheng, W. Liang, M. Hada, M. Ehara, K. Toyota, R. Fukuda, 
 J. Hasegawa, M. Ishida, T. Nakajima, Y. Honda, O. Kitao, H. Nakai, 
 T. Vreven, K. Throssell, J. A. Montgomery, Jr., J. E. Peralta, 
 F. Ogliaro, M. J. Bearpark, J. J. Heyd, E. N. Brothers, K. N. Kudin, 
 V. N. Staroverov, T. A. Keith, R. Kobayashi, J. Normand, 
 K. Raghavachari, A. P. Rendell, J. C. Burant, S. S. Iyengar, 
 J. Tomasi, M. Cossi, J. M. Millam, M. Klene, C. Adamo, R. Cammi, 
 J. W. Ochterski, R. L. Martin, K. Morokuma, O. Farkas, 
 J. B. Foresman, and D. J. Fox, Gaussian, Inc., Wallingford CT, 2016.
 
 ******************************************
 Gaussian 16:  ES64L-G16RevB.01 20-Dec-2017
                 5-Nov-2021 
 ******************************************
 %nproc=28
 Will use up to   28 processors via shared memory.
 %mem=120GB
 %chk=/gscratch/ilahie/mccoygrp/coire_hocl/oop_s_rOH_f/brhocl/brhocl_oop_0_sp.chk
 ----------------------------------------------------
 #p pop=NBO SP NoSymm mp2/aug-cc-pvtz density=current
 ----------------------------------------------------
 1/30=1,38=1,172=1/1;
 2/12=2,15=1,17=6,18=5,40=1/2;
 3/5=16,6=1,7=10,11=9,25=1,30=1,71=1/1,2,3;
 4//1;
 5/5=2,38=5/2;
 8/6=4,10=1/1;
 9/15=1,16=-3/6;
 10/5=1,13=10,31=1/2;
 6/7=2,8=2,9=2,10=2,22=-1,40=1/1,7;
 99/5=1,9=1/99;
 Leave Link    1 at Fri Nov  5 16:36:12 2021, MaxMem= 16106127360 cpu:               0.8 elap:               0.0
 (Enter /sw/contrib/gaussian/g16/B01/g16/l101.exe)
 -----
 title
 -----
 Symbolic Z-matrix:
 Charge = -1 Multiplicity = 1
 O
 X                    1     10. 
 Cl                   1    r1       2     90. 
 Br                   1    r2       2     90.      3    a1       0
 H                    1    r3       2    oop      3    a1       0
       Variables:
  r1                    1.6972                   
  r2                    3.09319                  
  r3                    0.96862                  
  a1                  102.4843                   
  OOP                  70.                       
 
 ITRead=  0  0  0  0
 MicOpt= -1 -1 -1 -1
 NAtoms=      4 NQM=        4 NQMF=       0 NMMI=      0 NMMIF=      0
                NMic=       0 NMicF=      0.
                    Isotopes and Nuclear Properties:
 (Nuclear quadrupole moments (NQMom) in fm**2, nuclear magnetic moments (NMagM)
  in nuclear magnetons)

  Atom         1           2           3           4
 IAtWgt=          16          35          79           1
 AtmWgt=  15.9949146  34.9688527  78.9183361   1.0078250
 NucSpn=           0           3           3           1
 AtZEff=  -0.0000000  -0.0000000  -0.0000000  -0.0000000
 NQMom=    0.0000000  -8.1650000  31.3000000   0.0000000
 NMagM=    0.0000000   0.8218740   2.1063990   2.7928460
 AtZNuc=   8.0000000  17.0000000  35.0000000   1.0000000
 Leave Link  101 at Fri Nov  5 16:36:12 2021, MaxMem= 16106127360 cpu:               2.3 elap:               0.1
 (Enter /sw/contrib/gaussian/g16/B01/g16/l202.exe)
                          Input orientation:                          
 ---------------------------------------------------------------------
 Center     Atomic      Atomic             Coordinates (Angstroms)
 Number     Number       Type             X           Y           Z
 ---------------------------------------------------------------------
      1          8           0        0.000000    0.000000    0.000000
      2         17           0        1.697202    0.000000    0.000000
      3         35           0       -0.668661   -3.020050    0.000000
      4          1           0       -0.196762   -0.888687    0.331289
 ---------------------------------------------------------------------
                    Distance matrix (angstroms):
                    1          2          3          4
     1  O    0.000000
     2  Cl   1.697202   0.000000
     3  Br   3.093188   3.836406   0.000000
     4  H    0.968623   2.118163   2.207975   0.000000
 Symmetry turned off by external request.
 Stoichiometry    BrClHO(1-)
 Framework group  C1[X(BrClHO)]
 Deg. of freedom     6
 Full point group                 C1      NOp   1
 Rotational constants (GHZ):          21.7724093           1.2759648           1.2059432
 Leave Link  202 at Fri Nov  5 16:36:12 2021, MaxMem= 16106127360 cpu:               0.6 elap:               0.0
 (Enter /sw/contrib/gaussian/g16/B01/g16/l301.exe)
 Standard basis: Aug-CC-pVTZ (5D, 7F)
 Ernie: Thresh=  0.10000D-02 Tol=  0.10000D-05 Strict=F.
 Ernie:  48 primitive shells out of 228 were deleted.
   178 basis functions,   430 primitive gaussians,   208 cartesian basis functions
    31 alpha electrons       31 beta electrons
       nuclear repulsion energy       189.3835803006 Hartrees.
 IExCor=    0 DFT=F Ex=HF Corr=None ExCW=0 ScaHFX=  1.000000
 ScaDFX=  1.000000  1.000000  1.000000  1.000000 ScalE2=  1.000000  1.000000
 IRadAn=      5 IRanWt=     -1 IRanGd=            0 ICorTp=0 IEmpDi=  4
 NAtoms=    4 NActive=    4 NUniq=    4 SFac= 1.00D+00 NAtFMM=   60 NAOKFM=F Big=F
 Integral buffers will be    131072 words long.
 Raffenetti 1 integral format.
 Two-electron integral symmetry is turned off.
 Leave Link  301 at Fri Nov  5 16:36:12 2021, MaxMem= 16106127360 cpu:               1.8 elap:               0.1
 (Enter /sw/contrib/gaussian/g16/B01/g16/l302.exe)
 NPDir=0 NMtPBC=     1 NCelOv=     1 NCel=       1 NClECP=     1 NCelD=      1
         NCelK=      1 NCelE2=     1 NClLst=     1 CellRange=     0.0.
 One-electron integrals computed using PRISM.
 NBasis=   178 RedAO= T EigKep=  2.52D-04  NBF=   178
 NBsUse=   178 1.00D-06 EigRej= -1.00D+00 NBFU=   178
 Leave Link  302 at Fri Nov  5 16:36:13 2021, MaxMem= 16106127360 cpu:               5.2 elap:               0.2
 (Enter /sw/contrib/gaussian/g16/B01/g16/l303.exe)
 DipDrv:  MaxL=1.
 Leave Link  303 at Fri Nov  5 16:36:13 2021, MaxMem= 16106127360 cpu:               0.9 elap:               0.1
 (Enter /sw/contrib/gaussian/g16/B01/g16/l401.exe)
 ExpMin= 2.53D-02 ExpMax= 1.06D+07 ExpMxC= 1.21D+04 IAcc=3 IRadAn=         5 AccDes= 0.00D+00
 Harris functional with IExCor=  205 and IRadAn=       5 diagonalized for initial guess.
 HarFok:  IExCor=  205 AccDes= 0.00D+00 IRadAn=         5 IDoV= 1 UseB2=F ITyADJ=14
 ICtDFT=  3500011 ScaDFX=  1.000000  1.000000  1.000000  1.000000
 FoFCou: FMM=F IPFlag=           0 FMFlag=      100000 FMFlg1=           0
         NFxFlg=           0 DoJE=T BraDBF=F KetDBF=T FulRan=T
         wScrn=  0.000000 ICntrl=       500 IOpCl=  0 I1Cent=   200000004 NGrid=           0
         NMat0=    1 NMatS0=      1 NMatT0=    0 NMatD0=    1 NMtDS0=    0 NMtDT0=    0
 Symmetry not used in FoFCou.
 Harris En= -3106.39161888887    
 JPrj=0 DoOrth=F DoCkMO=F.
 Leave Link  401 at Fri Nov  5 16:36:13 2021, MaxMem= 16106127360 cpu:               8.2 elap:               0.3
 (Enter /sw/contrib/gaussian/g16/B01/g16/l502.exe)
 Keep R1 ints in memory in canonical form, NReq=149454778.
 FoFCou: FMM=F IPFlag=           0 FMFlag=           0 FMFlg1=           0
         NFxFlg=           0 DoJE=F BraDBF=F KetDBF=F FulRan=T
         wScrn=  0.000000 ICntrl=       600 IOpCl=  0 I1Cent=           0 NGrid=           0
         NMat0=    1 NMatS0=  15931 NMatT0=    0 NMatD0=    1 NMtDS0=    0 NMtDT0=    0
 Symmetry not used in FoFCou.
 Two-electron integral symmetry not used.
 Closed shell SCF:
 Using DIIS extrapolation, IDIIS=  1040.
 NGot= 16106127360 LenX= 15979127348 LenY= 15979083643
 Requested convergence on RMS density matrix=1.00D-08 within 128 cycles.
 Requested convergence on MAX density matrix=1.00D-06.
 Requested convergence on             energy=1.00D-06.
 No special actions if energy rises.

 Cycle   1  Pass 1  IDiag  1:
 E= -3107.30841566005    
 DIIS: error= 6.02D-02 at cycle   1 NSaved=   1.
 NSaved= 1 IEnMin= 1 EnMin= -3107.30841566005     IErMin= 1 ErrMin= 6.02D-02
 ErrMax= 6.02D-02  0.00D+00 EMaxC= 1.00D-01 BMatC= 6.29D-01 BMatP= 6.29D-01
 IDIUse=3 WtCom= 3.98D-01 WtEn= 6.02D-01
 Coeff-Com:  0.100D+01
 Coeff-En:   0.100D+01
 Coeff:      0.100D+01
 Gap=     0.559 Goal=   None    Shift=    0.000
 GapD=    0.559 DampG=2.000 DampE=0.500 DampFc=1.0000 IDamp=-1.
 RMSDP=2.86D-03 MaxDP=9.44D-02              OVMax= 1.21D-01

 Cycle   2  Pass 1  IDiag  1:
 E= -3107.44655454269     Delta-E=       -0.138138882637 Rises=F Damp=F
 DIIS: error= 1.03D-02 at cycle   2 NSaved=   2.
 NSaved= 2 IEnMin= 2 EnMin= -3107.44655454269     IErMin= 2 ErrMin= 1.03D-02
 ErrMax= 1.03D-02  0.00D+00 EMaxC= 1.00D-01 BMatC= 4.50D-02 BMatP= 6.29D-01
 IDIUse=3 WtCom= 8.97D-01 WtEn= 1.03D-01
 Coeff-Com:  0.139D+00 0.861D+00
 Coeff-En:   0.000D+00 0.100D+01
 Coeff:      0.125D+00 0.875D+00
 Gap=     0.325 Goal=   None    Shift=    0.000
 RMSDP=1.04D-03 MaxDP=3.91D-02 DE=-1.38D-01 OVMax= 7.54D-02

 Cycle   3  Pass 1  IDiag  1:
 E= -3107.46674003814     Delta-E=       -0.020185495449 Rises=F Damp=F
 DIIS: error= 5.21D-03 at cycle   3 NSaved=   3.
 NSaved= 3 IEnMin= 3 EnMin= -3107.46674003814     IErMin= 3 ErrMin= 5.21D-03
 ErrMax= 5.21D-03  0.00D+00 EMaxC= 1.00D-01 BMatC= 1.33D-02 BMatP= 4.50D-02
 IDIUse=3 WtCom= 9.48D-01 WtEn= 5.21D-02
 Coeff-Com:  0.680D-02 0.349D+00 0.644D+00
 Coeff-En:   0.000D+00 0.152D+00 0.848D+00
 Coeff:      0.644D-02 0.339D+00 0.655D+00
 Gap=     0.324 Goal=   None    Shift=    0.000
 RMSDP=3.36D-04 MaxDP=1.38D-02 DE=-2.02D-02 OVMax= 3.55D-02

 Cycle   4  Pass 1  IDiag  1:
 E= -3107.47587083357     Delta-E=       -0.009130795432 Rises=F Damp=F
 DIIS: error= 7.52D-04 at cycle   4 NSaved=   4.
 NSaved= 4 IEnMin= 4 EnMin= -3107.47587083357     IErMin= 4 ErrMin= 7.52D-04
 ErrMax= 7.52D-04  0.00D+00 EMaxC= 1.00D-01 BMatC= 1.42D-04 BMatP= 1.33D-02
 IDIUse=3 WtCom= 9.92D-01 WtEn= 7.52D-03
 Coeff-Com: -0.508D-02-0.312D-01 0.312D-01 0.101D+01
 Coeff-En:   0.000D+00 0.000D+00 0.000D+00 0.100D+01
 Coeff:     -0.504D-02-0.310D-01 0.309D-01 0.101D+01
 Gap=     0.322 Goal=   None    Shift=    0.000
 RMSDP=5.96D-05 MaxDP=1.33D-03 DE=-9.13D-03 OVMax= 3.91D-03

 Cycle   5  Pass 1  IDiag  1:
 E= -3107.47605262624     Delta-E=       -0.000181792674 Rises=F Damp=F
 DIIS: error= 1.76D-04 at cycle   5 NSaved=   5.
 NSaved= 5 IEnMin= 5 EnMin= -3107.47605262624     IErMin= 5 ErrMin= 1.76D-04
 ErrMax= 1.76D-04  0.00D+00 EMaxC= 1.00D-01 BMatC= 1.22D-05 BMatP= 1.42D-04
 IDIUse=3 WtCom= 9.98D-01 WtEn= 1.76D-03
 Coeff-Com:  0.797D-03-0.156D-01-0.344D-01-0.188D+00 0.124D+01
 Coeff-En:   0.000D+00 0.000D+00 0.000D+00 0.000D+00 0.100D+01
 Coeff:      0.795D-03-0.156D-01-0.343D-01-0.188D+00 0.124D+01
 Gap=     0.323 Goal=   None    Shift=    0.000
 RMSDP=3.10D-05 MaxDP=1.07D-03 DE=-1.82D-04 OVMax= 2.90D-03

 Cycle   6  Pass 1  IDiag  1:
 E= -3107.47608673880     Delta-E=       -0.000034112562 Rises=F Damp=F
 DIIS: error= 9.51D-05 at cycle   6 NSaved=   6.
 NSaved= 6 IEnMin= 6 EnMin= -3107.47608673880     IErMin= 6 ErrMin= 9.51D-05
 ErrMax= 9.51D-05  0.00D+00 EMaxC= 1.00D-01 BMatC= 1.71D-06 BMatP= 1.22D-05
 IDIUse=1 WtCom= 1.00D+00 WtEn= 0.00D+00
 Coeff-Com:  0.504D-03 0.359D-02-0.353D-03-0.125D+00-0.397D-01 0.116D+01
 Coeff:      0.504D-03 0.359D-02-0.353D-03-0.125D+00-0.397D-01 0.116D+01
 Gap=     0.323 Goal=   None    Shift=    0.000
 RMSDP=1.30D-05 MaxDP=5.29D-04 DE=-3.41D-05 OVMax= 1.43D-03

 Cycle   7  Pass 1  IDiag  1:
 E= -3107.47609249477     Delta-E=       -0.000005755967 Rises=F Damp=F
 DIIS: error= 3.32D-05 at cycle   7 NSaved=   7.
 NSaved= 7 IEnMin= 7 EnMin= -3107.47609249477     IErMin= 7 ErrMin= 3.32D-05
 ErrMax= 3.32D-05  0.00D+00 EMaxC= 1.00D-01 BMatC= 1.85D-07 BMatP= 1.71D-06
 IDIUse=1 WtCom= 1.00D+00 WtEn= 0.00D+00
 Coeff-Com: -0.237D-03 0.108D-02 0.593D-02 0.541D-01-0.163D+00-0.245D+00
 Coeff-Com:  0.135D+01
 Coeff:     -0.237D-03 0.108D-02 0.593D-02 0.541D-01-0.163D+00-0.245D+00
 Coeff:      0.135D+01
 Gap=     0.323 Goal=   None    Shift=    0.000
 RMSDP=5.41D-06 MaxDP=1.91D-04 DE=-5.76D-06 OVMax= 5.57D-04

 Cycle   8  Pass 1  IDiag  1:
 E= -3107.47609320693     Delta-E=       -0.000000712163 Rises=F Damp=F
 DIIS: error= 6.01D-06 at cycle   8 NSaved=   8.
 NSaved= 8 IEnMin= 8 EnMin= -3107.47609320693     IErMin= 8 ErrMin= 6.01D-06
 ErrMax= 6.01D-06  0.00D+00 EMaxC= 1.00D-01 BMatC= 9.94D-09 BMatP= 1.85D-07
 IDIUse=1 WtCom= 1.00D+00 WtEn= 0.00D+00
 Coeff-Com:  0.126D-04-0.634D-03-0.108D-02-0.122D-02 0.263D-01-0.543D-02
 Coeff-Com: -0.288D+00 0.127D+01
 Coeff:      0.126D-04-0.634D-03-0.108D-02-0.122D-02 0.263D-01-0.543D-02
 Coeff:     -0.288D+00 0.127D+01
 Gap=     0.323 Goal=   None    Shift=    0.000
 RMSDP=1.25D-06 MaxDP=2.58D-05 DE=-7.12D-07 OVMax= 1.39D-04

 Cycle   9  Pass 1  IDiag  1:
 E= -3107.47609324636     Delta-E=       -0.000000039426 Rises=F Damp=F
 DIIS: error= 3.22D-06 at cycle   9 NSaved=   9.
 NSaved= 9 IEnMin= 9 EnMin= -3107.47609324636     IErMin= 9 ErrMin= 3.22D-06
 ErrMax= 3.22D-06  0.00D+00 EMaxC= 1.00D-01 BMatC= 1.30D-09 BMatP= 9.94D-09
 IDIUse=1 WtCom= 1.00D+00 WtEn= 0.00D+00
 Coeff-Com:  0.145D-04 0.841D-04-0.193D-03-0.474D-02 0.734D-02 0.280D-01
 Coeff-Com: -0.594D-01-0.296D+00 0.133D+01
 Coeff:      0.145D-04 0.841D-04-0.193D-03-0.474D-02 0.734D-02 0.280D-01
 Coeff:     -0.594D-01-0.296D+00 0.133D+01
 Gap=     0.323 Goal=   None    Shift=    0.000
 RMSDP=5.02D-07 MaxDP=1.20D-05 DE=-3.94D-08 OVMax= 6.32D-05

 Cycle  10  Pass 1  IDiag  1:
 E= -3107.47609325253     Delta-E=       -0.000000006172 Rises=F Damp=F
 DIIS: error= 1.41D-06 at cycle  10 NSaved=  10.
 NSaved=10 IEnMin=10 EnMin= -3107.47609325253     IErMin=10 ErrMin= 1.41D-06
 ErrMax= 1.41D-06  0.00D+00 EMaxC= 1.00D-01 BMatC= 2.32D-10 BMatP= 1.30D-09
 IDIUse=1 WtCom= 1.00D+00 WtEn= 0.00D+00
 Coeff-Com: -0.423D-05 0.865D-04 0.211D-03 0.137D-02-0.638D-02-0.517D-02
 Coeff-Com:  0.690D-01-0.206D+00-0.154D+00 0.130D+01
 Coeff:     -0.423D-05 0.865D-04 0.211D-03 0.137D-02-0.638D-02-0.517D-02
 Coeff:      0.690D-01-0.206D+00-0.154D+00 0.130D+01
 Gap=     0.323 Goal=   None    Shift=    0.000
 RMSDP=2.50D-07 MaxDP=6.36D-06 DE=-6.17D-09 OVMax= 3.10D-05

 Cycle  11  Pass 1  IDiag  1:
 E= -3107.47609325368     Delta-E=       -0.000000001152 Rises=F Damp=F
 DIIS: error= 5.02D-07 at cycle  11 NSaved=  11.
 NSaved=11 IEnMin=11 EnMin= -3107.47609325368     IErMin=11 ErrMin= 5.02D-07
 ErrMax= 5.02D-07  0.00D+00 EMaxC= 1.00D-01 BMatC= 2.32D-11 BMatP= 2.32D-10
 IDIUse=1 WtCom= 1.00D+00 WtEn= 0.00D+00
 Coeff-Com: -0.134D-05-0.337D-05 0.973D-05 0.258D-03-0.426D-03-0.116D-02
 Coeff-Com: -0.109D-02 0.501D-01-0.154D+00-0.855D-01 0.119D+01
 Coeff:     -0.134D-05-0.337D-05 0.973D-05 0.258D-03-0.426D-03-0.116D-02
 Coeff:     -0.109D-02 0.501D-01-0.154D+00-0.855D-01 0.119D+01
 Gap=     0.323 Goal=   None    Shift=    0.000
 RMSDP=7.70D-08 MaxDP=2.02D-06 DE=-1.15D-09 OVMax= 9.10D-06

 Cycle  12  Pass 1  IDiag  1:
 E= -3107.47609325378     Delta-E=       -0.000000000096 Rises=F Damp=F
 DIIS: error= 9.71D-08 at cycle  12 NSaved=  12.
 NSaved=12 IEnMin=12 EnMin= -3107.47609325378     IErMin=12 ErrMin= 9.71D-08
 ErrMax= 9.71D-08  0.00D+00 EMaxC= 1.00D-01 BMatC= 2.28D-12 BMatP= 2.32D-11
 IDIUse=1 WtCom= 1.00D+00 WtEn= 0.00D+00
 Coeff-Com:  0.119D-06-0.143D-04-0.231D-04 0.134D-04 0.532D-03-0.328D-03
 Coeff-Com: -0.602D-02 0.296D-01-0.969D-02-0.138D+00 0.120D+00 0.100D+01
 Coeff:      0.119D-06-0.143D-04-0.231D-04 0.134D-04 0.532D-03-0.328D-03
 Coeff:     -0.602D-02 0.296D-01-0.969D-02-0.138D+00 0.120D+00 0.100D+01
 Gap=     0.323 Goal=   None    Shift=    0.000
 RMSDP=1.89D-08 MaxDP=4.07D-07 DE=-9.64D-11 OVMax= 1.83D-06

 Cycle  13  Pass 1  IDiag  1:
 E= -3107.47609325379     Delta-E=       -0.000000000014 Rises=F Damp=F
 DIIS: error= 3.45D-08 at cycle  13 NSaved=  13.
 NSaved=13 IEnMin=13 EnMin= -3107.47609325379     IErMin=13 ErrMin= 3.45D-08
 ErrMax= 3.45D-08  0.00D+00 EMaxC= 1.00D-01 BMatC= 2.30D-13 BMatP= 2.28D-12
 IDIUse=1 WtCom= 1.00D+00 WtEn= 0.00D+00
 Coeff-Com:  0.123D-06 0.387D-05 0.353D-05-0.461D-04-0.396D-04 0.210D-03
 Coeff-Com:  0.120D-02-0.104D-01 0.148D-01 0.377D-01-0.125D+00-0.249D+00
 Coeff-Com:  0.133D+01
 Coeff:      0.123D-06 0.387D-05 0.353D-05-0.461D-04-0.396D-04 0.210D-03
 Coeff:      0.120D-02-0.104D-01 0.148D-01 0.377D-01-0.125D+00-0.249D+00
 Coeff:      0.133D+01
 Gap=     0.323 Goal=   None    Shift=    0.000
 RMSDP=7.39D-09 MaxDP=1.60D-07 DE=-1.36D-11 OVMax= 7.38D-07

 SCF Done:  E(RHF) =  -3107.47609325     A.U. after   13 cycles
            NFock= 13  Conv=0.74D-08     -V/T= 2.0000
 KE= 3.107367883027D+03 PE=-7.821366862031D+03 EE= 1.417139305450D+03
 Leave Link  502 at Fri Nov  5 16:36:17 2021, MaxMem= 16106127360 cpu:              42.5 elap:               4.0
 (Enter /sw/contrib/gaussian/g16/B01/g16/l801.exe)
 ExpMin= 2.53D-02 ExpMax= 1.06D+07 ExpMxC= 1.21D+04 IAcc=3 IRadAn=         5 AccDes= 0.00D+00
 HarFok:  IExCor=  205 AccDes= 0.00D+00 IRadAn=         5 IDoV=-2 UseB2=F ITyADJ=14
 ICtDFT= 12500011 ScaDFX=  1.000000  1.000000  1.000000  1.000000
 Largest valence mixing into a core orbital is  4.48D-04
 Largest core mixing into a valence orbital is  1.60D-04
 Range of M.O.s used for correlation:    16   178
 NBasis=   178 NAE=    31 NBE=    31 NFC=    15 NFV=     0
 NROrb=    163 NOA=    16 NOB=    16 NVA=   147 NVB=   147

 **** Warning!!: The largest alpha MO coefficient is  0.12064460D+02

 Leave Link  801 at Fri Nov  5 16:36:17 2021, MaxMem= 16106127360 cpu:               2.2 elap:               0.1
 (Enter /sw/contrib/gaussian/g16/B01/g16/l906.exe)
 Frozen-core derivative calculation, NFC=  15 NFV=   0.
 FulOut=F Deriv=T AODrv=F NAtomX=     4
   MMem=         124  MDisk=          16 MDiskD=          16
  W3Min=     1147744 MinDsk=     1765480 NBas6D=         208
 NBas2D=       22240    NTT=       21736    LW2=     9911920
    MDV= 16105652949 MDiskM=      387107 NBas2p=       22040
 Fully in-core method, ICMem=   527338992.
 IMap=   1   2   3   4   5   6   7   8   9  10  11  12  13  14  15  16  17  18  19  20
 IMap=  21  22  23  24  25  26  27  28  29  30  31
 JobTyp=1 Pass  1 fully in-core, NPsUse= 28.
 Compute canonical integrals.
 FoFCou: FMM=F IPFlag=           0 FMFlag=           0 FMFlg1=           0
         NFxFlg=           0 DoJE=F BraDBF=F KetDBF=F FulRan=T
         wScrn=  0.000000 ICntrl=       600 IOpCl=  1 I1Cent=           0 NGrid=           0
         NMat0=    1 NMatS0=  22240 NMatT0=    0 NMatD0=    1 NMtDS0=    0 NMtDT0=    0
 Symmetry not used in FoFCou.
 Spin components of T(2) and E(2):
     alpha-alpha T2 =       0.3007204545D-01 E2=     -0.9353139175D-01
     alpha-beta  T2 =       0.1609355023D+00 E2=     -0.5138853240D+00
     beta-beta   T2 =       0.3007204545D-01 E2=     -0.9353139175D-01
 The integrals were generated   1 times.
 ANorm=    0.1105024703D+01
 E2 =    -0.7009481075D+00 EUMP2 =    -0.31081770413613D+04
 Leave Link  906 at Fri Nov  5 16:36:24 2021, MaxMem= 16106127360 cpu:             174.5 elap:               6.3
 (Enter /sw/contrib/gaussian/g16/B01/g16/l1002.exe)
 Minotr:  Closed shell wavefunction.
          Computing MP2/KS-MP2 derivatives.
          Using Z-Vector for PSCF gradient.
          Skipping F1 and S1 gradient terms here.
          Frozen-core window.
          Direct CPHF calculation.
          Differentiating once with respect to electric field.
                with respect to dipole field.
          Electric field/nuclear overlap derivatives assumed to be zero.
          Requested convergence is 1.0D-10 RMS, and 1.0D-09 maximum.
          NewPWx=F KeepS1=T KeepF1=T KeepIn=T MapXYZ=F SortEE=F KeepMc=T.
 Keep R1 ints in memory in canonical form, NReq=149459190.
 FoFCou: FMM=F IPFlag=           0 FMFlag=           0 FMFlg1=           0
         NFxFlg=           0 DoJE=F BraDBF=F KetDBF=F FulRan=T
         wScrn=  0.000000 ICntrl=       600 IOpCl=  0 I1Cent=           0 NGrid=           0
         NMat0=    1 NMatS0=  15931 NMatT0=    0 NMatD0=    1 NMtDS0=    0 NMtDT0=    0
 Symmetry not used in FoFCou.
 Two-electron integral symmetry not used.
          MDV=   16106127360 using IRadAn=       5.
          Solving linear equations separately, MaxMat=       0.
          There are     1 degrees of freedom in the 1st order CPHF.  IDoFFX=0 NUNeed=     1.
 LinEq1:  Iter=  0 NonCon=     1 RMS=2.61D-03 Max=3.78D-02 NDo=     1
 AX will form     1 AO Fock derivatives at one time.
 LinEq1:  Iter=  1 NonCon=     1 RMS=4.13D-04 Max=4.58D-03 NDo=     1
 LinEq1:  Iter=  2 NonCon=     1 RMS=1.99D-04 Max=4.31D-03 NDo=     1
 LinEq1:  Iter=  3 NonCon=     1 RMS=6.44D-05 Max=9.09D-04 NDo=     1
 LinEq1:  Iter=  4 NonCon=     1 RMS=2.72D-05 Max=9.08D-04 NDo=     1
 LinEq1:  Iter=  5 NonCon=     1 RMS=1.04D-05 Max=1.89D-04 NDo=     1
 LinEq1:  Iter=  6 NonCon=     1 RMS=2.70D-06 Max=7.43D-05 NDo=     1
 LinEq1:  Iter=  7 NonCon=     1 RMS=8.09D-07 Max=1.98D-05 NDo=     1
 LinEq1:  Iter=  8 NonCon=     1 RMS=2.57D-07 Max=4.32D-06 NDo=     1
 LinEq1:  Iter=  9 NonCon=     1 RMS=6.68D-08 Max=7.14D-07 NDo=     1
 LinEq1:  Iter= 10 NonCon=     1 RMS=1.58D-08 Max=2.25D-07 NDo=     1
 LinEq1:  Iter= 11 NonCon=     1 RMS=3.60D-09 Max=8.27D-08 NDo=     1
 LinEq1:  Iter= 12 NonCon=     1 RMS=7.74D-10 Max=2.40D-08 NDo=     1
 LinEq1:  Iter= 13 NonCon=     1 RMS=2.41D-10 Max=4.05D-09 NDo=     1
 LinEq1:  Iter= 14 NonCon=     0 RMS=6.70D-11 Max=7.66D-10 NDo=     1
 Linear equations converged to 1.000D-10 1.000D-09 after    14 iterations.
 End of Minotr F.D. properties file   721 does not exist.
 End of Minotr F.D. properties file   722 does not exist.
 End of Minotr F.D. properties file   788 does not exist.
 Leave Link 1002 at Fri Nov  5 16:36:28 2021, MaxMem= 16106127360 cpu:              40.4 elap:               4.5
 (Enter /sw/contrib/gaussian/g16/B01/g16/l601.exe)
 Copying SCF densities to generalized density rwf, IOpCl= 0 IROHF=0.

 **********************************************************************

            Population analysis using the MP2 Density.

 **********************************************************************

 Alpha  occ. eigenvalues -- -489.74852-104.73806 -64.88884 -58.24335 -58.24330
 Alpha  occ. eigenvalues --  -58.24328 -20.47160 -10.45748  -9.56135  -7.92462
 Alpha  occ. eigenvalues --   -7.92195  -7.92184  -7.16907  -7.16863  -7.16860
 Alpha  occ. eigenvalues --   -2.91076  -2.91059  -2.91053  -2.91003  -2.91002
 Alpha  occ. eigenvalues --   -1.24317  -0.90614  -0.72188  -0.55485  -0.44974
 Alpha  occ. eigenvalues --   -0.44051  -0.31641  -0.29008  -0.17724  -0.16906
 Alpha  occ. eigenvalues --   -0.16869
 Alpha virt. eigenvalues --    0.15428   0.17812   0.21657   0.22652   0.24177
 Alpha virt. eigenvalues --    0.24807   0.25049   0.27856   0.29486   0.30556
 Alpha virt. eigenvalues --    0.32578   0.33447   0.36346   0.41691   0.44055
 Alpha virt. eigenvalues --    0.46435   0.48518   0.48969   0.51238   0.53807
 Alpha virt. eigenvalues --    0.54528   0.56057   0.58511   0.59158   0.59888
 Alpha virt. eigenvalues --    0.61389   0.64805   0.68883   0.73483   0.74342
 Alpha virt. eigenvalues --    0.75732   0.77103   0.79578   0.86080   0.87701
 Alpha virt. eigenvalues --    0.88598   0.90371   0.94571   0.98831   0.99109
 Alpha virt. eigenvalues --    1.00918   1.01156   1.01842   1.04525   1.06474
 Alpha virt. eigenvalues --    1.07080   1.09137   1.09424   1.11621   1.12970
 Alpha virt. eigenvalues --    1.15993   1.16782   1.18297   1.18765   1.19703
 Alpha virt. eigenvalues --    1.21266   1.25246   1.28459   1.31058   1.35216
 Alpha virt. eigenvalues --    1.36945   1.38265   1.44680   1.48730   1.49811
 Alpha virt. eigenvalues --    1.53468   1.56523   1.60110   1.65915   1.69062
 Alpha virt. eigenvalues --    1.70935   1.73570   1.78638   1.80656   1.87617
 Alpha virt. eigenvalues --    1.96394   2.11556   2.35667   2.38497   2.41425
 Alpha virt. eigenvalues --    2.44904   2.46614   2.46834   2.50497   2.52937
 Alpha virt. eigenvalues --    2.53514   2.55468   2.55717   2.56124   2.56689
 Alpha virt. eigenvalues --    2.58654   2.59041   2.62113   2.63090   2.65093
 Alpha virt. eigenvalues --    2.66393   2.68960   2.69693   2.71035   2.73170
 Alpha virt. eigenvalues --    2.74957   2.76298   2.77792   2.78659   2.80637
 Alpha virt. eigenvalues --    2.87045   2.90958   3.03528   3.08574   3.13746
 Alpha virt. eigenvalues --    3.18058   3.21220   3.24048   3.25226   3.29309
 Alpha virt. eigenvalues --    3.34339   3.50128   3.53592   3.56609   3.93404
 Alpha virt. eigenvalues --    4.16029   4.34476   4.40904   4.53769   4.59240
 Alpha virt. eigenvalues --    4.75771   4.77918   4.98872   5.09819   5.43302
 Alpha virt. eigenvalues --    5.51188   5.72648   6.37408   6.55657   6.87293
 Alpha virt. eigenvalues --    6.90006   6.91186   6.98782   7.33215   7.38377
 Alpha virt. eigenvalues --    7.41568   7.43883   7.52983   7.76307   7.78354
 Alpha virt. eigenvalues --    8.40534  15.09030
          Condensed to atoms (all electrons):
               1          2          3          4
     1  O    8.577954  -0.104518  -0.076752   0.031125
     2  Cl  -0.104518  17.041986   0.002075  -0.000183
     3  Br  -0.076752   0.002075  35.900902   0.060429
     4  H    0.031125  -0.000183   0.060429   0.654804
 Mulliken charges:
               1
     1  O   -0.427810
     2  Cl   0.060640
     3  Br  -0.886654
     4  H    0.253824
 Sum of Mulliken charges =  -1.00000
 Mulliken charges with hydrogens summed into heavy atoms:
               1
     1  O   -0.173985
     2  Cl   0.060640
     3  Br  -0.886654
 Electronic spatial extent (au):  <R**2>=           1499.0959
 Charge=             -1.0000 electrons
 Dipole moment (field-independent basis, Debye):
    X=              1.8979    Y=             11.1076    Z=              0.2469  Tot=             11.2713
 Quadrupole moment (field-independent basis, Debye-Ang):
   XX=            -45.1449   YY=            -79.9585   ZZ=            -43.0550
   XY=             -8.5543   XZ=             -0.1308   YZ=             -0.0715
 Traceless Quadrupole moment (field-independent basis, Debye-Ang):
   XX=             10.9079   YY=            -23.9057   ZZ=             12.9978
   XY=             -8.5543   XZ=             -0.1308   YZ=             -0.0715
 Octapole moment (field-independent basis, Debye-Ang**2):
  XXX=            -16.2442  YYY=            323.6199  ZZZ=             -1.2161  XYY=             17.9266
  XXY=             75.7626  XXZ=             -0.7011  XZZ=             -7.3825  YZZ=             70.4277
  YYZ=             -1.8699  XYZ=             -0.3389
 Hexadecapole moment (field-independent basis, Debye-Ang**3):
 XXXX=           -334.4198 YYYY=          -1665.4173 ZZZZ=            -63.1282 XXXY=           -146.4738
 XXXZ=             -0.1715 YYYX=           -215.9477 YYYZ=              7.5454 ZZZX=              0.2225
 ZZZY=              1.8147 XXYY=           -299.6052 XXZZ=            -71.2157 YYZZ=           -233.2761
 XXYZ=              0.7851 YYXZ=              1.3415 ZZXY=            -47.4006
 N-N= 1.893835803006D+02 E-N=-7.819936614501D+03  KE= 3.107391574144D+03
 No NMR shielding tensors so no spin-rotation constants.
 Leave Link  601 at Fri Nov  5 16:36:28 2021, MaxMem= 16106127360 cpu:               4.3 elap:               0.2
 (Enter /sw/contrib/gaussian/g16/B01/g16/l607.exe)
 ******************************Gaussian NBO Version 3.1******************************
             N A T U R A L   A T O M I C   O R B I T A L   A N D
          N A T U R A L   B O N D   O R B I T A L   A N A L Y S I S
 ******************************Gaussian NBO Version 3.1******************************
       /RESON  / : Allow strongly delocalized NBO set

 Analyzing the MP2 density

 Job title: title                                                           

 Storage needed:     95974 in NPA,    127345 in NBO (********** available)
 GSVD:  LWork=        4314 too small for GESVD, short by       49391 words or       49391 for optimal perf.


 NATURAL POPULATIONS:  Natural atomic orbital occupancies 
                                                          
   NAO  Atom  No  lang   Type(AO)    Occupancy
 --------------------------------------------
     1    O    1  S      Cor( 1S)     1.99968
     2    O    1  S      Val( 2S)     1.78418
     3    O    1  S      Ryd( 3S)     0.00910
     4    O    1  S      Ryd( 4S)     0.00107
     5    O    1  S      Ryd( 5S)     0.00018
     6    O    1  px     Val( 2p)     1.20679
     7    O    1  px     Ryd( 3p)     0.00645
     8    O    1  px     Ryd( 4p)     0.00061
     9    O    1  px     Ryd( 5p)     0.00033
    10    O    1  py     Val( 2p)     1.72241
    11    O    1  py     Ryd( 3p)     0.01288
    12    O    1  py     Ryd( 4p)     0.00074
    13    O    1  py     Ryd( 5p)     0.00041
    14    O    1  pz     Val( 2p)     1.91142
    15    O    1  pz     Ryd( 3p)     0.01880
    16    O    1  pz     Ryd( 4p)     0.00068
    17    O    1  pz     Ryd( 5p)     0.00019
    18    O    1  dxy    Ryd( 3d)     0.00869
    19    O    1  dxy    Ryd( 4d)     0.00048
    20    O    1  dxy    Ryd( 5d)     0.00013
    21    O    1  dxz    Ryd( 3d)     0.00869
    22    O    1  dxz    Ryd( 4d)     0.00056
    23    O    1  dxz    Ryd( 5d)     0.00010
    24    O    1  dyz    Ryd( 3d)     0.00979
    25    O    1  dyz    Ryd( 4d)     0.00058
    26    O    1  dyz    Ryd( 5d)     0.00026
    27    O    1  dx2y2  Ryd( 3d)     0.01234
    28    O    1  dx2y2  Ryd( 4d)     0.00036
    29    O    1  dx2y2  Ryd( 5d)     0.00020
    30    O    1  dz2    Ryd( 3d)     0.00912
    31    O    1  dz2    Ryd( 4d)     0.00055
    32    O    1  dz2    Ryd( 5d)     0.00018
    33    O    1  f(0)   Ryd( 4f)     0.00066
    34    O    1  f(0)   Ryd( 5f)     0.00011
    35    O    1  f(C1)  Ryd( 4f)     0.00064
    36    O    1  f(C1)  Ryd( 5f)     0.00011
    37    O    1  f(S1)  Ryd( 4f)     0.00059
    38    O    1  f(S1)  Ryd( 5f)     0.00011
    39    O    1  f(C2)  Ryd( 4f)     0.00059
    40    O    1  f(C2)  Ryd( 5f)     0.00012
    41    O    1  f(S2)  Ryd( 4f)     0.00056
    42    O    1  f(S2)  Ryd( 5f)     0.00013
    43    O    1  f(C3)  Ryd( 4f)     0.00057
    44    O    1  f(C3)  Ryd( 5f)     0.00013
    45    O    1  f(S3)  Ryd( 4f)     0.00055
    46    O    1  f(S3)  Ryd( 5f)     0.00014

    47   Cl    2  S      Cor( 1S)     2.00000
    48   Cl    2  S      Cor( 2S)     1.99981
    49   Cl    2  S      Val( 3S)     1.88656
    50   Cl    2  S      Ryd( 4S)     0.00781
    51   Cl    2  S      Ryd( 5S)     0.00054
    52   Cl    2  S      Ryd( 6S)     0.00016
    53   Cl    2  px     Cor( 2p)     1.99997
    54   Cl    2  px     Val( 3p)     0.90380
    55   Cl    2  px     Ryd( 4p)     0.00638
    56   Cl    2  px     Ryd( 5p)     0.00052
    57   Cl    2  px     Ryd( 6p)     0.00020
    58   Cl    2  py     Cor( 2p)     2.00003
    59   Cl    2  py     Val( 3p)     1.95359
    60   Cl    2  py     Ryd( 4p)     0.00978
    61   Cl    2  py     Ryd( 5p)     0.00053
    62   Cl    2  py     Ryd( 6p)     0.00009
    63   Cl    2  pz     Cor( 2p)     2.00003
    64   Cl    2  pz     Val( 3p)     1.95462
    65   Cl    2  pz     Ryd( 4p)     0.01033
    66   Cl    2  pz     Ryd( 5p)     0.00065
    67   Cl    2  pz     Ryd( 6p)     0.00003
    68   Cl    2  dxy    Ryd( 3d)     0.01694
    69   Cl    2  dxy    Ryd( 4d)     0.00081
    70   Cl    2  dxy    Ryd( 5d)     0.00033
    71   Cl    2  dxz    Ryd( 3d)     0.02044
    72   Cl    2  dxz    Ryd( 4d)     0.00100
    73   Cl    2  dxz    Ryd( 5d)     0.00036
    74   Cl    2  dyz    Ryd( 3d)     0.01679
    75   Cl    2  dyz    Ryd( 4d)     0.00072
    76   Cl    2  dyz    Ryd( 5d)     0.00018
    77   Cl    2  dx2y2  Ryd( 3d)     0.01844
    78   Cl    2  dx2y2  Ryd( 4d)     0.00048
    79   Cl    2  dx2y2  Ryd( 5d)     0.00016
    80   Cl    2  dz2    Ryd( 3d)     0.01739
    81   Cl    2  dz2    Ryd( 4d)     0.00061
    82   Cl    2  dz2    Ryd( 5d)     0.00016
    83   Cl    2  f(0)   Ryd( 4f)     0.00130
    84   Cl    2  f(0)   Ryd( 5f)     0.00013
    85   Cl    2  f(C1)  Ryd( 4f)     0.00143
    86   Cl    2  f(C1)  Ryd( 5f)     0.00014
    87   Cl    2  f(S1)  Ryd( 4f)     0.00126
    88   Cl    2  f(S1)  Ryd( 5f)     0.00013
    89   Cl    2  f(C2)  Ryd( 4f)     0.00132
    90   Cl    2  f(C2)  Ryd( 5f)     0.00013
    91   Cl    2  f(S2)  Ryd( 4f)     0.00119
    92   Cl    2  f(S2)  Ryd( 5f)     0.00013
    93   Cl    2  f(C3)  Ryd( 4f)     0.00155
    94   Cl    2  f(C3)  Ryd( 5f)     0.00014
    95   Cl    2  f(S3)  Ryd( 4f)     0.00127
    96   Cl    2  f(S3)  Ryd( 5f)     0.00014

    97   Br    3  S      Cor( 1S)     2.00000
    98   Br    3  S      Cor( 2S)     2.00000
    99   Br    3  S      Cor( 3S)     1.99994
   100   Br    3  S      Val( 4S)     1.97385
   101   Br    3  S      Ryd( 5S)     0.00227
   102   Br    3  S      Ryd( 6S)     0.00049
   103   Br    3  S      Ryd( 7S)     0.00018
   104   Br    3  px     Cor( 3p)     2.00000
   105   Br    3  px     Cor( 2p)     2.00001
   106   Br    3  px     Val( 4p)     1.95062
   107   Br    3  px     Ryd( 5p)     0.01137
   108   Br    3  px     Ryd( 6p)     0.00081
   109   Br    3  px     Ryd( 7p)     0.00009
   110   Br    3  py     Cor( 2p)     2.00000
   111   Br    3  py     Cor( 3p)     1.99997
   112   Br    3  py     Val( 4p)     1.89341
   113   Br    3  py     Ryd( 5p)     0.00995
   114   Br    3  py     Ryd( 6p)     0.00077
   115   Br    3  py     Ryd( 7p)     0.00011
   116   Br    3  pz     Cor( 3p)     2.00000
   117   Br    3  pz     Cor( 2p)     2.00001
   118   Br    3  pz     Val( 4p)     1.95044
   119   Br    3  pz     Ryd( 5p)     0.01143
   120   Br    3  pz     Ryd( 6p)     0.00082
   121   Br    3  pz     Ryd( 7p)     0.00008
   122   Br    3  dxy    Cor( 3d)     1.99766
   123   Br    3  dxy    Ryd( 4d)     0.01887
   124   Br    3  dxy    Ryd( 5d)     0.00151
   125   Br    3  dxy    Ryd( 6d)     0.00021
   126   Br    3  dxz    Cor( 3d)     1.99769
   127   Br    3  dxz    Ryd( 4d)     0.01870
   128   Br    3  dxz    Ryd( 5d)     0.00176
   129   Br    3  dxz    Ryd( 6d)     0.00024
   130   Br    3  dyz    Cor( 3d)     1.99767
   131   Br    3  dyz    Ryd( 4d)     0.01902
   132   Br    3  dyz    Ryd( 5d)     0.00153
   133   Br    3  dyz    Ryd( 6d)     0.00021
   134   Br    3  dx2y2  Cor( 3d)     1.99765
   135   Br    3  dx2y2  Ryd( 4d)     0.01858
   136   Br    3  dx2y2  Ryd( 5d)     0.00163
   137   Br    3  dx2y2  Ryd( 6d)     0.00026
   138   Br    3  dz2    Cor( 3d)     1.99767
   139   Br    3  dz2    Ryd( 4d)     0.01862
   140   Br    3  dz2    Ryd( 5d)     0.00171
   141   Br    3  dz2    Ryd( 6d)     0.00022
   142   Br    3  f(0)   Ryd( 4f)     0.00174
   143   Br    3  f(0)   Ryd( 5f)     0.00025
   144   Br    3  f(C1)  Ryd( 4f)     0.00175
   145   Br    3  f(C1)  Ryd( 5f)     0.00025
   146   Br    3  f(S1)  Ryd( 4f)     0.00174
   147   Br    3  f(S1)  Ryd( 5f)     0.00027
   148   Br    3  f(C2)  Ryd( 4f)     0.00174
   149   Br    3  f(C2)  Ryd( 5f)     0.00026
   150   Br    3  f(S2)  Ryd( 4f)     0.00176
   151   Br    3  f(S2)  Ryd( 5f)     0.00026
   152   Br    3  f(C3)  Ryd( 4f)     0.00172
   153   Br    3  f(C3)  Ryd( 5f)     0.00027
   154   Br    3  f(S3)  Ryd( 4f)     0.00173
   155   Br    3  f(S3)  Ryd( 5f)     0.00027

   156    H    4  S      Val( 1S)     0.48782
   157    H    4  S      Ryd( 2S)     0.00823
   158    H    4  S      Ryd( 3S)     0.00029
   159    H    4  S      Ryd( 4S)     0.00013
   160    H    4  px     Ryd( 2p)     0.00363
   161    H    4  px     Ryd( 3p)     0.00049
   162    H    4  px     Ryd( 4p)     0.00011
   163    H    4  py     Ryd( 2p)     0.00547
   164    H    4  py     Ryd( 3p)     0.00080
   165    H    4  py     Ryd( 4p)     0.00035
   166    H    4  pz     Ryd( 2p)     0.00468
   167    H    4  pz     Ryd( 3p)     0.00045
   168    H    4  pz     Ryd( 4p)     0.00021
   169    H    4  dxy    Ryd( 3d)     0.00028
   170    H    4  dxy    Ryd( 4d)     0.00011
   171    H    4  dxz    Ryd( 3d)     0.00022
   172    H    4  dxz    Ryd( 4d)     0.00007
   173    H    4  dyz    Ryd( 3d)     0.00036
   174    H    4  dyz    Ryd( 4d)     0.00011
   175    H    4  dx2y2  Ryd( 3d)     0.00023
   176    H    4  dx2y2  Ryd( 4d)     0.00011
   177    H    4  dz2    Ryd( 3d)     0.00026
   178    H    4  dz2    Ryd( 4d)     0.00010

 WARNING:  5 low occupancy (<1.9990e) core orbitals found on Br    3


 Summary of Natural Population Analysis:                  
                                                          
                                       Natural Population 
                Natural  -----------------------------------------------
    Atom  No    Charge         Core      Valence    Rydberg      Total
 -----------------------------------------------------------------------
      O    1   -0.73297      1.99968     6.62480    0.10849     8.73297
     Cl    2    0.15950      9.99983     6.69857    0.14210    16.84050
     Br    3   -0.91203     27.98827     7.76832    0.15545    35.91203
      H    4    0.48551      0.00000     0.48782    0.02667     0.51449
 =======================================================================
   * Total *   -1.00000     39.98778    21.57951    0.43271    62.00000

                                 Natural Population      
 --------------------------------------------------------
   Core                      39.98778 ( 99.9694% of  40)
   Valence                   21.57951 ( 98.0887% of  22)
   Natural Minimal Basis     61.56729 ( 99.3021% of  62)
   Natural Rydberg Basis      0.43271 (  0.6979% of  62)
 --------------------------------------------------------

    Atom  No          Natural Electron Configuration
 ----------------------------------------------------------------------------
      O    1      [core]2S( 1.78)2p( 4.84)3S( 0.01)3p( 0.04)3d( 0.05)
     Cl    2      [core]3S( 1.89)3p( 4.81)4S( 0.01)3d( 0.09)4p( 0.03)4f( 0.01)
     Br    3      [core]4S( 1.97)4p( 5.79)4d( 0.09)5p( 0.03)4f( 0.01)5d( 0.01)
      H    4            1S( 0.49)2S( 0.01)2p( 0.01)


 NATURAL BOND ORBITAL ANALYSIS:

                       Occupancies       Lewis Structure    Low   High
           Occ.    -------------------  -----------------   occ   occ
  Cycle   Thresh.   Lewis   Non-Lewis     CR  BD  3C  LP    (L)   (NL)   Dev
 =============================================================================
   1(1)    1.90    61.46857   0.53143     20   2   0   9     1      0    0.10
   2(2)    1.90    61.46857   0.53143     20   2   0   9     1      0    0.10
   3(1)    1.80    61.46857   0.53143     20   2   0   9     0      0    0.10
   4(2)    1.80    61.46857   0.53143     20   2   0   9     0      0    0.10
   5(1)    1.70    61.46857   0.53143     20   2   0   9     0      0    0.10
   6(2)    1.70    61.46857   0.53143     20   2   0   9     0      0    0.10
   7(1)    1.60    61.46857   0.53143     20   2   0   9     0      0    0.10
   8(2)    1.60    61.46857   0.53143     20   2   0   9     0      0    0.10
   9(1)    1.50    61.06645   0.93355     20   1   0  10     0      1    0.60
  10(2)    1.50    61.06645   0.93355     20   1   0  10     0      1    0.60
  11(1)    1.90    61.46857   0.53143     20   2   0   9     1      0    0.10
 -----------------------------------------------------------------------------

 Structure accepted: RESONANCE keyword permits strongly delocalized structure

 WARNING:  5 low occupancy (<1.9990e) core orbitals found on Br    3

 --------------------------------------------------------
   Core                     39.98778 ( 99.969% of  40)
   Valence Lewis            21.48079 ( 97.640% of  22)
  ==================       ============================
   Total Lewis              61.46857 ( 99.143% of  62)
  -----------------------------------------------------
   Valence non-Lewis         0.14433 (  0.233% of  62)
   Rydberg non-Lewis         0.38710 (  0.624% of  62)
  ==================       ============================
   Total non-Lewis           0.53143 (  0.857% of  62)
 --------------------------------------------------------


       (Occupancy)   Bond orbital/ Coefficients/ Hybrids
 ---------------------------------------------------------------------------------
     1. (1.93872) BD ( 1) O   1 -Cl   2  
                ( 58.92%)   0.7676* O   1 s(  9.93%)p 9.02( 89.55%)d 0.05(  0.51%)
                                                  f 0.00(  0.02%)
                                            0.0003  0.3123 -0.0388 -0.0139 -0.0009
                                            0.9451 -0.0263 -0.0098 -0.0101 -0.0119
                                           -0.0275 -0.0049 -0.0001  0.0166  0.0109
                                            0.0019 -0.0002 -0.0211 -0.0014  0.0024
                                            0.0105  0.0014 -0.0002 -0.0081 -0.0009
                                            0.0009  0.0530  0.0047  0.0020 -0.0402
                                           -0.0037  0.0001 -0.0000  0.0000 -0.0103
                                            0.0009 -0.0002 -0.0001  0.0003 -0.0008
                                           -0.0043  0.0012  0.0062  0.0004 -0.0005
                                            0.0019
                ( 41.08%)   0.6409*Cl   2 s(  8.16%)p11.10( 90.60%)d 0.14(  1.13%)
                                                  f 0.01(  0.11%)
                                           -0.0000  0.0005  0.2801 -0.0551 -0.0103
                                           -0.0023 -0.0004 -0.9495  0.0643  0.0140
                                           -0.0044 -0.0000 -0.0085 -0.0019  0.0020
                                           -0.0007  0.0000  0.0033  0.0001 -0.0013
                                            0.0005  0.0106 -0.0002  0.0007 -0.0071
                                           -0.0009 -0.0004 -0.0033  0.0000  0.0008
                                            0.0890 -0.0104 -0.0004 -0.0552  0.0056
                                            0.0006 -0.0005  0.0001  0.0206 -0.0032
                                            0.0003 -0.0002  0.0004  0.0001  0.0011
                                           -0.0009 -0.0254  0.0031 -0.0011  0.0003
     2. (1.96613) BD ( 1) O   1 - H   4  
                ( 78.60%)   0.8866* O   1 s( 28.84%)p 2.45( 70.65%)d 0.02(  0.50%)
                                                  f 0.00(  0.01%)
                                           -0.0003 -0.5369  0.0083  0.0080 -0.0018
                                            0.1904 -0.0182 -0.0029 -0.0025  0.7579
                                           -0.0102 -0.0067 -0.0034 -0.3087  0.0028
                                            0.0029  0.0028  0.0020  0.0029  0.0002
                                           -0.0007 -0.0013 -0.0004  0.0436  0.0027
                                           -0.0006  0.0509  0.0044  0.0023  0.0222
                                            0.0002 -0.0022  0.0067  0.0001 -0.0011
                                           -0.0002 -0.0042  0.0001  0.0039  0.0013
                                           -0.0014 -0.0013 -0.0012 -0.0021  0.0011
                                           -0.0023
                ( 21.40%)   0.4626* H   4 s( 99.83%)p 0.00(  0.16%)d 0.00(  0.00%)
                                           -0.9985 -0.0358 -0.0015  0.0004 -0.0118
                                           -0.0074  0.0018  0.0111 -0.0289 -0.0091
                                           -0.0163  0.0117  0.0016  0.0003  0.0021
                                           -0.0010 -0.0010 -0.0005 -0.0002  0.0015
                                           -0.0002  0.0012  0.0022
     3. (1.99968) CR ( 1) O   1           s(100.00%)p 0.00(  0.00%)
                                            1.0000 -0.0004  0.0000  0.0000 -0.0000
                                           -0.0002  0.0000  0.0000  0.0000  0.0001
                                            0.0000 -0.0000 -0.0000 -0.0000 -0.0000
                                            0.0000  0.0000  0.0000  0.0000  0.0000
                                           -0.0000 -0.0000 -0.0000  0.0000  0.0000
                                           -0.0000 -0.0000 -0.0000  0.0000  0.0000
                                            0.0000 -0.0000  0.0000  0.0000  0.0000
                                           -0.0000 -0.0000  0.0000  0.0000  0.0000
                                            0.0000 -0.0000 -0.0000 -0.0000 -0.0000
                                           -0.0000
     4. (2.00000) CR ( 1)Cl   2           s(100.00%)
                                            1.0000  0.0000  0.0000 -0.0000 -0.0000
                                           -0.0000 -0.0000 -0.0000  0.0000  0.0000
                                           -0.0000 -0.0000 -0.0000 -0.0000  0.0000
                                           -0.0000 -0.0000  0.0000  0.0000 -0.0000
                                            0.0000  0.0000 -0.0000  0.0000 -0.0000
                                           -0.0000 -0.0000 -0.0000  0.0000  0.0000
                                            0.0000 -0.0000 -0.0000 -0.0000  0.0000
                                            0.0000 -0.0000  0.0000  0.0000 -0.0000
                                            0.0000 -0.0000  0.0000  0.0000  0.0000
                                           -0.0000 -0.0000  0.0000 -0.0000  0.0000
     5. (1.99981) CR ( 2)Cl   2           s(100.00%)p 0.00(  0.00%)
                                            0.0000  1.0000 -0.0004  0.0000  0.0000
                                            0.0000  0.0000  0.0004 -0.0000 -0.0000
                                            0.0000  0.0000  0.0000  0.0000 -0.0000
                                            0.0000 -0.0000 -0.0000 -0.0000  0.0000
                                           -0.0000 -0.0000  0.0000 -0.0000  0.0000
                                            0.0000  0.0000  0.0000  0.0000 -0.0000
                                           -0.0000  0.0000  0.0000  0.0000 -0.0000
                                           -0.0000  0.0000 -0.0000 -0.0000  0.0000
                                           -0.0000  0.0000 -0.0000 -0.0000 -0.0000
                                            0.0000  0.0000 -0.0000  0.0000 -0.0000
     6. (1.99996) CR ( 3)Cl   2           s(  0.00%)p 1.00(100.00%)
                                           -0.0000  0.0000  0.0001 -0.0000 -0.0000
                                           -0.0000  1.0000 -0.0004  0.0000  0.0000
                                           -0.0000  0.0000 -0.0000 -0.0000  0.0000
                                           -0.0000 -0.0000  0.0000  0.0000 -0.0000
                                            0.0000  0.0000 -0.0000  0.0000 -0.0000
                                           -0.0000 -0.0000 -0.0000  0.0000  0.0000
                                            0.0000 -0.0000 -0.0000 -0.0000  0.0000
                                            0.0000 -0.0000  0.0000  0.0000 -0.0000
                                            0.0000 -0.0000  0.0000  0.0000  0.0000
                                           -0.0000 -0.0000  0.0000 -0.0000  0.0000
     7. (2.00003) CR ( 4)Cl   2           s(  0.00%)p 1.00(100.00%)
                                           -0.0000  0.0000  0.0000  0.0000  0.0000
                                           -0.0000  0.0000 -0.0000  0.0000  0.0000
                                           -0.0000  1.0000  0.0002  0.0000  0.0000
                                            0.0000  0.0000 -0.0000 -0.0000  0.0000
                                           -0.0000 -0.0000  0.0000  0.0000  0.0000
                                            0.0000  0.0000  0.0000  0.0000 -0.0000
                                           -0.0000 -0.0000 -0.0000 -0.0000 -0.0000
                                           -0.0000  0.0000 -0.0000  0.0000  0.0000
                                           -0.0000  0.0000  0.0000 -0.0000 -0.0000
                                            0.0000 -0.0000  0.0000  0.0000 -0.0000
     8. (2.00003) CR ( 5)Cl   2           s(  0.00%)p 1.00(100.00%)
                                           -0.0000 -0.0000 -0.0000  0.0000  0.0000
                                           -0.0000 -0.0000  0.0000 -0.0000  0.0000
                                            0.0000  0.0000 -0.0000 -0.0000  0.0000
                                           -0.0000  1.0000  0.0002  0.0000  0.0000
                                           -0.0000  0.0000  0.0000  0.0000  0.0000
                                            0.0000  0.0000  0.0000  0.0000  0.0000
                                           -0.0000  0.0000  0.0000  0.0000  0.0000
                                            0.0000 -0.0000  0.0000 -0.0000  0.0000
                                           -0.0000  0.0000  0.0000 -0.0000  0.0000
                                           -0.0000  0.0000  0.0000 -0.0000  0.0000
     9. (2.00000) CR ( 1)Br   3           s(100.00%)
                                            1.0000 -0.0000  0.0000  0.0000 -0.0000
                                            0.0000  0.0000 -0.0000 -0.0000 -0.0000
                                            0.0000 -0.0000 -0.0000 -0.0000 -0.0000
                                           -0.0000  0.0000 -0.0000  0.0000 -0.0000
                                           -0.0000 -0.0000  0.0000 -0.0000  0.0000
                                           -0.0000 -0.0000 -0.0000 -0.0000 -0.0000
                                           -0.0000  0.0000 -0.0000 -0.0000 -0.0000
                                           -0.0000 -0.0000  0.0000 -0.0000  0.0000
                                            0.0000  0.0000 -0.0000  0.0000  0.0000
                                           -0.0000 -0.0000 -0.0000  0.0000 -0.0000
                                           -0.0000 -0.0000 -0.0000  0.0000  0.0000
                                           -0.0000 -0.0000 -0.0000 -0.0000
    10. (2.00000) CR ( 2)Br   3           s(100.00%)
                                           -0.0000  1.0000  0.0000  0.0000 -0.0000
                                            0.0000  0.0000 -0.0000 -0.0000 -0.0000
                                            0.0000 -0.0000 -0.0000 -0.0000 -0.0000
                                           -0.0000  0.0000 -0.0000  0.0000 -0.0000
                                           -0.0000 -0.0000  0.0000 -0.0000  0.0000
                                           -0.0000  0.0000 -0.0000 -0.0000 -0.0000
                                           -0.0000 -0.0000 -0.0000 -0.0000 -0.0000
                                           -0.0000 -0.0000  0.0000 -0.0000  0.0000
                                            0.0000  0.0000 -0.0000  0.0000  0.0000
                                           -0.0000 -0.0000 -0.0000 -0.0000 -0.0000
                                           -0.0000 -0.0000 -0.0000  0.0000  0.0000
                                           -0.0000 -0.0000 -0.0000 -0.0000
    11. (1.99994) CR ( 3)Br   3           s(100.00%)
                                            0.0000  0.0000  1.0000 -0.0001  0.0000
                                           -0.0000 -0.0000  0.0000  0.0000  0.0000
                                           -0.0000  0.0000  0.0000  0.0000  0.0000
                                            0.0000 -0.0000  0.0000 -0.0000  0.0000
                                            0.0000  0.0000 -0.0000  0.0000 -0.0000
                                            0.0000  0.0000  0.0000  0.0000  0.0000
                                            0.0000 -0.0000  0.0000  0.0000  0.0000
                                            0.0000  0.0000 -0.0000  0.0000 -0.0000
                                           -0.0000 -0.0000  0.0000 -0.0000 -0.0000
                                            0.0000  0.0000  0.0000  0.0000  0.0000
                                            0.0000  0.0000  0.0000  0.0000  0.0000
                                            0.0000  0.0000  0.0000  0.0000
    12. (2.00000) CR ( 4)Br   3           s(  0.00%)p 1.00(100.00%)
                                           -0.0000 -0.0000  0.0000  0.0000 -0.0000
                                            0.0000  0.0000  1.0000 -0.0000 -0.0000
                                           -0.0000 -0.0000  0.0000  0.0000  0.0000
                                            0.0000  0.0000  0.0000 -0.0000  0.0000
                                            0.0000  0.0000  0.0000  0.0000 -0.0000
                                            0.0000 -0.0000  0.0000  0.0000  0.0000
                                           -0.0000  0.0000 -0.0000 -0.0000  0.0000
                                           -0.0000 -0.0000  0.0000 -0.0000  0.0000
                                            0.0000  0.0000  0.0000 -0.0000  0.0000
                                           -0.0000  0.0000  0.0000  0.0000 -0.0000
                                            0.0000 -0.0000 -0.0000 -0.0000 -0.0000
                                            0.0000  0.0000 -0.0000 -0.0000
    13. (2.00001) CR ( 5)Br   3           s(  0.00%)p 1.00(100.00%)
                                           -0.0000 -0.0000  0.0000  0.0000 -0.0000
                                            0.0000  0.0000 -0.0000  1.0000 -0.0001
                                           -0.0000 -0.0000  0.0000  0.0000  0.0000
                                            0.0000  0.0000  0.0000 -0.0000  0.0000
                                            0.0000  0.0000  0.0000  0.0000 -0.0000
                                            0.0000 -0.0000  0.0000  0.0000  0.0000
                                           -0.0000  0.0000 -0.0000 -0.0000  0.0000
                                           -0.0000 -0.0000  0.0000 -0.0000  0.0000
                                            0.0000  0.0000  0.0000 -0.0000 -0.0000
                                           -0.0000  0.0000  0.0000  0.0000 -0.0000
                                            0.0000 -0.0000 -0.0000 -0.0000 -0.0000
                                            0.0000  0.0000 -0.0000 -0.0000
    14. (2.00000) CR ( 6)Br   3           s(  0.00%)p 1.00(100.00%)
                                           -0.0000 -0.0000  0.0000  0.0000 -0.0000
                                            0.0000  0.0000  0.0000  0.0000  0.0000
                                            0.0000  0.0000 -0.0000  1.0000 -0.0000
                                           -0.0000  0.0000 -0.0000  0.0000  0.0000
                                            0.0000  0.0000  0.0000  0.0000 -0.0000
                                           -0.0000  0.0000 -0.0000 -0.0000 -0.0000
                                            0.0000 -0.0000  0.0000 -0.0000  0.0000
                                           -0.0000 -0.0000  0.0000  0.0000  0.0000
                                           -0.0000  0.0000  0.0000 -0.0000  0.0000
                                           -0.0000 -0.0000 -0.0000 -0.0000  0.0000
                                            0.0000 -0.0000 -0.0000  0.0000  0.0000
                                           -0.0000 -0.0000  0.0000  0.0000
    15. (1.99997) CR ( 7)Br   3           s(  0.00%)p 1.00(100.00%)
                                           -0.0000 -0.0000  0.0000  0.0001 -0.0000
                                            0.0000  0.0000  0.0000  0.0000  0.0000
                                            0.0000  0.0000 -0.0000 -0.0000  1.0000
                                           -0.0000  0.0000 -0.0000  0.0000  0.0000
                                            0.0000  0.0000  0.0000  0.0000  0.0000
                                           -0.0000  0.0000 -0.0000 -0.0000 -0.0000
                                            0.0000 -0.0000  0.0000 -0.0000  0.0000
                                           -0.0000 -0.0000  0.0000  0.0000  0.0000
                                           -0.0000  0.0000  0.0000 -0.0000  0.0000
                                           -0.0000 -0.0000 -0.0000 -0.0000  0.0000
                                            0.0000 -0.0000 -0.0000  0.0000  0.0000
                                           -0.0000 -0.0000  0.0000  0.0000
    16. (2.00000) CR ( 8)Br   3           s(  0.00%)p 1.00(100.00%)
                                           -0.0000 -0.0000  0.0000  0.0000  0.0000
                                           -0.0000 -0.0000  0.0000  0.0000  0.0000
                                            0.0000 -0.0000  0.0000  0.0000  0.0000
                                            0.0000 -0.0000 -0.0000  0.0000  1.0000
                                           -0.0000 -0.0000 -0.0000 -0.0000  0.0000
                                           -0.0000  0.0000 -0.0000 -0.0000  0.0000
                                           -0.0000  0.0000  0.0000  0.0000 -0.0000
                                            0.0000  0.0000  0.0000 -0.0000  0.0000
                                            0.0000  0.0000 -0.0000  0.0000 -0.0000
                                            0.0000  0.0000 -0.0000 -0.0000 -0.0000
                                           -0.0000  0.0000  0.0000 -0.0000 -0.0000
                                           -0.0000 -0.0000 -0.0000 -0.0000
    17. (2.00001) CR ( 9)Br   3           s(  0.00%)p 1.00(100.00%)
                                           -0.0000 -0.0000  0.0000  0.0000  0.0000
                                           -0.0000 -0.0000  0.0000  0.0000  0.0000
                                            0.0000 -0.0000  0.0000  0.0000  0.0000
                                            0.0000 -0.0000 -0.0000  0.0000 -0.0000
                                            1.0000 -0.0001 -0.0000 -0.0000  0.0000
                                           -0.0000  0.0000 -0.0000 -0.0000  0.0000
                                           -0.0000  0.0000  0.0000  0.0000 -0.0000
                                            0.0000  0.0000  0.0000 -0.0000  0.0000
                                            0.0000  0.0000 -0.0000  0.0000 -0.0000
                                            0.0000  0.0000 -0.0000 -0.0000 -0.0000
                                           -0.0000  0.0000  0.0000 -0.0000 -0.0000
                                           -0.0000 -0.0000 -0.0000 -0.0000
    18. (1.99766) CR (10)Br   3           s(  0.00%)p 0.00(  0.00%)d 1.00(100.00%)
                                           -0.0000 -0.0000  0.0000  0.0000  0.0000
                                            0.0000 -0.0000  0.0000  0.0000  0.0000
                                            0.0000  0.0000 -0.0000 -0.0000 -0.0000
                                           -0.0000  0.0000 -0.0000  0.0000 -0.0000
                                           -0.0000 -0.0000  0.0000 -0.0000  0.0000
                                            1.0000  0.0000 -0.0000 -0.0000 -0.0000
                                            0.0000 -0.0000  0.0000 -0.0000 -0.0000
                                           -0.0000 -0.0000  0.0000  0.0000  0.0000
                                           -0.0000  0.0000 -0.0000  0.0000  0.0000
                                           -0.0000 -0.0000 -0.0000 -0.0000 -0.0000
                                           -0.0000  0.0000  0.0000  0.0000  0.0000
                                           -0.0000 -0.0000  0.0000  0.0000
    19. (1.99769) CR (11)Br   3           s(  0.00%)p 0.00(  0.00%)d 1.00(100.00%)
                                           -0.0000 -0.0000  0.0000  0.0000 -0.0000
                                            0.0000  0.0000  0.0000  0.0000  0.0000
                                            0.0000  0.0000 -0.0000 -0.0000 -0.0000
                                           -0.0000  0.0000 -0.0000 -0.0000  0.0000
                                            0.0000  0.0000  0.0000  0.0000 -0.0000
                                           -0.0000  0.0000 -0.0000 -0.0000  1.0000
                                            0.0000 -0.0000  0.0000 -0.0000  0.0000
                                           -0.0000 -0.0000  0.0000  0.0000 -0.0000
                                           -0.0000  0.0000  0.0000 -0.0000  0.0000
                                           -0.0000 -0.0000 -0.0000 -0.0000  0.0000
                                            0.0000 -0.0000 -0.0000  0.0000  0.0000
                                           -0.0000 -0.0000  0.0000  0.0000
    20. (1.99767) CR (12)Br   3           s(  0.00%)p 0.00(  0.00%)d 1.00(100.00%)
                                           -0.0000 -0.0000  0.0000  0.0000 -0.0000
                                            0.0000  0.0000 -0.0000 -0.0000 -0.0000
                                            0.0000 -0.0000 -0.0000 -0.0000 -0.0000
                                           -0.0000  0.0000 -0.0000 -0.0000  0.0000
                                            0.0000  0.0000  0.0000  0.0000 -0.0000
                                           -0.0000 -0.0000  0.0000 -0.0000 -0.0000
                                            0.0000 -0.0000 -0.0000  1.0000  0.0000
                                           -0.0000 -0.0000  0.0000  0.0000  0.0000
                                           -0.0000  0.0000  0.0000 -0.0000  0.0000
                                           -0.0000 -0.0000  0.0000  0.0000  0.0000
                                            0.0000 -0.0000 -0.0000  0.0000  0.0000
                                            0.0000 -0.0000  0.0000 -0.0000
    21. (1.99765) CR (13)Br   3           s(  0.00%)p 0.00(  0.00%)d 1.00(100.00%)
                                            0.0000  0.0000 -0.0000 -0.0000  0.0000
                                           -0.0000 -0.0000  0.0000  0.0000  0.0000
                                            0.0000  0.0000  0.0000  0.0000  0.0000
                                            0.0000 -0.0000  0.0000 -0.0000  0.0000
                                            0.0000  0.0000 -0.0000  0.0000 -0.0000
                                            0.0000  0.0000 -0.0000  0.0000  0.0000
                                            0.0000 -0.0000  0.0000  0.0000  0.0000
                                            0.0000  0.0000  1.0000  0.0000 -0.0000
                                           -0.0000 -0.0000  0.0000 -0.0000 -0.0000
                                            0.0000  0.0000  0.0000 -0.0000  0.0000
                                            0.0000  0.0000  0.0000  0.0000  0.0000
                                           -0.0000 -0.0000  0.0000  0.0000
    22. (1.99767) CR (14)Br   3           s(  0.00%)p 0.00(  0.00%)d 1.00(100.00%)
                                            0.0000  0.0000 -0.0000 -0.0000 -0.0000
                                           -0.0000  0.0000  0.0000  0.0000 -0.0000
                                           -0.0000  0.0000  0.0000  0.0000  0.0000
                                            0.0000 -0.0000  0.0000 -0.0000  0.0000
                                            0.0000  0.0000  0.0000  0.0000 -0.0000
                                            0.0000 -0.0000  0.0000  0.0000  0.0000
                                            0.0000 -0.0000 -0.0000  0.0000  0.0000
                                           -0.0000 -0.0000 -0.0000  0.0000 -0.0000
                                           -0.0000  1.0000  0.0000 -0.0000  0.0000
                                           -0.0000 -0.0000  0.0000  0.0000  0.0000
                                            0.0000 -0.0000 -0.0000  0.0000  0.0000
                                            0.0000  0.0000  0.0000  0.0000
    23. (1.96745) LP ( 1) O   1           s( 61.34%)p 0.63( 38.56%)d 0.00(  0.10%)
                                                  f 0.00(  0.00%)
                                            0.0002  0.7830  0.0121  0.0078 -0.0012
                                           -0.2472 -0.0039 -0.0042 -0.0022  0.5201
                                            0.0077  0.0053  0.0018 -0.2323 -0.0034
                                           -0.0021 -0.0004  0.0208  0.0020 -0.0031
                                           -0.0099 -0.0014  0.0007  0.0139  0.0007
                                           -0.0010  0.0131 -0.0000 -0.0036  0.0066
                                            0.0004  0.0009  0.0027 -0.0003 -0.0003
                                            0.0007 -0.0014  0.0002 -0.0001  0.0005
                                            0.0016 -0.0007  0.0031 -0.0019  0.0034
                                           -0.0015
    24. (1.95340) LP ( 2) O   1           s(  0.02%)p99.99( 99.78%)d11.20(  0.19%)
                                                  f 0.82(  0.01%)
                                           -0.0000  0.0116  0.0055  0.0025 -0.0002
                                           -0.0148 -0.0007 -0.0001 -0.0008  0.3866
                                            0.0078  0.0019  0.0020  0.9207  0.0189
                                            0.0059  0.0063  0.0114  0.0017 -0.0005
                                            0.0277  0.0048 -0.0004 -0.0177  0.0035
                                            0.0090  0.0100 -0.0018 -0.0044  0.0207
                                           -0.0006 -0.0049 -0.0072  0.0007 -0.0006
                                           -0.0003 -0.0064 -0.0001  0.0057 -0.0017
                                            0.0006  0.0009 -0.0004 -0.0006  0.0026
                                           -0.0014
    25. (1.97418) LP ( 1)Cl   2           s( 92.01%)p 0.09(  7.97%)d 0.00(  0.02%)
                                                  f 0.00(  0.00%)
                                            0.0000  0.0003  0.9592  0.0063  0.0012
                                            0.0003  0.0000  0.2808 -0.0059 -0.0028
                                            0.0011  0.0000 -0.0228  0.0016  0.0003
                                           -0.0005 -0.0000  0.0151  0.0004  0.0001
                                            0.0000  0.0002 -0.0003 -0.0004  0.0002
                                            0.0003  0.0003 -0.0005 -0.0002  0.0001
                                           -0.0113  0.0005 -0.0000  0.0075  0.0006
                                            0.0004 -0.0002  0.0001 -0.0021 -0.0004
                                            0.0000  0.0000  0.0001  0.0000  0.0003
                                           -0.0002  0.0032  0.0001 -0.0005  0.0003
    26. (1.95619) LP ( 2)Cl   2           s(  0.01%)p 1.00( 99.94%)d 0.00(  0.04%)
                                                  f 0.00(  0.01%)
                                            0.0000  0.0000  0.0084 -0.0033 -0.0015
                                            0.0009  0.0000  0.0018  0.0001 -0.0004
                                            0.0002  0.0000 -0.2653 -0.0034 -0.0013
                                            0.0000  0.0002 -0.9637 -0.0145 -0.0047
                                            0.0021 -0.0027 -0.0048 -0.0024 -0.0064
                                           -0.0162 -0.0084 -0.0041 -0.0038 -0.0013
                                            0.0008  0.0005  0.0005 -0.0005 -0.0002
                                           -0.0001  0.0049 -0.0005  0.0005 -0.0004
                                            0.0013 -0.0006 -0.0067  0.0012 -0.0007
                                            0.0004  0.0005 -0.0004 -0.0021  0.0004
    27. (1.95500) LP ( 3)Cl   2           s(  0.08%)p99.99( 99.87%)d 0.46(  0.04%)
                                                  f 0.10(  0.01%)
                                            0.0000 -0.0000  0.0277  0.0061  0.0040
                                           -0.0017  0.0000 -0.0025 -0.0002 -0.0002
                                           -0.0008 -0.0002  0.9635  0.0123  0.0016
                                            0.0001  0.0000 -0.2650 -0.0042 -0.0006
                                            0.0002 -0.0016  0.0137  0.0077  0.0016
                                           -0.0033 -0.0021  0.0002 -0.0004 -0.0004
                                           -0.0079 -0.0050 -0.0031 -0.0013 -0.0029
                                           -0.0005  0.0019 -0.0004  0.0003  0.0001
                                           -0.0019 -0.0001 -0.0015 -0.0000 -0.0006
                                            0.0003 -0.0012  0.0002  0.0085 -0.0014
    28. (1.97907) LP ( 1)Br   3           s( 94.62%)p 0.06(  5.37%)d 0.00(  0.00%)
                                                  f 0.00(  0.00%)
                                           -0.0000 -0.0000  0.0001  0.9728 -0.0001
                                            0.0003  0.0003 -0.0000 -0.0000 -0.0543
                                            0.0002 -0.0002 -0.0001 -0.0000 -0.0001
                                           -0.2196  0.0010 -0.0006  0.0001 -0.0000
                                           -0.0000 -0.0507  0.0002 -0.0001  0.0001
                                           -0.0000  0.0002 -0.0001 -0.0001 -0.0000
                                           -0.0001 -0.0000 -0.0001 -0.0000 -0.0003
                                           -0.0002 -0.0001  0.0000 -0.0004  0.0003
                                            0.0002  0.0000 -0.0003  0.0002  0.0002
                                           -0.0001 -0.0001 -0.0001 -0.0000 -0.0003
                                           -0.0001 -0.0001 -0.0002  0.0000  0.0000
                                           -0.0002 -0.0001 -0.0003 -0.0002
    29. (1.95379) LP ( 2)Br   3           s(  0.00%)p 1.00( 99.99%)d 0.00(  0.01%)
                                                  f 0.00(  0.00%)
                                            0.0000  0.0000  0.0000  0.0024  0.0009
                                           -0.0005 -0.0021  0.0000  0.0001  0.4500
                                            0.0008  0.0005  0.0000  0.0000  0.0000
                                            0.1043 -0.0003 -0.0004  0.0002 -0.0000
                                           -0.0001 -0.8868 -0.0015 -0.0012  0.0003
                                           -0.0000  0.0042 -0.0009 -0.0004  0.0000
                                           -0.0002 -0.0002  0.0005  0.0000 -0.0062
                                            0.0012  0.0010 -0.0000 -0.0002  0.0001
                                            0.0002  0.0000 -0.0036  0.0013 -0.0007
                                            0.0012  0.0006 -0.0007 -0.0004 -0.0018
                                           -0.0011  0.0017  0.0008 -0.0003 -0.0001
                                           -0.0013 -0.0006  0.0002  0.0003
    30. (1.95364) LP ( 3)Br   3           s(  0.00%)p 1.00( 99.99%)d 0.00(  0.01%)
                                                  f 0.00(  0.00%)
                                            0.0000 -0.0000 -0.0000  0.0057 -0.0001
                                            0.0002  0.0003  0.0000  0.0001  0.8682
                                            0.0019  0.0011 -0.0002 -0.0000 -0.0000
                                           -0.2834 -0.0003 -0.0002 -0.0001  0.0000
                                            0.0001  0.4073  0.0007  0.0006 -0.0000
                                           -0.0000  0.0073 -0.0016 -0.0005 -0.0000
                                            0.0029 -0.0010  0.0006 -0.0000  0.0023
                                           -0.0005 -0.0004 -0.0000  0.0033 -0.0003
                                           -0.0011 -0.0000  0.0017 -0.0006  0.0004
                                           -0.0006 -0.0004 -0.0004 -0.0002  0.0009
                                            0.0006 -0.0003 -0.0001  0.0014  0.0009
                                           -0.0019 -0.0011  0.0016  0.0008
    31. (1.88322) LP ( 4)Br   3           s(  5.37%)p17.62( 94.58%)d 0.01(  0.05%)
                                                  f 0.00(  0.00%)
                                            0.0000  0.0000  0.0000  0.2317  0.0006
                                           -0.0015 -0.0013  0.0000  0.0000  0.2017
                                           -0.0009 -0.0004  0.0006 -0.0000  0.0000
                                            0.9274 -0.0039 -0.0028  0.0003 -0.0000
                                           -0.0000  0.2120  0.0010 -0.0005  0.0005
                                            0.0000  0.0068 -0.0017  0.0002  0.0000
                                            0.0021 -0.0005  0.0002  0.0000  0.0100
                                           -0.0025  0.0009 -0.0000 -0.0144  0.0029
                                            0.0006 -0.0000 -0.0086  0.0020 -0.0002
                                           -0.0020 -0.0009 -0.0006 -0.0005 -0.0028
                                           -0.0017 -0.0024 -0.0011  0.0011  0.0005
                                           -0.0026 -0.0015 -0.0033 -0.0014
    32. (0.01933) RY*( 1) O   1           s(  0.11%)p99.99( 98.43%)d12.60(  1.41%)
                                                  f 0.49(  0.05%)
                                           -0.0000 -0.0002  0.0333  0.0027  0.0009
                                            0.0022 -0.0144  0.0004 -0.0028 -0.0096
                                            0.3801 -0.0145 -0.0069 -0.0235  0.9149
                                           -0.0383 -0.0088  0.0340  0.0095  0.0022
                                            0.0812  0.0257  0.0097 -0.0452  0.0021
                                            0.0137  0.0231 -0.0016 -0.0059  0.0512
                                            0.0029 -0.0055 -0.0100  0.0086  0.0010
                                            0.0001 -0.0043  0.0047  0.0115 -0.0099
                                           -0.0026  0.0012  0.0021 -0.0008  0.0070
                                           -0.0058
    33. (0.01565) RY*( 2) O   1           s( 29.72%)p 2.28( 67.71%)d 0.08(  2.32%)
                                                  f 0.01(  0.25%)
                                           -0.0000  0.0011  0.5435 -0.0422 -0.0048
                                            0.0388 -0.3510 -0.0032  0.0221 -0.0160
                                            0.6753 -0.0010 -0.0443  0.0046 -0.3053
                                            0.0051  0.0188  0.1236  0.0227  0.0060
                                           -0.0623 -0.0136 -0.0068  0.0373 -0.0015
                                           -0.0088  0.0179  0.0044  0.0024  0.0382
                                            0.0031 -0.0032 -0.0040  0.0002 -0.0091
                                            0.0035 -0.0042  0.0046 -0.0172  0.0080
                                            0.0138 -0.0075  0.0309 -0.0139  0.0216
                                           -0.0108
    34. (0.00779) RY*( 3) O   1           s( 15.50%)p 0.47(  7.35%)d 4.89( 75.75%)
                                                  f 0.09(  1.40%)
                                           -0.0000  0.0157  0.3888 -0.0583  0.0145
                                           -0.0202 -0.1377  0.0063  0.0275 -0.0087
                                           -0.2074  0.0207 -0.0693  0.0002  0.0700
                                           -0.0066  0.0076 -0.8099 -0.0088 -0.0206
                                            0.1621  0.0068  0.0067  0.0038 -0.0044
                                            0.0016  0.1599  0.0097  0.0282  0.2192
                                           -0.0075  0.0051 -0.0066  0.0038 -0.0168
                                            0.0115 -0.0049  0.0057  0.0113 -0.0037
                                           -0.0343  0.0145 -0.0423  0.0131 -0.0919
                                            0.0399
    35. (0.00701) RY*( 4) O   1           s(  0.35%)p 1.08(  0.37%)d99.99( 97.58%)
                                                  f 4.90(  1.70%)
                                            0.0000  0.0034  0.0584 -0.0055 -0.0018
                                           -0.0033 -0.0043  0.0022  0.0044 -0.0044
                                           -0.0140 -0.0042 -0.0033 -0.0157 -0.0560
                                           -0.0083  0.0011  0.1304 -0.0128  0.0009
                                            0.9059 -0.0362  0.0137  0.2821 -0.0162
                                            0.0044 -0.1413  0.0091  0.0006 -0.1911
                                            0.0095 -0.0065 -0.0520  0.0233  0.0114
                                           -0.0048  0.0287 -0.0126  0.0950 -0.0414
                                           -0.0243  0.0103 -0.0063  0.0002  0.0301
                                           -0.0138
    36. (0.00628) RY*( 5) O   1           s(  0.60%)p14.03(  8.44%)d99.99( 89.44%)
                                                  f 2.52(  1.51%)
                                           -0.0000  0.0039  0.0731 -0.0254 -0.0033
                                           -0.0115 -0.1608  0.0019  0.0275 -0.0428
[...]
                                           -0.0517  0.0599 -0.0860
   163. (0.00028) RY*( 9) H   4           s( 19.10%)p 2.70( 51.64%)d 1.53( 29.26%)
                                            0.0013 -0.0272  0.4350  0.0325 -0.0358
                                            0.1927 -0.1621  0.0773 -0.2592 -0.1661
                                            0.0811 -0.5847 -0.0501 -0.2537  0.0121
                                            0.1795 -0.1015  0.1947 -0.1609  0.3108
                                            0.0751  0.0945  0.1031
   164. (0.00026) RY*(10) H   4           s(  2.14%)p 5.88( 12.56%)d39.93( 85.31%)
                                            0.0056  0.0071  0.1346  0.0562  0.0980
                                            0.0211  0.1416 -0.0343 -0.1630  0.0401
                                           -0.0148  0.2516 -0.0510  0.5186  0.0548
                                            0.6754 -0.0545 -0.0390 -0.0300  0.2715
                                           -0.0612  0.1612 -0.1270
   165. (0.00022) RY*(11) H   4           s(  4.14%)p12.82( 53.10%)d10.32( 42.76%)
                                           -0.0188 -0.0767  0.1388 -0.1262  0.0772
                                            0.1902  0.0979  0.0755  0.3818  0.3597
                                            0.0378 -0.4014 -0.1894  0.3012  0.0202
                                            0.0107 -0.0401 -0.0239 -0.1188 -0.4532
                                           -0.0728  0.3307  0.0001
   166. (0.00020) RY*(12) H   4           s(  0.42%)p64.69( 27.00%)d99.99( 72.58%)
                                            0.0140  0.0086 -0.0252  0.0572  0.0424
                                           -0.0245  0.0792 -0.0159 -0.3601 -0.2641
                                            0.0737  0.1929 -0.1379  0.0972 -0.0354
                                           -0.3632  0.0590  0.2150  0.0177 -0.0766
                                            0.0291  0.7251  0.0258
   167. (0.00014) RY*(13) H   4           s( 10.40%)p 3.55( 36.94%)d 5.06( 52.66%)
                                           -0.0036 -0.0006  0.1479  0.2865  0.0036
                                            0.0681 -0.2075 -0.0290  0.0086  0.0968
                                           -0.0091 -0.1528  0.5366 -0.0096 -0.1109
                                           -0.0180  0.1513 -0.3307  0.4876  0.0251
                                           -0.1622  0.2674 -0.2133
   168. (0.00014) RY*(14) H   4           s(  6.42%)p 0.97(  6.22%)d13.60( 87.35%)
                                           -0.0027 -0.0300  0.2453 -0.0561  0.0341
                                           -0.0736  0.1408  0.0109  0.0872  0.1384
                                            0.0012 -0.0871  0.0369  0.4324  0.0216
                                           -0.5639  0.0732  0.0801 -0.0867  0.5188
                                           -0.1104 -0.1837 -0.1841
   169. (0.00011) RY*(15) H   4           s( 57.50%)p 0.11(  6.07%)d 0.63( 36.44%)
                                            0.0019  0.0135  0.3365  0.6794  0.0367
                                            0.1022  0.0611  0.0032 -0.0461 -0.1644
                                           -0.0399  0.0706 -0.0970  0.2461 -0.0432
                                           -0.1010 -0.0097  0.0473  0.0353 -0.3356
                                            0.2188 -0.3134  0.1714
   170. (0.00010) RY*(16) H   4           s(  1.26%)p33.90( 42.88%)d44.16( 55.85%)
                                            0.0011  0.0012  0.1123 -0.0051 -0.0285
                                           -0.1122  0.6053 -0.0136  0.0685 -0.0972
                                            0.0126 -0.0845  0.1657 -0.1845  0.6394
                                            0.0047 -0.0993 -0.0754  0.1736 -0.0188
                                            0.2358  0.0637 -0.0995
   171. (0.00006) RY*(17) H   4           s(  0.01%)p99.99(  1.90%)d99.99( 98.09%)
   172. (0.00006) RY*(18) H   4           s( 26.71%)p 0.59( 15.82%)d 2.15( 57.47%)
   173. (0.00005) RY*(19) H   4           s( 16.77%)p 1.02( 17.07%)d 3.95( 66.17%)
   174. (0.00005) RY*(20) H   4           s(  1.29%)p18.39( 23.78%)d57.96( 74.93%)
   175. (0.00004) RY*(21) H   4           s( 11.20%)p 1.98( 22.23%)d 5.94( 66.57%)
   176. (0.00004) RY*(22) H   4           s(  5.07%)p 8.46( 42.88%)d10.27( 52.05%)
   177. (0.05895) BD*( 1) O   1 -Cl   2  
                ( 41.08%)   0.6409* O   1 s(  9.93%)p 9.02( 89.55%)d 0.05(  0.51%)
                                                  f 0.00(  0.02%)
                                           -0.0003 -0.3123  0.0388  0.0139  0.0009
                                           -0.9451  0.0263  0.0098  0.0101  0.0119
                                            0.0275  0.0049  0.0001 -0.0166 -0.0109
                                           -0.0019  0.0002  0.0211  0.0014 -0.0024
                                           -0.0105 -0.0014  0.0002  0.0081  0.0009
                                           -0.0009 -0.0530 -0.0047 -0.0020  0.0402
                                            0.0037 -0.0001  0.0000 -0.0000  0.0103
                                           -0.0009  0.0002  0.0001 -0.0003  0.0008
                                            0.0043 -0.0012 -0.0062 -0.0004  0.0005
                                           -0.0019
                ( 58.92%)  -0.7676*Cl   2 s(  8.16%)p11.10( 90.60%)d 0.14(  1.13%)
                                                  f 0.01(  0.11%)
                                            0.0000 -0.0005 -0.2801  0.0551  0.0103
                                            0.0023  0.0004  0.9495 -0.0643 -0.0140
                                            0.0044  0.0000  0.0085  0.0019 -0.0020
                                            0.0007 -0.0000 -0.0033 -0.0001  0.0013
                                           -0.0005 -0.0106  0.0002 -0.0007  0.0071
                                            0.0009  0.0004  0.0033 -0.0000 -0.0008
                                           -0.0890  0.0104  0.0004  0.0552 -0.0056
                                           -0.0006  0.0005 -0.0001 -0.0206  0.0032
                                           -0.0003  0.0002 -0.0004 -0.0001 -0.0011
                                            0.0009  0.0254 -0.0031  0.0011 -0.0003
   178. (0.08538) BD*( 1) O   1 - H   4  
                ( 21.40%)   0.4626* O   1 s( 28.84%)p 2.45( 70.65%)d 0.02(  0.50%)
                                                  f 0.00(  0.01%)
                                            0.0003  0.5369 -0.0083 -0.0080  0.0018
                                           -0.1904  0.0182  0.0029  0.0025 -0.7579
                                            0.0102  0.0067  0.0034  0.3087 -0.0028
                                           -0.0029 -0.0028 -0.0020 -0.0029 -0.0002
                                            0.0007  0.0013  0.0004 -0.0436 -0.0027
                                            0.0006 -0.0509 -0.0044 -0.0023 -0.0222
                                           -0.0002  0.0022 -0.0067 -0.0001  0.0011
                                            0.0002  0.0042 -0.0001 -0.0039 -0.0013
                                            0.0014  0.0013  0.0012  0.0021 -0.0011
                                            0.0023
                ( 78.60%)  -0.8866* H   4 s( 99.83%)p 0.00(  0.16%)d 0.00(  0.00%)
                                            0.9985  0.0358  0.0015 -0.0004  0.0118
                                            0.0074 -0.0018 -0.0111  0.0289  0.0091
                                            0.0163 -0.0117 -0.0016 -0.0003 -0.0021
                                            0.0010  0.0010  0.0005  0.0002 -0.0015
                                            0.0002 -0.0012 -0.0022


 NHO Directionality and "Bond Bending" (deviations from line of nuclear centers)

         [Thresholds for printing:  angular deviation  >  1.0 degree]
                                    hybrid p-character > 25.0%
                                    orbital occupancy  >  0.10e

                                Line of Centers        Hybrid 1              Hybrid 2
                                ---------------  -------------------   ------------------
                NBO               Theta   Phi    Theta   Phi    Dev    Theta   Phi    Dev
 ========================================================================================
     1. BD (   1) O   1 -Cl   2    90.0    0.0    88.1  357.2   3.4      --     --    --
     2. BD (   1) O   1 - H   4    70.0  257.5    68.3  257.3   1.7      --     --    --
    23. LP (   1) O   1             --     --    111.9  115.7   --       --     --    --
    24. LP (   2) O   1             --     --     22.7   92.3   --       --     --    --
    26. LP (   2)Cl   2             --     --    164.6  270.4   --       --     --    --
    27. LP (   3)Cl   2             --     --    105.4   90.2   --       --     --    --
    29. LP (   2)Br   3             --     --    152.5   12.9   --       --     --    --
    30. LP (   3)Br   3             --     --     66.0  341.9   --       --     --    --
    31. LP (   4)Br   3             --     --     77.3   77.7   --       --     --    --


 Natural Bond Orbitals (Summary):

           NBO                  Occupancy  
 -----------------------------------------------
 Molecular unit  1  (HOCl)
     1. BD (   1) O   1 -Cl   2          1.93872
     2. BD (   1) O   1 - H   4          1.96613
     3. CR (   1) O   1                  1.99968
     4. CR (   1)Cl   2                  2.00000
     5. CR (   2)Cl   2                  1.99981
     6. CR (   3)Cl   2                  1.99996
     7. CR (   4)Cl   2                  2.00003
     8. CR (   5)Cl   2                  2.00003
    23. LP (   1) O   1                  1.96745
    24. LP (   2) O   1                  1.95340
    25. LP (   1)Cl   2                  1.97418
    26. LP (   2)Cl   2                  1.95619
    27. LP (   3)Cl   2                  1.95500
    32. RY*(   1) O   1                  0.01933
    33. RY*(   2) O   1                  0.01565
    34. RY*(   3) O   1                  0.00779
    35. RY*(   4) O   1                  0.00701
    36. RY*(   5) O   1                  0.00628
    37. RY*(   6) O   1                  0.00603
    38. RY*(   7) O   1                  0.00569
    39. RY*(   8) O   1                  0.00295
    40. RY*(   9) O   1                  0.00253
    41. RY*(  10) O   1                  0.00080
    42. RY*(  11) O   1                  0.00065
    43. RY*(  12) O   1                  0.00060
    44. RY*(  13) O   1                  0.00058
    45. RY*(  14) O   1                  0.00050
    46. RY*(  15) O   1                  0.00050
    47. RY*(  16) O   1                  0.00048
    48. RY*(  17) O   1                  0.00047
    49. RY*(  18) O   1                  0.00045
    50. RY*(  19) O   1                  0.00045
    51. RY*(  20) O   1                  0.00044
    52. RY*(  21) O   1                  0.00044
    53. RY*(  22) O   1                  0.00041
    54. RY*(  23) O   1                  0.00034
    55. RY*(  24) O   1                  0.00029
    56. RY*(  25) O   1                  0.00024
    57. RY*(  26) O   1                  0.00021
    58. RY*(  27) O   1                  0.00014
    59. RY*(  28) O   1                  0.00013
    60. RY*(  29) O   1                  0.00012
    61. RY*(  30) O   1                  0.00009
    62. RY*(  31) O   1                  0.00008
    63. RY*(  32) O   1                  0.00008
    64. RY*(  33) O   1                  0.00008
    65. RY*(  34) O   1                  0.00008
    66. RY*(  35) O   1                  0.00008
    67. RY*(  36) O   1                  0.00006
    68. RY*(  37) O   1                  0.00005
    69. RY*(  38) O   1                  0.00005
    70. RY*(  39) O   1                  0.00005
    71. RY*(  40) O   1                  0.00002
    72. RY*(  41) O   1                  0.00002
    73. RY*(   1)Cl   2                  0.02205
    74. RY*(   2)Cl   2                  0.01728
    75. RY*(   3)Cl   2                  0.01677
    76. RY*(   4)Cl   2                  0.01640
    77. RY*(   5)Cl   2                  0.01161
    78. RY*(   6)Cl   2                  0.00921
    79. RY*(   7)Cl   2                  0.00901
    80. RY*(   8)Cl   2                  0.00626
    81. RY*(   9)Cl   2                  0.00167
    82. RY*(  10)Cl   2                  0.00126
    83. RY*(  11)Cl   2                  0.00126
    84. RY*(  12)Cl   2                  0.00119
    85. RY*(  13)Cl   2                  0.00119
    86. RY*(  14)Cl   2                  0.00116
    87. RY*(  15)Cl   2                  0.00110
    88. RY*(  16)Cl   2                  0.00094
    89. RY*(  17)Cl   2                  0.00076
    90. RY*(  18)Cl   2                  0.00075
    91. RY*(  19)Cl   2                  0.00063
    92. RY*(  20)Cl   2                  0.00054
    93. RY*(  21)Cl   2                  0.00042
    94. RY*(  22)Cl   2                  0.00037
    95. RY*(  23)Cl   2                  0.00034
    96. RY*(  24)Cl   2                  0.00031
    97. RY*(  25)Cl   2                  0.00019
    98. RY*(  26)Cl   2                  0.00016
    99. RY*(  27)Cl   2                  0.00014
   100. RY*(  28)Cl   2                  0.00012
   101. RY*(  29)Cl   2                  0.00012
   102. RY*(  30)Cl   2                  0.00013
   103. RY*(  31)Cl   2                  0.00011
   104. RY*(  32)Cl   2                  0.00010
   105. RY*(  33)Cl   2                  0.00010
   106. RY*(  34)Cl   2                  0.00009
   107. RY*(  35)Cl   2                  0.00010
   108. RY*(  36)Cl   2                  0.00009
   109. RY*(  37)Cl   2                  0.00007
   110. RY*(  38)Cl   2                  0.00005
   111. RY*(  39)Cl   2                  0.00003
   112. RY*(  40)Cl   2                  0.00003
   113. RY*(  41)Cl   2                  0.00001
   155. RY*(   1) H   4                  0.01004
   156. RY*(   2) H   4                  0.00535
   157. RY*(   3) H   4                  0.00439
   158. RY*(   4) H   4                  0.00331
   159. RY*(   5) H   4                  0.00054
   160. RY*(   6) H   4                  0.00050
   161. RY*(   7) H   4                  0.00044
   162. RY*(   8) H   4                  0.00033
   163. RY*(   9) H   4                  0.00028
   164. RY*(  10) H   4                  0.00026
   165. RY*(  11) H   4                  0.00022
   166. RY*(  12) H   4                  0.00020
   167. RY*(  13) H   4                  0.00014
   168. RY*(  14) H   4                  0.00014
   169. RY*(  15) H   4                  0.00011
   170. RY*(  16) H   4                  0.00010
   171. RY*(  17) H   4                  0.00006
   172. RY*(  18) H   4                  0.00006
   173. RY*(  19) H   4                  0.00005
   174. RY*(  20) H   4                  0.00005
   175. RY*(  21) H   4                  0.00004
   176. RY*(  22) H   4                  0.00004
   177. BD*(   1) O   1 -Cl   2          0.05895
   178. BD*(   1) O   1 - H   4          0.08538
       -------------------------------
              Total Lewis   25.71058  ( 98.5534%)
        Valence non-Lewis    0.14433  (  0.5533%)
        Rydberg non-Lewis    0.23305  (  0.8933%)
       -------------------------------
            Total unit  1   26.08797  (100.0000%)
           Charge unit  1   -0.08797

 Molecular unit  2  (Br)
     9. CR (   1)Br   3                  2.00000
    10. CR (   2)Br   3                  2.00000
    11. CR (   3)Br   3                  1.99994
    12. CR (   4)Br   3                  2.00000
    13. CR (   5)Br   3                  2.00001
    14. CR (   6)Br   3                  2.00000
    15. CR (   7)Br   3                  1.99997
    16. CR (   8)Br   3                  2.00000
    17. CR (   9)Br   3                  2.00001
    18. CR (  10)Br   3                  1.99766
    19. CR (  11)Br   3                  1.99769
    20. CR (  12)Br   3                  1.99767
    21. CR (  13)Br   3                  1.99765
    22. CR (  14)Br   3                  1.99767
    28. LP (   1)Br   3                  1.97907
    29. LP (   2)Br   3                  1.95379
    30. LP (   3)Br   3                  1.95364
    31. LP (   4)Br   3                  1.88322
   114. RY*(   1)Br   3                  0.01886
   115. RY*(   2)Br   3                  0.01881
   116. RY*(   3)Br   3                  0.01868
   117. RY*(   4)Br   3                  0.01867
   118. RY*(   5)Br   3                  0.01801
   119. RY*(   6)Br   3                  0.01148
   120. RY*(   7)Br   3                  0.01142
   121. RY*(   8)Br   3                  0.00964
   122. RY*(   9)Br   3                  0.00262
   123. RY*(  10)Br   3                  0.00180
   124. RY*(  11)Br   3                  0.00180
   125. RY*(  12)Br   3                  0.00175
   126. RY*(  13)Br   3                  0.00175
   127. RY*(  14)Br   3                  0.00175
   128. RY*(  15)Br   3                  0.00175
   129. RY*(  16)Br   3                  0.00175
   130. RY*(  17)Br   3                  0.00176
   131. RY*(  18)Br   3                  0.00175
   132. RY*(  19)Br   3                  0.00145
   133. RY*(  20)Br   3                  0.00145
   134. RY*(  21)Br   3                  0.00127
   135. RY*(  22)Br   3                  0.00080
   136. RY*(  23)Br   3                  0.00080
   137. RY*(  24)Br   3                  0.00075
   138. RY*(  25)Br   3                  0.00043
   139. RY*(  26)Br   3                  0.00028
   140. RY*(  27)Br   3                  0.00025
   141. RY*(  28)Br   3                  0.00025
   142. RY*(  29)Br   3                  0.00026
   143. RY*(  30)Br   3                  0.00024
   144. RY*(  31)Br   3                  0.00025
   145. RY*(  32)Br   3                  0.00024
   146. RY*(  33)Br   3                  0.00022
   147. RY*(  34)Br   3                  0.00022
   148. RY*(  35)Br   3                  0.00019
   149. RY*(  36)Br   3                  0.00016
   150. RY*(  37)Br   3                  0.00014
   151. RY*(  38)Br   3                  0.00012
   152. RY*(  39)Br   3                  0.00007
   153. RY*(  40)Br   3                  0.00007
   154. RY*(  41)Br   3                  0.00004
       -------------------------------
              Total Lewis   35.75799  ( 99.5710%)
        Valence non-Lewis    0.00000  (  0.0000%)
        Rydberg non-Lewis    0.15405  (  0.4290%)
       -------------------------------
            Total unit  2   35.91203  (100.0000%)
           Charge unit  2   -0.91203
 Leave Link  607 at Fri Nov  5 16:36:31 2021, MaxMem= 16106127360 cpu:              77.5 elap:               2.8
 (Enter /sw/contrib/gaussian/g16/B01/g16/l9999.exe)
 1\1\GINC-N2219\SP\RMP2-FC\Aug-CC-pVTZ\Br1Cl1H1O1(1-)\CGAVINH\05-Nov-20
 21\0\\#p pop=NBO SP NoSymm mp2/aug-cc-pvtz density=current\\title\\-1,
 1\O\X,1,10.\Cl,1,1.69720154,2,90.\Br,1,3.09318778,2,90.,3,102.48429983
 ,0\H,1,0.96862334,2,70.,3,102.48429983,0\\Version=ES64L-G16RevB.01\HF=
 -3107.4760933\MP2=-3108.1770414\RMSD=7.392e-09\Dipole=0.9093982,1.0679
 951,0.1074204\Quadrupole=8.1097715,-17.7732849,9.6635134,-6.3599135,-0
 .0972561,-0.0531737\PG=C01 [X(Br1Cl1H1O1)]\\@


 IT CANNOT BE MY BEAUTY, FOR I HAVE NONE; AND IT CANNOT BE MY WIT,
 FOR HE HAS NOT ENOUGH TO KNOW THAT I HAVE ANY.
 -- CATHARINE SEDLEY, PUZZLED ABOUT WHY SHE WAS MISTRESS TO JAMES II
 Job cpu time:       0 days  0 hours  6 minutes  2.8 seconds.
 Elapsed time:       0 days  0 hours  0 minutes 19.0 seconds.
 File lengths (MBytes):  RWF=     15 Int=      0 D2E=      0 Chk=      8 Scr=      1
 Normal termination of Gaussian 16 at Fri Nov  5 16:36:32 2021.
