 Entering Gaussian System, Link 0=g16
 Input=brhocl_oop_35_sp.gjf
 Output=brhocl_oop_35_sp.log
 Initial command:
 /sw/contrib/gaussian/g16/B01/g16/l1.exe "/scr/Gau-18627.inp" -scrdir="/scr/"
 Entering Link 1 = /sw/contrib/gaussian/g16/B01/g16/l1.exe PID=     18628.
  
 Copyright (c) 1988-2017, Gaussian, Inc.  All Rights Reserved.
  
 This is part of the Gaussian(R) 16 program.  It is based on
 the Gaussian(R) 09 system (copyright 2009, Gaussian, Inc.),
 the Gaussian(R) 03 system (copyright 2003, Gaussian, Inc.),
 the Gaussian(R) 98 system (copyright 1998, Gaussian, Inc.),
 the Gaussian(R) 94 system (copyright 1995, Gaussian, Inc.),
 the Gaussian 92(TM) system (copyright 1992, Gaussian, Inc.),
 the Gaussian 90(TM) system (copyright 1990, Gaussian, Inc.),
 the Gaussian 88(TM) system (copyright 1988, Gaussian, Inc.),
 the Gaussian 86(TM) system (copyright 1986, Carnegie Mellon
 University), and the Gaussian 82(TM) system (copyright 1983,
 Carnegie Mellon University). Gaussian is a federally registered
 trademark of Gaussian, Inc.
  
 This software contains proprietary and confidential information,
 including trade secrets, belonging to Gaussian, Inc.
  
 This software is provided under written license and may be
 used, copied, transmitted, or stored only in accord with that
 written license.
  
 The following legend is applicable only to US Government
 contracts under FAR:
  
                    RESTRICTED RIGHTS LEGEND
  
 Use, reproduction and disclosure by the US Government is
 subject to restrictions as set forth in subparagraphs (a)
 and (c) of the Commercial Computer Software - Restricted
 Rights clause in FAR 52.227-19.
  
 Gaussian, Inc.
 340 Quinnipiac St., Bldg. 40, Wallingford CT 06492
  
  
 ---------------------------------------------------------------
 Warning -- This program may not be used in any manner that
 competes with the business of Gaussian, Inc. or will provide
 assistance to any competitor of Gaussian, Inc.  The licensee
 of this program is prohibited from giving any competitor of
 Gaussian, Inc. access to this program.  By using this program,
 the user acknowledges that Gaussian, Inc. is engaged in the
 business of creating and licensing software in the field of
 computational chemistry and represents and warrants to the
 licensee that it is not a competitor of Gaussian, Inc. and that
 it will not use this program in any manner prohibited above.
 ---------------------------------------------------------------
  

 Cite this work as:
 Gaussian 16, Revision B.01,
 M. J. Frisch, G. W. Trucks, H. B. Schlegel, G. E. Scuseria, 
 M. A. Robb, J. R. Cheeseman, G. Scalmani, V. Barone, 
 G. A. Petersson, H. Nakatsuji, X. Li, M. Caricato, A. V. Marenich, 
 J. Bloino, B. G. Janesko, R. Gomperts, B. Mennucci, H. P. Hratchian, 
 J. V. Ortiz, A. F. Izmaylov, J. L. Sonnenberg, D. Williams-Young, 
 F. Ding, F. Lipparini, F. Egidi, J. Goings, B. Peng, A. Petrone, 
 T. Henderson, D. Ranasinghe, V. G. Zakrzewski, J. Gao, N. Rega, 
 G. Zheng, W. Liang, M. Hada, M. Ehara, K. Toyota, R. Fukuda, 
 J. Hasegawa, M. Ishida, T. Nakajima, Y. Honda, O. Kitao, H. Nakai, 
 T. Vreven, K. Throssell, J. A. Montgomery, Jr., J. E. Peralta, 
 F. Ogliaro, M. J. Bearpark, J. J. Heyd, E. N. Brothers, K. N. Kudin, 
 V. N. Staroverov, T. A. Keith, R. Kobayashi, J. Normand, 
 K. Raghavachari, A. P. Rendell, J. C. Burant, S. S. Iyengar, 
 J. Tomasi, M. Cossi, J. M. Millam, M. Klene, C. Adamo, R. Cammi, 
 J. W. Ochterski, R. L. Martin, K. Morokuma, O. Farkas, 
 J. B. Foresman, and D. J. Fox, Gaussian, Inc., Wallingford CT, 2016.
 
 ******************************************
 Gaussian 16:  ES64L-G16RevB.01 20-Dec-2017
                 5-Nov-2021 
 ******************************************
 %nproc=28
 Will use up to   28 processors via shared memory.
 %mem=120GB
 %chk=/gscratch/ilahie/mccoygrp/coire_hocl/oop_s_rOH_f/brhocl/brhocl_oop_0_sp.chk
 ----------------------------------------------------
 #p pop=NBO SP NoSymm mp2/aug-cc-pvtz density=current
 ----------------------------------------------------
 1/30=1,38=1,172=1/1;
 2/12=2,15=1,17=6,18=5,40=1/2;
 3/5=16,6=1,7=10,11=9,25=1,30=1,71=1/1,2,3;
 4//1;
 5/5=2,38=5/2;
 8/6=4,10=1/1;
 9/15=1,16=-3/6;
 10/5=1,13=10,31=1/2;
 6/7=2,8=2,9=2,10=2,22=-1,40=1/1,7;
 99/5=1,9=1/99;
 Leave Link    1 at Fri Nov  5 16:37:10 2021, MaxMem= 16106127360 cpu:               0.8 elap:               0.0
 (Enter /sw/contrib/gaussian/g16/B01/g16/l101.exe)
 -----
 title
 -----
 Symbolic Z-matrix:
 Charge = -1 Multiplicity = 1
 O
 X                    1     10. 
 Cl                   1    r1       2     90. 
 Br                   1    r2       2     90.      3    a1       0
 H                    1    r3       2    oop      3    a1       0
       Variables:
  r1                    1.69735                  
  r2                    3.09319                  
  r3                    0.96862                  
  a1                  102.4843                   
  OOP                  55.                       
 
 ITRead=  0  0  0  0
 MicOpt= -1 -1 -1 -1
 NAtoms=      4 NQM=        4 NQMF=       0 NMMI=      0 NMMIF=      0
                NMic=       0 NMicF=      0.
                    Isotopes and Nuclear Properties:
 (Nuclear quadrupole moments (NQMom) in fm**2, nuclear magnetic moments (NMagM)
  in nuclear magnetons)

  Atom         1           2           3           4
 IAtWgt=          16          35          79           1
 AtmWgt=  15.9949146  34.9688527  78.9183361   1.0078250
 NucSpn=           0           3           3           1
 AtZEff=  -0.0000000  -0.0000000  -0.0000000  -0.0000000
 NQMom=    0.0000000  -8.1650000  31.3000000   0.0000000
 NMagM=    0.0000000   0.8218740   2.1063990   2.7928460
 AtZNuc=   8.0000000  17.0000000  35.0000000   1.0000000
 Leave Link  101 at Fri Nov  5 16:37:10 2021, MaxMem= 16106127360 cpu:               2.3 elap:               0.1
 (Enter /sw/contrib/gaussian/g16/B01/g16/l202.exe)
                          Input orientation:                          
 ---------------------------------------------------------------------
 Center     Atomic      Atomic             Coordinates (Angstroms)
 Number     Number       Type             X           Y           Z
 ---------------------------------------------------------------------
      1          8           0        0.000000    0.000000    0.000000
      2         17           0        1.697352    0.000000    0.000000
      3         35           0       -0.668661   -3.020050    0.000000
      4          1           0       -0.171522   -0.774689    0.555580
 ---------------------------------------------------------------------
                    Distance matrix (angstroms):
                    1          2          3          4
     1  O    0.000000
     2  Cl   1.697352   0.000000
     3  Br   3.093188   3.836498   0.000000
     4  H    0.968623   2.097975   2.365896   0.000000
 Symmetry turned off by external request.
 Stoichiometry    BrClHO(1-)
 Framework group  C1[X(BrClHO)]
 Deg. of freedom     6
 Full point group                 C1      NOp   1
 Rotational constants (GHZ):          21.5275697           1.2747988           1.2052530
 Leave Link  202 at Fri Nov  5 16:37:10 2021, MaxMem= 16106127360 cpu:               0.9 elap:               0.1
 (Enter /sw/contrib/gaussian/g16/B01/g16/l301.exe)
 Standard basis: Aug-CC-pVTZ (5D, 7F)
 Ernie: Thresh=  0.10000D-02 Tol=  0.10000D-05 Strict=F.
 Ernie:  48 primitive shells out of 228 were deleted.
   178 basis functions,   430 primitive gaussians,   208 cartesian basis functions
    31 alpha electrons       31 beta electrons
       nuclear repulsion energy       188.8588089302 Hartrees.
 IExCor=    0 DFT=F Ex=HF Corr=None ExCW=0 ScaHFX=  1.000000
 ScaDFX=  1.000000  1.000000  1.000000  1.000000 ScalE2=  1.000000  1.000000
 IRadAn=      5 IRanWt=     -1 IRanGd=            0 ICorTp=0 IEmpDi=  4
 NAtoms=    4 NActive=    4 NUniq=    4 SFac= 1.00D+00 NAtFMM=   60 NAOKFM=F Big=F
 Integral buffers will be    131072 words long.
 Raffenetti 1 integral format.
 Two-electron integral symmetry is turned off.
 Leave Link  301 at Fri Nov  5 16:37:10 2021, MaxMem= 16106127360 cpu:               1.5 elap:               0.1
 (Enter /sw/contrib/gaussian/g16/B01/g16/l302.exe)
 NPDir=0 NMtPBC=     1 NCelOv=     1 NCel=       1 NClECP=     1 NCelD=      1
         NCelK=      1 NCelE2=     1 NClLst=     1 CellRange=     0.0.
 One-electron integrals computed using PRISM.
 NBasis=   178 RedAO= T EigKep=  2.80D-04  NBF=   178
 NBsUse=   178 1.00D-06 EigRej= -1.00D+00 NBFU=   178
 Leave Link  302 at Fri Nov  5 16:37:10 2021, MaxMem= 16106127360 cpu:               4.6 elap:               0.2
 (Enter /sw/contrib/gaussian/g16/B01/g16/l303.exe)
 DipDrv:  MaxL=1.
 Leave Link  303 at Fri Nov  5 16:37:10 2021, MaxMem= 16106127360 cpu:               1.3 elap:               0.1
 (Enter /sw/contrib/gaussian/g16/B01/g16/l401.exe)
 ExpMin= 2.53D-02 ExpMax= 1.06D+07 ExpMxC= 1.21D+04 IAcc=3 IRadAn=         5 AccDes= 0.00D+00
 Harris functional with IExCor=  205 and IRadAn=       5 diagonalized for initial guess.
 HarFok:  IExCor=  205 AccDes= 0.00D+00 IRadAn=         5 IDoV= 1 UseB2=F ITyADJ=14
 ICtDFT=  3500011 ScaDFX=  1.000000  1.000000  1.000000  1.000000
 FoFCou: FMM=F IPFlag=           0 FMFlag=      100000 FMFlg1=           0
         NFxFlg=           0 DoJE=T BraDBF=F KetDBF=T FulRan=T
         wScrn=  0.000000 ICntrl=       500 IOpCl=  0 I1Cent=   200000004 NGrid=           0
         NMat0=    1 NMatS0=      1 NMatT0=    0 NMatD0=    1 NMtDS0=    0 NMtDT0=    0
 Symmetry not used in FoFCou.
 Harris En= -3106.39117011365    
 JPrj=0 DoOrth=F DoCkMO=F.
 Leave Link  401 at Fri Nov  5 16:37:11 2021, MaxMem= 16106127360 cpu:               8.6 elap:               0.4
 (Enter /sw/contrib/gaussian/g16/B01/g16/l502.exe)
 Keep R1 ints in memory in canonical form, NReq=149454514.
 FoFCou: FMM=F IPFlag=           0 FMFlag=           0 FMFlg1=           0
         NFxFlg=           0 DoJE=F BraDBF=F KetDBF=F FulRan=T
         wScrn=  0.000000 ICntrl=       600 IOpCl=  0 I1Cent=           0 NGrid=           0
         NMat0=    1 NMatS0=  15931 NMatT0=    0 NMatD0=    1 NMtDS0=    0 NMtDT0=    0
 Symmetry not used in FoFCou.
 Two-electron integral symmetry not used.
 Closed shell SCF:
 Using DIIS extrapolation, IDIIS=  1040.
 NGot= 16106127360 LenX= 15979127348 LenY= 15979083643
 Requested convergence on RMS density matrix=1.00D-08 within 128 cycles.
 Requested convergence on MAX density matrix=1.00D-06.
 Requested convergence on             energy=1.00D-06.
 No special actions if energy rises.

 Cycle   1  Pass 1  IDiag  1:
 E= -3107.30000165145    
 DIIS: error= 5.00D-02 at cycle   1 NSaved=   1.
 NSaved= 1 IEnMin= 1 EnMin= -3107.30000165145     IErMin= 1 ErrMin= 5.00D-02
 ErrMax= 5.00D-02  0.00D+00 EMaxC= 1.00D-01 BMatC= 6.22D-01 BMatP= 6.22D-01
 IDIUse=3 WtCom= 5.00D-01 WtEn= 5.00D-01
 Coeff-Com:  0.100D+01
 Coeff-En:   0.100D+01
 Coeff:      0.100D+01
 Gap=     0.556 Goal=   None    Shift=    0.000
 GapD=    0.556 DampG=2.000 DampE=0.500 DampFc=1.0000 IDamp=-1.
 RMSDP=2.76D-03 MaxDP=9.14D-02              OVMax= 1.21D-01

 Cycle   2  Pass 1  IDiag  1:
 E= -3107.44046109962     Delta-E=       -0.140459448170 Rises=F Damp=F
 DIIS: error= 1.07D-02 at cycle   2 NSaved=   2.
 NSaved= 2 IEnMin= 2 EnMin= -3107.44046109962     IErMin= 2 ErrMin= 1.07D-02
 ErrMax= 1.07D-02  0.00D+00 EMaxC= 1.00D-01 BMatC= 4.44D-02 BMatP= 6.22D-01
 IDIUse=3 WtCom= 8.93D-01 WtEn= 1.07D-01
 Coeff-Com:  0.138D+00 0.862D+00
 Coeff-En:   0.000D+00 0.100D+01
 Coeff:      0.123D+00 0.877D+00
 Gap=     0.315 Goal=   None    Shift=    0.000
 RMSDP=9.90D-04 MaxDP=3.96D-02 DE=-1.40D-01 OVMax= 7.57D-02

 Cycle   3  Pass 1  IDiag  1:
 E= -3107.46048737843     Delta-E=       -0.020026278808 Rises=F Damp=F
 DIIS: error= 6.45D-03 at cycle   3 NSaved=   3.
 NSaved= 3 IEnMin= 3 EnMin= -3107.46048737843     IErMin= 3 ErrMin= 6.45D-03
 ErrMax= 6.45D-03  0.00D+00 EMaxC= 1.00D-01 BMatC= 1.33D-02 BMatP= 4.44D-02
 IDIUse=3 WtCom= 9.36D-01 WtEn= 6.45D-02
 Coeff-Com:  0.704D-02 0.351D+00 0.642D+00
 Coeff-En:   0.000D+00 0.154D+00 0.846D+00
 Coeff:      0.658D-02 0.338D+00 0.655D+00
 Gap=     0.314 Goal=   None    Shift=    0.000
 RMSDP=3.35D-04 MaxDP=1.38D-02 DE=-2.00D-02 OVMax= 3.55D-02

 Cycle   4  Pass 1  IDiag  1:
 E= -3107.46960550565     Delta-E=       -0.009118127222 Rises=F Damp=F
 DIIS: error= 5.96D-04 at cycle   4 NSaved=   4.
 NSaved= 4 IEnMin= 4 EnMin= -3107.46960550565     IErMin= 4 ErrMin= 5.96D-04
 ErrMax= 5.96D-04  0.00D+00 EMaxC= 1.00D-01 BMatC= 1.45D-04 BMatP= 1.33D-02
 IDIUse=3 WtCom= 9.94D-01 WtEn= 5.96D-03
 Coeff-Com: -0.498D-02-0.326D-01 0.318D-01 0.101D+01
 Coeff-En:   0.000D+00 0.000D+00 0.000D+00 0.100D+01
 Coeff:     -0.495D-02-0.325D-01 0.316D-01 0.101D+01
 Gap=     0.312 Goal=   None    Shift=    0.000
 RMSDP=5.89D-05 MaxDP=1.25D-03 DE=-9.12D-03 OVMax= 3.76D-03

 Cycle   5  Pass 1  IDiag  1:
 E= -3107.46978574613     Delta-E=       -0.000180240480 Rises=F Damp=F
 DIIS: error= 1.63D-04 at cycle   5 NSaved=   5.
 NSaved= 5 IEnMin= 5 EnMin= -3107.46978574613     IErMin= 5 ErrMin= 1.63D-04
 ErrMax= 1.63D-04  0.00D+00 EMaxC= 1.00D-01 BMatC= 1.16D-05 BMatP= 1.45D-04
 IDIUse=3 WtCom= 9.98D-01 WtEn= 1.63D-03
 Coeff-Com:  0.693D-03-0.143D-01-0.320D-01-0.187D+00 0.123D+01
 Coeff-En:   0.000D+00 0.000D+00 0.000D+00 0.000D+00 0.100D+01
 Coeff:      0.692D-03-0.143D-01-0.320D-01-0.186D+00 0.123D+01
 Gap=     0.313 Goal=   None    Shift=    0.000
 RMSDP=3.02D-05 MaxDP=1.02D-03 DE=-1.80D-04 OVMax= 2.78D-03

 Cycle   6  Pass 1  IDiag  1:
 E= -3107.46981773539     Delta-E=       -0.000031989262 Rises=F Damp=F
 DIIS: error= 7.67D-05 at cycle   6 NSaved=   6.
 NSaved= 6 IEnMin= 6 EnMin= -3107.46981773539     IErMin= 6 ErrMin= 7.67D-05
 ErrMax= 7.67D-05  0.00D+00 EMaxC= 1.00D-01 BMatC= 1.66D-06 BMatP= 1.16D-05
 IDIUse=1 WtCom= 1.00D+00 WtEn= 0.00D+00
 Coeff-Com:  0.550D-03 0.298D-02-0.195D-02-0.127D+00-0.120D-01 0.114D+01
 Coeff:      0.550D-03 0.298D-02-0.195D-02-0.127D+00-0.120D-01 0.114D+01
 Gap=     0.313 Goal=   None    Shift=    0.000
 RMSDP=1.25D-05 MaxDP=5.03D-04 DE=-3.20D-05 OVMax= 1.36D-03

 Cycle   7  Pass 1  IDiag  1:
 E= -3107.46982312128     Delta-E=       -0.000005385893 Rises=F Damp=F
 DIIS: error= 2.60D-05 at cycle   7 NSaved=   7.
 NSaved= 7 IEnMin= 7 EnMin= -3107.46982312128     IErMin= 7 ErrMin= 2.60D-05
 ErrMax= 2.60D-05  0.00D+00 EMaxC= 1.00D-01 BMatC= 1.84D-07 BMatP= 1.66D-06
 IDIUse=1 WtCom= 1.00D+00 WtEn= 0.00D+00
 Coeff-Com: -0.233D-03 0.137D-02 0.619D-02 0.497D-01-0.167D+00-0.222D+00
 Coeff-Com:  0.133D+01
 Coeff:     -0.233D-03 0.137D-02 0.619D-02 0.497D-01-0.167D+00-0.222D+00
 Coeff:      0.133D+01
 Gap=     0.313 Goal=   None    Shift=    0.000
 RMSDP=5.35D-06 MaxDP=1.90D-04 DE=-5.39D-06 OVMax= 5.48D-04

 Cycle   8  Pass 1  IDiag  1:
 E= -3107.46982381594     Delta-E=       -0.000000694654 Rises=F Damp=F
 DIIS: error= 5.09D-06 at cycle   8 NSaved=   8.
 NSaved= 8 IEnMin= 8 EnMin= -3107.46982381594     IErMin= 8 ErrMin= 5.09D-06
 ErrMax= 5.09D-06  0.00D+00 EMaxC= 1.00D-01 BMatC= 1.09D-08 BMatP= 1.84D-07
 IDIUse=1 WtCom= 1.00D+00 WtEn= 0.00D+00
 Coeff-Com: -0.389D-05-0.686D-03-0.747D-03 0.468D-02 0.157D-01-0.345D-01
 Coeff-Com: -0.196D+00 0.121D+01
 Coeff:     -0.389D-05-0.686D-03-0.747D-03 0.468D-02 0.157D-01-0.345D-01
 Coeff:     -0.196D+00 0.121D+01
 Gap=     0.313 Goal=   None    Shift=    0.000
 RMSDP=1.23D-06 MaxDP=2.55D-05 DE=-6.95D-07 OVMax= 1.29D-04

 Cycle   9  Pass 1  IDiag  1:
 E= -3107.46982385521     Delta-E=       -0.000000039274 Rises=F Damp=F
 DIIS: error= 3.06D-06 at cycle   9 NSaved=   9.
 NSaved= 9 IEnMin= 9 EnMin= -3107.46982385521     IErMin= 9 ErrMin= 3.06D-06
 ErrMax= 3.06D-06  0.00D+00 EMaxC= 1.00D-01 BMatC= 1.56D-09 BMatP= 1.09D-08
 IDIUse=1 WtCom= 1.00D+00 WtEn= 0.00D+00
 Coeff-Com:  0.201D-04-0.405D-05-0.442D-03-0.638D-02 0.142D-01 0.355D-01
 Coeff-Com: -0.130D+00-0.957D-01 0.118D+01
 Coeff:      0.201D-04-0.405D-05-0.442D-03-0.638D-02 0.142D-01 0.355D-01
 Coeff:     -0.130D+00-0.957D-01 0.118D+01
 Gap=     0.313 Goal=   None    Shift=    0.000
 RMSDP=4.74D-07 MaxDP=9.51D-06 DE=-3.93D-08 OVMax= 5.61D-05

 Cycle  10  Pass 1  IDiag  1:
 E= -3107.46982386128     Delta-E=       -0.000000006067 Rises=F Damp=F
 DIIS: error= 1.47D-06 at cycle  10 NSaved=  10.
 NSaved=10 IEnMin=10 EnMin= -3107.46982386128     IErMin=10 ErrMin= 1.47D-06
 ErrMax= 1.47D-06  0.00D+00 EMaxC= 1.00D-01 BMatC= 3.00D-10 BMatP= 1.56D-09
 IDIUse=1 WtCom= 1.00D+00 WtEn= 0.00D+00
 Coeff-Com: -0.191D-05 0.101D-03 0.184D-03 0.674D-03-0.522D-02-0.273D-02
 Coeff-Com:  0.649D-01-0.228D+00-0.143D+00 0.131D+01
 Coeff:     -0.191D-05 0.101D-03 0.184D-03 0.674D-03-0.522D-02-0.273D-02
 Coeff:      0.649D-01-0.228D+00-0.143D+00 0.131D+01
 Gap=     0.313 Goal=   None    Shift=    0.000
 RMSDP=2.69D-07 MaxDP=6.10D-06 DE=-6.07D-09 OVMax= 3.24D-05

 Cycle  11  Pass 1  IDiag  1:
 E= -3107.46982386272     Delta-E=       -0.000000001440 Rises=F Damp=F
 DIIS: error= 5.48D-07 at cycle  11 NSaved=  11.
 NSaved=11 IEnMin=11 EnMin= -3107.46982386272     IErMin=11 ErrMin= 5.48D-07
 ErrMax= 5.48D-07  0.00D+00 EMaxC= 1.00D-01 BMatC= 3.31D-11 BMatP= 3.00D-10
 IDIUse=1 WtCom= 1.00D+00 WtEn= 0.00D+00
 Coeff-Com: -0.200D-05-0.919D-06 0.295D-04 0.496D-03-0.104D-02-0.244D-02
 Coeff-Com:  0.544D-02 0.412D-01-0.142D+00-0.177D+00 0.128D+01
 Coeff:     -0.200D-05-0.919D-06 0.295D-04 0.496D-03-0.104D-02-0.244D-02
 Coeff:      0.544D-02 0.412D-01-0.142D+00-0.177D+00 0.128D+01
 Gap=     0.313 Goal=   None    Shift=    0.000
 RMSDP=9.98D-08 MaxDP=2.49D-06 DE=-1.44D-09 OVMax= 1.12D-05

 Cycle  12  Pass 1  IDiag  1:
 E= -3107.46982386290     Delta-E=       -0.000000000183 Rises=F Damp=F
 DIIS: error= 1.19D-07 at cycle  12 NSaved=  12.
 NSaved=12 IEnMin=12 EnMin= -3107.46982386290     IErMin=12 ErrMin= 1.19D-07
 ErrMax= 1.19D-07  0.00D+00 EMaxC= 1.00D-01 BMatC= 3.59D-12 BMatP= 3.31D-11
 IDIUse=1 WtCom= 1.00D+00 WtEn= 0.00D+00
 Coeff-Com:  0.241D-06-0.169D-04-0.285D-04-0.221D-04 0.699D-03-0.611D-04
 Coeff-Com: -0.842D-02 0.329D-01 0.102D-01-0.160D+00 0.166D-02 0.112D+01
 Coeff:      0.241D-06-0.169D-04-0.285D-04-0.221D-04 0.699D-03-0.611D-04
 Coeff:     -0.842D-02 0.329D-01 0.102D-01-0.160D+00 0.166D-02 0.112D+01
 Gap=     0.313 Goal=   None    Shift=    0.000
 RMSDP=2.86D-08 MaxDP=7.43D-07 DE=-1.83D-10 OVMax= 2.59D-06

 Cycle  13  Pass 1  IDiag  1:
 E= -3107.46982386292     Delta-E=       -0.000000000016 Rises=F Damp=F
 DIIS: error= 5.34D-08 at cycle  13 NSaved=  13.
 NSaved=13 IEnMin=13 EnMin= -3107.46982386292     IErMin=13 ErrMin= 5.34D-08
 ErrMax= 5.34D-08  0.00D+00 EMaxC= 1.00D-01 BMatC= 5.18D-13 BMatP= 3.59D-12
 IDIUse=1 WtCom= 1.00D+00 WtEn= 0.00D+00
 Coeff-Com:  0.166D-06 0.557D-05 0.514D-05-0.606D-04-0.614D-04 0.217D-03
 Coeff-Com:  0.202D-02-0.137D-01 0.855D-02 0.667D-01-0.996D-01-0.452D+00
 Coeff-Com:  0.149D+01
 Coeff:      0.166D-06 0.557D-05 0.514D-05-0.606D-04-0.614D-04 0.217D-03
 Coeff:      0.202D-02-0.137D-01 0.855D-02 0.667D-01-0.996D-01-0.452D+00
 Coeff:      0.149D+01
 Gap=     0.313 Goal=   None    Shift=    0.000
 RMSDP=1.22D-08 MaxDP=2.71D-07 DE=-1.64D-11 OVMax= 1.49D-06

 Cycle  14  Pass 1  IDiag  1:
 E= -3107.46982386292     Delta-E=       -0.000000000008 Rises=F Damp=F
 DIIS: error= 2.54D-08 at cycle  14 NSaved=  14.
 NSaved=14 IEnMin=14 EnMin= -3107.46982386292     IErMin=14 ErrMin= 2.54D-08
 ErrMax= 2.54D-08  0.00D+00 EMaxC= 1.00D-01 BMatC= 1.10D-13 BMatP= 5.18D-13
 IDIUse=1 WtCom= 1.00D+00 WtEn= 0.00D+00
 Coeff-Com: -0.533D-07 0.641D-06 0.214D-05 0.160D-04-0.659D-04-0.369D-04
 Coeff-Com:  0.428D-03 0.591D-04-0.540D-02 0.246D-03 0.499D-01-0.647D-01
 Coeff-Com: -0.479D+00 0.150D+01
 Coeff:     -0.533D-07 0.641D-06 0.214D-05 0.160D-04-0.659D-04-0.369D-04
 Coeff:      0.428D-03 0.591D-04-0.540D-02 0.246D-03 0.499D-01-0.647D-01
 Coeff:     -0.479D+00 0.150D+01
 Gap=     0.313 Goal=   None    Shift=    0.000
 RMSDP=6.20D-09 MaxDP=1.17D-07 DE=-8.19D-12 OVMax= 8.10D-07

 SCF Done:  E(RHF) =  -3107.46982386     A.U. after   14 cycles
            NFock= 14  Conv=0.62D-08     -V/T= 2.0000
 KE= 3.107356320924D+03 PE=-7.820413535401D+03 EE= 1.416728581683D+03
 Leave Link  502 at Fri Nov  5 16:37:15 2021, MaxMem= 16106127360 cpu:              46.0 elap:               4.5
 (Enter /sw/contrib/gaussian/g16/B01/g16/l801.exe)
 ExpMin= 2.53D-02 ExpMax= 1.06D+07 ExpMxC= 1.21D+04 IAcc=3 IRadAn=         5 AccDes= 0.00D+00
 HarFok:  IExCor=  205 AccDes= 0.00D+00 IRadAn=         5 IDoV=-2 UseB2=F ITyADJ=14
 ICtDFT= 12500011 ScaDFX=  1.000000  1.000000  1.000000  1.000000
 Largest valence mixing into a core orbital is  4.48D-04
 Largest core mixing into a valence orbital is  1.61D-04
 Range of M.O.s used for correlation:    16   178
 NBasis=   178 NAE=    31 NBE=    31 NFC=    15 NFV=     0
 NROrb=    163 NOA=    16 NOB=    16 NVA=   147 NVB=   147

 **** Warning!!: The largest alpha MO coefficient is  0.11336570D+02

 Leave Link  801 at Fri Nov  5 16:37:15 2021, MaxMem= 16106127360 cpu:               2.7 elap:               0.1
 (Enter /sw/contrib/gaussian/g16/B01/g16/l906.exe)
 Frozen-core derivative calculation, NFC=  15 NFV=   0.
 FulOut=F Deriv=T AODrv=F NAtomX=     4
   MMem=         124  MDisk=          16 MDiskD=          16
  W3Min=     1147744 MinDsk=     1765480 NBas6D=         208
 NBas2D=       22240    NTT=       21736    LW2=     9911920
    MDV= 16105653187 MDiskM=      387107 NBas2p=       22040
 Fully in-core method, ICMem=   527338992.
 IMap=   1   2   3   4   5   6   7   8   9  10  11  12  13  14  15  16  17  18  19  20
 IMap=  21  22  23  24  25  26  27  28  29  30  31
 JobTyp=1 Pass  1 fully in-core, NPsUse= 28.
 Compute canonical integrals.
 FoFCou: FMM=F IPFlag=           0 FMFlag=           0 FMFlg1=           0
         NFxFlg=           0 DoJE=F BraDBF=F KetDBF=F FulRan=T
         wScrn=  0.000000 ICntrl=       600 IOpCl=  1 I1Cent=           0 NGrid=           0
         NMat0=    1 NMatS0=  22240 NMatT0=    0 NMatD0=    1 NMtDS0=    0 NMtDT0=    0
 Symmetry not used in FoFCou.
 Spin components of T(2) and E(2):
     alpha-alpha T2 =       0.3004056844D-01 E2=     -0.9327492418D-01
     alpha-beta  T2 =       0.1611537032D+00 E2=     -0.5133579929D+00
     beta-beta   T2 =       0.3004056844D-01 E2=     -0.9327492418D-01
 The integrals were generated   1 times.
 ANorm=    0.1105094946D+01
 E2 =    -0.6999078412D+00 EUMP2 =    -0.31081697317041D+04
 Leave Link  906 at Fri Nov  5 16:37:22 2021, MaxMem= 16106127360 cpu:             172.7 elap:               6.2
 (Enter /sw/contrib/gaussian/g16/B01/g16/l1002.exe)
 Minotr:  Closed shell wavefunction.
          Computing MP2/KS-MP2 derivatives.
          Using Z-Vector for PSCF gradient.
          Skipping F1 and S1 gradient terms here.
          Frozen-core window.
          Direct CPHF calculation.
          Differentiating once with respect to electric field.
                with respect to dipole field.
          Electric field/nuclear overlap derivatives assumed to be zero.
          Requested convergence is 1.0D-10 RMS, and 1.0D-09 maximum.
          NewPWx=F KeepS1=T KeepF1=T KeepIn=T MapXYZ=F SortEE=F KeepMc=T.
 Keep R1 ints in memory in canonical form, NReq=149459058.
 FoFCou: FMM=F IPFlag=           0 FMFlag=           0 FMFlg1=           0
         NFxFlg=           0 DoJE=F BraDBF=F KetDBF=F FulRan=T
         wScrn=  0.000000 ICntrl=       600 IOpCl=  0 I1Cent=           0 NGrid=           0
         NMat0=    1 NMatS0=  15931 NMatT0=    0 NMatD0=    1 NMtDS0=    0 NMtDT0=    0
 Symmetry not used in FoFCou.
 Two-electron integral symmetry not used.
          MDV=   16106127360 using IRadAn=       5.
          Solving linear equations separately, MaxMat=       0.
          There are     1 degrees of freedom in the 1st order CPHF.  IDoFFX=0 NUNeed=     1.
 LinEq1:  Iter=  0 NonCon=     1 RMS=2.61D-03 Max=3.16D-02 NDo=     1
 AX will form     1 AO Fock derivatives at one time.
 LinEq1:  Iter=  1 NonCon=     1 RMS=4.15D-04 Max=4.57D-03 NDo=     1
 LinEq1:  Iter=  2 NonCon=     1 RMS=2.01D-04 Max=3.84D-03 NDo=     1
 LinEq1:  Iter=  3 NonCon=     1 RMS=6.56D-05 Max=8.01D-04 NDo=     1
 LinEq1:  Iter=  4 NonCon=     1 RMS=2.72D-05 Max=8.14D-04 NDo=     1
 LinEq1:  Iter=  5 NonCon=     1 RMS=1.15D-05 Max=2.67D-04 NDo=     1
 LinEq1:  Iter=  6 NonCon=     1 RMS=3.33D-06 Max=8.75D-05 NDo=     1
 LinEq1:  Iter=  7 NonCon=     1 RMS=9.30D-07 Max=1.57D-05 NDo=     1
 LinEq1:  Iter=  8 NonCon=     1 RMS=2.77D-07 Max=3.59D-06 NDo=     1
 LinEq1:  Iter=  9 NonCon=     1 RMS=7.16D-08 Max=1.25D-06 NDo=     1
 LinEq1:  Iter= 10 NonCon=     1 RMS=1.74D-08 Max=3.36D-07 NDo=     1
 LinEq1:  Iter= 11 NonCon=     1 RMS=4.33D-09 Max=1.07D-07 NDo=     1
 LinEq1:  Iter= 12 NonCon=     1 RMS=9.88D-10 Max=2.32D-08 NDo=     1
 LinEq1:  Iter= 13 NonCon=     1 RMS=2.74D-10 Max=2.85D-09 NDo=     1
 LinEq1:  Iter= 14 NonCon=     0 RMS=7.00D-11 Max=6.88D-10 NDo=     1
 Linear equations converged to 1.000D-10 1.000D-09 after    14 iterations.
 End of Minotr F.D. properties file   721 does not exist.
 End of Minotr F.D. properties file   722 does not exist.
 End of Minotr F.D. properties file   788 does not exist.
 Leave Link 1002 at Fri Nov  5 16:37:26 2021, MaxMem= 16106127360 cpu:              40.0 elap:               4.5
 (Enter /sw/contrib/gaussian/g16/B01/g16/l601.exe)
 Copying SCF densities to generalized density rwf, IOpCl= 0 IROHF=0.

 **********************************************************************

            Population analysis using the MP2 Density.

 **********************************************************************

 Alpha  occ. eigenvalues -- -489.74214-104.74162 -64.88242 -58.23694 -58.23689
 Alpha  occ. eigenvalues --  -58.23685 -20.47961 -10.46111  -9.55492  -7.92826
 Alpha  occ. eigenvalues --   -7.92556  -7.92542  -7.16260  -7.16223  -7.16212
 Alpha  occ. eigenvalues --   -2.90431  -2.90420  -2.90404  -2.90359  -2.90358
 Alpha  occ. eigenvalues --   -1.24987  -0.90961  -0.71367  -0.55985  -0.45524
 Alpha  occ. eigenvalues --   -0.44563  -0.32038  -0.29426  -0.16862  -0.16272
 Alpha  occ. eigenvalues --   -0.16178
 Alpha virt. eigenvalues --    0.15152   0.17615   0.21707   0.22548   0.24250
 Alpha virt. eigenvalues --    0.24974   0.25105   0.27515   0.28368   0.30854
 Alpha virt. eigenvalues --    0.32785   0.33174   0.36541   0.40246   0.44171
 Alpha virt. eigenvalues --    0.45899   0.48936   0.49444   0.51365   0.53484
 Alpha virt. eigenvalues --    0.54636   0.55455   0.57030   0.58717   0.59652
 Alpha virt. eigenvalues --    0.60583   0.64376   0.65559   0.73142   0.74417
 Alpha virt. eigenvalues --    0.75524   0.77074   0.81055   0.86396   0.86716
 Alpha virt. eigenvalues --    0.87977   0.89886   0.94557   0.97359   0.98803
 Alpha virt. eigenvalues --    1.00879   1.01789   1.02675   1.03945   1.05002
 Alpha virt. eigenvalues --    1.07416   1.08362   1.09385   1.10639   1.12201
 Alpha virt. eigenvalues --    1.13694   1.17067   1.18505   1.19372   1.20246
 Alpha virt. eigenvalues --    1.21085   1.23564   1.26292   1.28153   1.33952
 Alpha virt. eigenvalues --    1.35200   1.36707   1.39713   1.45808   1.48679
 Alpha virt. eigenvalues --    1.51657   1.56283   1.57595   1.64940   1.68151
 Alpha virt. eigenvalues --    1.69677   1.70419   1.76030   1.79247   1.85714
 Alpha virt. eigenvalues --    1.96130   2.09924   2.32741   2.39247   2.40722
 Alpha virt. eigenvalues --    2.41214   2.45938   2.46583   2.49954   2.51432
 Alpha virt. eigenvalues --    2.53869   2.55327   2.56218   2.56409   2.56855
 Alpha virt. eigenvalues --    2.57397   2.59740   2.61624   2.63056   2.64390
 Alpha virt. eigenvalues --    2.65740   2.67511   2.68805   2.69822   2.70870
 Alpha virt. eigenvalues --    2.71942   2.74117   2.75102   2.78568   2.80021
 Alpha virt. eigenvalues --    2.86275   2.92351   2.97633   3.04860   3.10030
 Alpha virt. eigenvalues --    3.17806   3.21246   3.21438   3.23296   3.28751
 Alpha virt. eigenvalues --    3.33979   3.48024   3.53823   3.55614   3.92052
 Alpha virt. eigenvalues --    4.05389   4.34096   4.38527   4.50861   4.57286
 Alpha virt. eigenvalues --    4.64484   4.73452   4.94936   5.01976   5.40898
 Alpha virt. eigenvalues --    5.49100   5.70926   6.35856   6.58720   6.86626
 Alpha virt. eigenvalues --    6.89568   6.90552   6.97757   7.32929   7.36978
 Alpha virt. eigenvalues --    7.40207   7.44683   7.50291   7.71199   7.75081
 Alpha virt. eigenvalues --    8.40158  14.83282
          Condensed to atoms (all electrons):
               1          2          3          4
     1  O    8.508021  -0.106020  -0.073297   0.058784
     2  Cl  -0.106020  17.035618   0.000895   0.001082
     3  Br  -0.073297   0.000895  35.913923   0.068210
     4  H    0.058784   0.001082   0.068210   0.643129
 Mulliken charges:
               1
     1  O   -0.387488
     2  Cl   0.068423
     3  Br  -0.909731
     4  H    0.228795
 Sum of Mulliken charges =  -1.00000
 Mulliken charges with hydrogens summed into heavy atoms:
               1
     1  O   -0.158693
     2  Cl   0.068423
     3  Br  -0.909731
 Electronic spatial extent (au):  <R**2>=           1500.4852
 Charge=             -1.0000 electrons
 Dipole moment (field-independent basis, Debye):
    X=              2.0580    Y=             11.6253    Z=              0.4716  Tot=             11.8155
 Quadrupole moment (field-independent basis, Debye-Ang):
   XX=            -45.2883   YY=            -81.9633   ZZ=            -42.7338
   XY=             -9.0070   XZ=             -0.2262   YZ=             -0.1382
 Traceless Quadrupole moment (field-independent basis, Debye-Ang):
   XX=             11.3735   YY=            -25.3015   ZZ=             13.9280
   XY=             -9.0070   XZ=             -0.2262   YZ=             -0.1382
 Octapole moment (field-independent basis, Debye-Ang**2):
  XXX=            -15.3523  YYY=            331.1497  ZZZ=             -1.7346  XYY=             19.3381
  XXY=             76.5332  XXZ=             -1.1216  XZZ=             -7.2431  YZZ=             70.7837
  YYZ=             -2.7615  XYZ=             -0.4891
 Hexadecapole moment (field-independent basis, Debye-Ang**3):
 XXXX=           -335.0380 YYYY=          -1699.9274 ZZZZ=            -64.4769 XXXY=           -148.5023
 XXXZ=             -0.3270 YYYX=           -221.9346 YYYZ=             10.6043 ZZZX=              0.2778
 ZZZY=              2.5630 XXYY=           -303.1735 XXZZ=            -71.5561 YYZZ=           -235.6622
 XXYZ=              1.1532 YYXZ=              1.8479 ZZXY=            -47.8665
 N-N= 1.888588089302D+02 E-N=-7.818975680513D+03  KE= 3.107382616263D+03
 No NMR shielding tensors so no spin-rotation constants.
 Leave Link  601 at Fri Nov  5 16:37:26 2021, MaxMem= 16106127360 cpu:               4.5 elap:               0.2
 (Enter /sw/contrib/gaussian/g16/B01/g16/l607.exe)
 ******************************Gaussian NBO Version 3.1******************************
             N A T U R A L   A T O M I C   O R B I T A L   A N D
          N A T U R A L   B O N D   O R B I T A L   A N A L Y S I S
 ******************************Gaussian NBO Version 3.1******************************
       /RESON  / : Allow strongly delocalized NBO set

 Analyzing the MP2 density

 Job title: title                                                           

 Storage needed:     95974 in NPA,    127345 in NBO (********** available)
 GSVD:  LWork=        4314 too small for GESVD, short by       49391 words or       49391 for optimal perf.


 NATURAL POPULATIONS:  Natural atomic orbital occupancies 
                                                          
   NAO  Atom  No  lang   Type(AO)    Occupancy
 --------------------------------------------
     1    O    1  S      Cor( 1S)     1.99969
     2    O    1  S      Val( 2S)     1.78955
     3    O    1  S      Ryd( 3S)     0.00885
     4    O    1  S      Ryd( 4S)     0.00105
     5    O    1  S      Ryd( 5S)     0.00017
     6    O    1  px     Val( 2p)     1.21062
     7    O    1  px     Ryd( 3p)     0.00644
     8    O    1  px     Ryd( 4p)     0.00060
     9    O    1  px     Ryd( 5p)     0.00031
    10    O    1  py     Val( 2p)     1.76329
    11    O    1  py     Ryd( 3p)     0.01451
    12    O    1  py     Ryd( 4p)     0.00071
    13    O    1  py     Ryd( 5p)     0.00037
    14    O    1  pz     Val( 2p)     1.83924
    15    O    1  pz     Ryd( 3p)     0.01687
    16    O    1  pz     Ryd( 4p)     0.00070
    17    O    1  pz     Ryd( 5p)     0.00023
    18    O    1  dxy    Ryd( 3d)     0.00878
    19    O    1  dxy    Ryd( 4d)     0.00050
    20    O    1  dxy    Ryd( 5d)     0.00013
    21    O    1  dxz    Ryd( 3d)     0.00895
    22    O    1  dxz    Ryd( 4d)     0.00055
    23    O    1  dxz    Ryd( 5d)     0.00009
    24    O    1  dyz    Ryd( 3d)     0.01166
    25    O    1  dyz    Ryd( 4d)     0.00054
    26    O    1  dyz    Ryd( 5d)     0.00016
    27    O    1  dx2y2  Ryd( 3d)     0.01096
    28    O    1  dx2y2  Ryd( 4d)     0.00043
    29    O    1  dx2y2  Ryd( 5d)     0.00024
    30    O    1  dz2    Ryd( 3d)     0.00901
    31    O    1  dz2    Ryd( 4d)     0.00056
    32    O    1  dz2    Ryd( 5d)     0.00020
    33    O    1  f(0)   Ryd( 4f)     0.00060
    34    O    1  f(0)   Ryd( 5f)     0.00011
    35    O    1  f(C1)  Ryd( 4f)     0.00060
    36    O    1  f(C1)  Ryd( 5f)     0.00011
    37    O    1  f(S1)  Ryd( 4f)     0.00061
    38    O    1  f(S1)  Ryd( 5f)     0.00012
    39    O    1  f(C2)  Ryd( 4f)     0.00062
    40    O    1  f(C2)  Ryd( 5f)     0.00013
    41    O    1  f(S2)  Ryd( 4f)     0.00059
    42    O    1  f(S2)  Ryd( 5f)     0.00014
    43    O    1  f(C3)  Ryd( 4f)     0.00059
    44    O    1  f(C3)  Ryd( 5f)     0.00012
    45    O    1  f(S3)  Ryd( 4f)     0.00061
    46    O    1  f(S3)  Ryd( 5f)     0.00013

    47   Cl    2  S      Cor( 1S)     2.00000
    48   Cl    2  S      Cor( 2S)     1.99982
    49   Cl    2  S      Val( 3S)     1.88731
    50   Cl    2  S      Ryd( 4S)     0.00810
    51   Cl    2  S      Ryd( 5S)     0.00055
    52   Cl    2  S      Ryd( 6S)     0.00017
    53   Cl    2  px     Cor( 2p)     1.99997
    54   Cl    2  px     Val( 3p)     0.90085
    55   Cl    2  px     Ryd( 4p)     0.00654
    56   Cl    2  px     Ryd( 5p)     0.00052
    57   Cl    2  px     Ryd( 6p)     0.00020
    58   Cl    2  py     Cor( 2p)     2.00003
    59   Cl    2  py     Val( 3p)     1.95374
    60   Cl    2  py     Ryd( 4p)     0.00987
    61   Cl    2  py     Ryd( 5p)     0.00056
    62   Cl    2  py     Ryd( 6p)     0.00009
    63   Cl    2  pz     Cor( 2p)     2.00003
    64   Cl    2  pz     Val( 3p)     1.95443
    65   Cl    2  pz     Ryd( 4p)     0.01018
    66   Cl    2  pz     Ryd( 5p)     0.00061
    67   Cl    2  pz     Ryd( 6p)     0.00003
    68   Cl    2  dxy    Ryd( 3d)     0.01786
    69   Cl    2  dxy    Ryd( 4d)     0.00086
    70   Cl    2  dxy    Ryd( 5d)     0.00033
    71   Cl    2  dxz    Ryd( 3d)     0.01937
    72   Cl    2  dxz    Ryd( 4d)     0.00093
    73   Cl    2  dxz    Ryd( 5d)     0.00035
    74   Cl    2  dyz    Ryd( 3d)     0.01684
    75   Cl    2  dyz    Ryd( 4d)     0.00072
    76   Cl    2  dyz    Ryd( 5d)     0.00017
    77   Cl    2  dx2y2  Ryd( 3d)     0.01857
    78   Cl    2  dx2y2  Ryd( 4d)     0.00050
    79   Cl    2  dx2y2  Ryd( 5d)     0.00016
    80   Cl    2  dz2    Ryd( 3d)     0.01733
    81   Cl    2  dz2    Ryd( 4d)     0.00063
    82   Cl    2  dz2    Ryd( 5d)     0.00016
    83   Cl    2  f(0)   Ryd( 4f)     0.00129
    84   Cl    2  f(0)   Ryd( 5f)     0.00013
    85   Cl    2  f(C1)  Ryd( 4f)     0.00142
    86   Cl    2  f(C1)  Ryd( 5f)     0.00014
    87   Cl    2  f(S1)  Ryd( 4f)     0.00126
    88   Cl    2  f(S1)  Ryd( 5f)     0.00013
    89   Cl    2  f(C2)  Ryd( 4f)     0.00131
    90   Cl    2  f(C2)  Ryd( 5f)     0.00014
    91   Cl    2  f(S2)  Ryd( 4f)     0.00119
    92   Cl    2  f(S2)  Ryd( 5f)     0.00013
    93   Cl    2  f(C3)  Ryd( 4f)     0.00157
    94   Cl    2  f(C3)  Ryd( 5f)     0.00014
    95   Cl    2  f(S3)  Ryd( 4f)     0.00131
    96   Cl    2  f(S3)  Ryd( 5f)     0.00014

    97   Br    3  S      Cor( 1S)     2.00001
    98   Br    3  S      Cor( 2S)     2.00000
    99   Br    3  S      Cor( 3S)     2.00000
   100   Br    3  S      Val( 4S)     1.97824
   101   Br    3  S      Ryd( 5S)     0.00292
   102   Br    3  S      Ryd( 6S)     0.00054
   103   Br    3  S      Ryd( 7S)     0.00019
   104   Br    3  px     Cor( 2p)     2.00002
   105   Br    3  px     Cor( 3p)     2.00000
   106   Br    3  px     Val( 4p)     1.95188
   107   Br    3  px     Ryd( 5p)     0.01172
   108   Br    3  px     Ryd( 6p)     0.00082
   109   Br    3  px     Ryd( 7p)     0.00009
   110   Br    3  py     Cor( 3p)     2.00000
   111   Br    3  py     Cor( 2p)     2.00000
   112   Br    3  py     Val( 4p)     1.91837
   113   Br    3  py     Ryd( 5p)     0.01051
   114   Br    3  py     Ryd( 6p)     0.00079
   115   Br    3  py     Ryd( 7p)     0.00009
   116   Br    3  pz     Cor( 2p)     2.00002
   117   Br    3  pz     Cor( 3p)     2.00000
   118   Br    3  pz     Val( 4p)     1.94826
   119   Br    3  pz     Ryd( 5p)     0.01173
   120   Br    3  pz     Ryd( 6p)     0.00083
   121   Br    3  pz     Ryd( 7p)     0.00008
   122   Br    3  dxy    Cor( 3d)     1.99767
   123   Br    3  dxy    Ryd( 4d)     0.01895
   124   Br    3  dxy    Ryd( 5d)     0.00160
   125   Br    3  dxy    Ryd( 6d)     0.00022
   126   Br    3  dxz    Cor( 3d)     1.99769
   127   Br    3  dxz    Ryd( 4d)     0.01878
   128   Br    3  dxz    Ryd( 5d)     0.00177
   129   Br    3  dxz    Ryd( 6d)     0.00023
   130   Br    3  dyz    Cor( 3d)     1.99767
   131   Br    3  dyz    Ryd( 4d)     0.01915
   132   Br    3  dyz    Ryd( 5d)     0.00162
   133   Br    3  dyz    Ryd( 6d)     0.00025
   134   Br    3  dx2y2  Cor( 3d)     1.99766
   135   Br    3  dx2y2  Ryd( 4d)     0.01875
   136   Br    3  dx2y2  Ryd( 5d)     0.00167
   137   Br    3  dx2y2  Ryd( 6d)     0.00028
   138   Br    3  dz2    Cor( 3d)     1.99768
   139   Br    3  dz2    Ryd( 4d)     0.01873
   140   Br    3  dz2    Ryd( 5d)     0.00173
   141   Br    3  dz2    Ryd( 6d)     0.00023
   142   Br    3  f(0)   Ryd( 4f)     0.00176
   143   Br    3  f(0)   Ryd( 5f)     0.00025
   144   Br    3  f(C1)  Ryd( 4f)     0.00176
   145   Br    3  f(C1)  Ryd( 5f)     0.00025
   146   Br    3  f(S1)  Ryd( 4f)     0.00175
   147   Br    3  f(S1)  Ryd( 5f)     0.00027
   148   Br    3  f(C2)  Ryd( 4f)     0.00175
   149   Br    3  f(C2)  Ryd( 5f)     0.00026
   150   Br    3  f(S2)  Ryd( 4f)     0.00177
   151   Br    3  f(S2)  Ryd( 5f)     0.00026
   152   Br    3  f(C3)  Ryd( 4f)     0.00174
   153   Br    3  f(C3)  Ryd( 5f)     0.00027
   154   Br    3  f(S3)  Ryd( 4f)     0.00174
   155   Br    3  f(S3)  Ryd( 5f)     0.00027

   156    H    4  S      Val( 1S)     0.48352
   157    H    4  S      Ryd( 2S)     0.00625
   158    H    4  S      Ryd( 3S)     0.00031
   159    H    4  S      Ryd( 4S)     0.00014
   160    H    4  px     Ryd( 2p)     0.00304
   161    H    4  px     Ryd( 3p)     0.00046
   162    H    4  px     Ryd( 4p)     0.00010
   163    H    4  py     Ryd( 2p)     0.00576
   164    H    4  py     Ryd( 3p)     0.00066
   165    H    4  py     Ryd( 4p)     0.00032
   166    H    4  pz     Ryd( 2p)     0.00377
   167    H    4  pz     Ryd( 3p)     0.00053
   168    H    4  pz     Ryd( 4p)     0.00018
   169    H    4  dxy    Ryd( 3d)     0.00026
   170    H    4  dxy    Ryd( 4d)     0.00010
   171    H    4  dxz    Ryd( 3d)     0.00019
   172    H    4  dxz    Ryd( 4d)     0.00007
   173    H    4  dyz    Ryd( 3d)     0.00031
   174    H    4  dyz    Ryd( 4d)     0.00009
   175    H    4  dx2y2  Ryd( 3d)     0.00026
   176    H    4  dx2y2  Ryd( 4d)     0.00011
   177    H    4  dz2    Ryd( 3d)     0.00025
   178    H    4  dz2    Ryd( 4d)     0.00010

 WARNING:  5 low occupancy (<1.9990e) core orbitals found on Br    3


 Summary of Natural Population Analysis:                  
                                                          
                                       Natural Population 
                Natural  -----------------------------------------------
    Atom  No    Charge         Core      Valence    Rydberg      Total
 -----------------------------------------------------------------------
      O    1   -0.71106      1.99969     6.60271    0.10866     8.71106
     Cl    2    0.16136      9.99984     6.69633    0.14247    16.83864
     Br    3   -0.94354     27.98841     7.79675    0.15837    35.94354
      H    4    0.49324      0.00000     0.48352    0.02324     0.50676
 =======================================================================
   * Total *   -1.00000     39.98795    21.57931    0.43274    62.00000

                                 Natural Population      
 --------------------------------------------------------
   Core                      39.98795 ( 99.9699% of  40)
   Valence                   21.57931 ( 98.0878% of  22)
   Natural Minimal Basis     61.56726 ( 99.3020% of  62)
   Natural Rydberg Basis      0.43274 (  0.6980% of  62)
 --------------------------------------------------------

    Atom  No          Natural Electron Configuration
 ----------------------------------------------------------------------------
      O    1      [core]2S( 1.79)2p( 4.81)3S( 0.01)3p( 0.04)3d( 0.05)
     Cl    2      [core]3S( 1.89)3p( 4.81)4S( 0.01)3d( 0.09)4p( 0.03)4f( 0.01)
     Br    3      [core]4S( 1.98)4p( 5.82)4d( 0.09)5p( 0.03)4f( 0.01)5d( 0.01)
      H    4            1S( 0.48)2S( 0.01)2p( 0.01)


 NATURAL BOND ORBITAL ANALYSIS:

                       Occupancies       Lewis Structure    Low   High
           Occ.    -------------------  -----------------   occ   occ
  Cycle   Thresh.   Lewis   Non-Lewis     CR  BD  3C  LP    (L)   (NL)   Dev
 =============================================================================
   1(1)    1.90    61.49786   0.50214     20   2   0   9     0      0    0.06
 -----------------------------------------------------------------------------

 Structure accepted: No low occupancy Lewis orbitals

 WARNING:  5 low occupancy (<1.9990e) core orbitals found on Br    3

 --------------------------------------------------------
   Core                     39.98795 ( 99.970% of  40)
   Valence Lewis            21.50991 ( 97.772% of  22)
  ==================       ============================
   Total Lewis              61.49786 ( 99.190% of  62)
  -----------------------------------------------------
   Valence non-Lewis         0.11642 (  0.188% of  62)
   Rydberg non-Lewis         0.38572 (  0.622% of  62)
  ==================       ============================
   Total non-Lewis           0.50214 (  0.810% of  62)
 --------------------------------------------------------


       (Occupancy)   Bond orbital/ Coefficients/ Hybrids
 ---------------------------------------------------------------------------------
     1. (1.93888) BD ( 1) O   1 -Cl   2  
                ( 59.04%)   0.7684* O   1 s(  9.74%)p 9.21( 89.71%)d 0.05(  0.53%)
                                                  f 0.00(  0.02%)
                                            0.0003  0.3094 -0.0390 -0.0130 -0.0014
                                            0.9461 -0.0226 -0.0091 -0.0093  0.0003
                                           -0.0236 -0.0043 -0.0001  0.0224  0.0177
                                            0.0032 -0.0004 -0.0173 -0.0009  0.0022
                                            0.0176  0.0024 -0.0002 -0.0126 -0.0016
                                            0.0011  0.0561  0.0050  0.0015 -0.0363
                                           -0.0032 -0.0004 -0.0001  0.0002 -0.0081
                                            0.0003 -0.0001 -0.0004  0.0005 -0.0011
                                           -0.0063  0.0017  0.0080 -0.0001 -0.0005
                                            0.0016
                ( 40.96%)   0.6400*Cl   2 s(  8.13%)p11.14( 90.62%)d 0.14(  1.13%)
                                                  f 0.01(  0.11%)
                                           -0.0000  0.0005  0.2791 -0.0577 -0.0102
                                           -0.0025 -0.0004 -0.9496  0.0655  0.0138
                                           -0.0039 -0.0000 -0.0057 -0.0017  0.0014
                                           -0.0004  0.0000  0.0041  0.0000 -0.0020
                                            0.0010  0.0073 -0.0006  0.0004 -0.0113
                                           -0.0014 -0.0007 -0.0048 -0.0002  0.0010
                                            0.0902 -0.0106 -0.0005 -0.0534  0.0056
                                            0.0001 -0.0008  0.0002  0.0200 -0.0028
                                            0.0001 -0.0001  0.0006  0.0000  0.0017
                                           -0.0014 -0.0259  0.0035 -0.0008  0.0004
     2. (1.96526) BD ( 1) O   1 - H   4  
                ( 77.63%)   0.8811* O   1 s( 26.11%)p 2.81( 73.36%)d 0.02(  0.52%)
                                                  f 0.00(  0.01%)
                                           -0.0003 -0.5109  0.0066  0.0073 -0.0018
                                            0.1771 -0.0183 -0.0028 -0.0020  0.6627
                                           -0.0112 -0.0062 -0.0018 -0.5123  0.0061
                                            0.0050  0.0037  0.0050  0.0029  0.0002
                                           -0.0033 -0.0023 -0.0005  0.0615  0.0037
                                           -0.0005  0.0367  0.0033  0.0023 -0.0042
                                           -0.0017 -0.0020  0.0078 -0.0004 -0.0004
                                            0.0005  0.0027  0.0007  0.0042  0.0018
                                           -0.0017 -0.0018 -0.0002 -0.0016  0.0024
                                           -0.0020
                ( 22.37%)   0.4729* H   4 s( 99.82%)p 0.00(  0.17%)d 0.00(  0.00%)
                                           -0.9988 -0.0240 -0.0009 -0.0003 -0.0115
                                           -0.0069  0.0024  0.0045 -0.0246 -0.0071
                                           -0.0231  0.0184  0.0037  0.0006  0.0019
                                           -0.0011 -0.0015  0.0011 -0.0000  0.0007
                                           -0.0009  0.0013  0.0016
     3. (1.99969) CR ( 1) O   1           s(100.00%)p 0.00(  0.00%)
                                            1.0000 -0.0004  0.0000  0.0000  0.0000
                                           -0.0002  0.0000  0.0000  0.0000  0.0001
                                            0.0000 -0.0000 -0.0000 -0.0000 -0.0000
                                            0.0000  0.0000  0.0000  0.0000  0.0000
                                           -0.0000 -0.0000 -0.0000  0.0000  0.0000
                                           -0.0000 -0.0000 -0.0000  0.0000  0.0000
                                            0.0000 -0.0000  0.0000 -0.0000  0.0000
                                           -0.0000  0.0000  0.0000  0.0000  0.0000
                                            0.0000 -0.0000 -0.0000 -0.0000  0.0000
                                           -0.0000
     4. (2.00000) CR ( 1)Cl   2           s(100.00%)
                                            1.0000  0.0000  0.0000 -0.0000 -0.0000
                                           -0.0000 -0.0000 -0.0000  0.0000  0.0000
                                           -0.0000 -0.0000 -0.0000 -0.0000  0.0000
                                           -0.0000  0.0000  0.0000  0.0000 -0.0000
                                            0.0000  0.0000 -0.0000  0.0000 -0.0000
                                           -0.0000 -0.0000 -0.0000  0.0000  0.0000
                                            0.0000 -0.0000 -0.0000 -0.0000  0.0000
                                            0.0000 -0.0000  0.0000  0.0000 -0.0000
                                            0.0000 -0.0000  0.0000  0.0000  0.0000
                                           -0.0000 -0.0000  0.0000 -0.0000  0.0000
     5. (1.99982) CR ( 2)Cl   2           s(100.00%)p 0.00(  0.00%)
                                            0.0000  1.0000 -0.0004  0.0000  0.0000
                                            0.0000  0.0000  0.0004 -0.0000 -0.0000
                                            0.0000  0.0000  0.0000  0.0000 -0.0000
                                            0.0000 -0.0000 -0.0000 -0.0000  0.0000
                                           -0.0000 -0.0000  0.0000 -0.0000  0.0000
                                            0.0000  0.0000  0.0000  0.0000 -0.0000
                                           -0.0000  0.0000  0.0000  0.0000 -0.0000
                                           -0.0000  0.0000 -0.0000 -0.0000  0.0000
                                           -0.0000  0.0000 -0.0000 -0.0000 -0.0000
                                            0.0000  0.0000 -0.0000  0.0000 -0.0000
     6. (1.99997) CR ( 3)Cl   2           s(  0.00%)p 1.00(100.00%)
                                           -0.0000  0.0000  0.0001 -0.0000 -0.0000
                                           -0.0000  1.0000 -0.0004  0.0000  0.0000
                                           -0.0000  0.0000 -0.0000 -0.0000  0.0000
                                           -0.0000  0.0000  0.0000  0.0000 -0.0000
                                            0.0000  0.0000 -0.0000  0.0000 -0.0000
                                           -0.0000 -0.0000 -0.0000 -0.0000  0.0000
                                            0.0000 -0.0000 -0.0000 -0.0000  0.0000
                                            0.0000 -0.0000  0.0000  0.0000 -0.0000
                                            0.0000 -0.0000  0.0000  0.0000  0.0000
                                           -0.0000 -0.0000  0.0000 -0.0000  0.0000
     7. (2.00003) CR ( 4)Cl   2           s(  0.00%)p 1.00(100.00%)
                                           -0.0000  0.0000  0.0000  0.0000  0.0000
                                           -0.0000  0.0000 -0.0000  0.0000  0.0000
                                           -0.0000  1.0000  0.0002  0.0000  0.0000
                                           -0.0000  0.0000 -0.0000 -0.0000  0.0000
                                           -0.0000  0.0000  0.0000  0.0000  0.0000
                                            0.0000  0.0000  0.0000  0.0000 -0.0000
                                           -0.0000 -0.0000 -0.0000 -0.0000 -0.0000
                                           -0.0000  0.0000 -0.0000  0.0000  0.0000
                                           -0.0000 -0.0000  0.0000 -0.0000 -0.0000
                                            0.0000 -0.0000  0.0000  0.0000 -0.0000
     8. (2.00003) CR ( 5)Cl   2           s(  0.00%)p 1.00(100.00%)
                                            0.0000 -0.0000 -0.0000  0.0000  0.0000
                                           -0.0000  0.0000  0.0000 -0.0000  0.0000
                                           -0.0000  0.0000 -0.0000 -0.0000  0.0000
                                           -0.0000  1.0000  0.0002  0.0000  0.0000
                                           -0.0000  0.0000  0.0000  0.0000  0.0000
                                            0.0000  0.0000  0.0000  0.0000  0.0000
                                           -0.0000  0.0000  0.0000  0.0000  0.0000
                                            0.0000 -0.0000  0.0000 -0.0000  0.0000
                                           -0.0000  0.0000  0.0000 -0.0000  0.0000
                                           -0.0000  0.0000  0.0000 -0.0000 -0.0000
     9. (2.00001) CR ( 1)Br   3           s(100.00%)p 0.00(  0.00%)
                                            1.0000 -0.0000 -0.0000  0.0000  0.0000
                                           -0.0000 -0.0000 -0.0000 -0.0000  0.0000
                                           -0.0000 -0.0000  0.0000 -0.0000 -0.0000
                                            0.0002 -0.0000 -0.0000 -0.0000 -0.0000
                                           -0.0000  0.0001  0.0000 -0.0000  0.0000
                                           -0.0000  0.0000 -0.0000  0.0000 -0.0000
                                            0.0000 -0.0000  0.0000 -0.0000  0.0000
                                           -0.0000  0.0000  0.0000 -0.0000  0.0000
                                            0.0000  0.0000 -0.0000  0.0000 -0.0000
                                           -0.0000 -0.0000 -0.0000 -0.0000 -0.0000
                                           -0.0000 -0.0000 -0.0000  0.0000  0.0000
                                           -0.0000 -0.0000 -0.0000 -0.0000
    10. (2.00000) CR ( 2)Br   3           s(100.00%)
                                           -0.0000  1.0000 -0.0000  0.0000  0.0000
                                           -0.0000 -0.0000 -0.0000 -0.0000  0.0000
                                           -0.0000 -0.0000  0.0000 -0.0000 -0.0000
                                            0.0000 -0.0000 -0.0000 -0.0000 -0.0000
                                           -0.0000  0.0000  0.0000 -0.0000  0.0000
                                           -0.0000  0.0000 -0.0000  0.0000 -0.0000
                                            0.0000 -0.0000  0.0000 -0.0000  0.0000
                                           -0.0000  0.0000  0.0000 -0.0000  0.0000
                                            0.0000  0.0000 -0.0000  0.0000  0.0000
                                           -0.0000 -0.0000 -0.0000 -0.0000 -0.0000
                                           -0.0000 -0.0000 -0.0000  0.0000  0.0000
                                           -0.0000 -0.0000 -0.0000 -0.0000
    11. (2.00000) CR ( 3)Br   3           s(100.00%)
                                           -0.0000 -0.0000  1.0000  0.0000  0.0000
                                           -0.0000 -0.0000 -0.0000 -0.0000  0.0000
                                           -0.0000 -0.0000  0.0000 -0.0000 -0.0000
                                            0.0000 -0.0000 -0.0000 -0.0000 -0.0000
                                           -0.0000  0.0000  0.0000 -0.0000  0.0000
                                           -0.0000  0.0000 -0.0000  0.0000 -0.0000
                                            0.0000 -0.0000  0.0000 -0.0000  0.0000
                                           -0.0000  0.0000  0.0000 -0.0000  0.0000
                                            0.0000  0.0000 -0.0000  0.0000  0.0000
                                           -0.0000 -0.0000 -0.0000 -0.0000 -0.0000
                                           -0.0000 -0.0000 -0.0000  0.0000  0.0000
                                           -0.0000 -0.0000 -0.0000 -0.0000
    12. (2.00002) CR ( 4)Br   3           s(  0.00%)p 1.00(100.00%)
                                           -0.0000 -0.0000 -0.0000  0.0000  0.0000
                                           -0.0000  0.0000  1.0000 -0.0000 -0.0001
                                           -0.0000 -0.0000  0.0000 -0.0000 -0.0000
                                            0.0001 -0.0000 -0.0000  0.0000 -0.0000
                                           -0.0000  0.0000  0.0000 -0.0000  0.0000
                                           -0.0000 -0.0000  0.0000  0.0000 -0.0000
                                           -0.0000  0.0000 -0.0000 -0.0000  0.0000
                                           -0.0000  0.0000  0.0000 -0.0000  0.0000
                                            0.0000  0.0000 -0.0000  0.0000 -0.0000
                                           -0.0000 -0.0000  0.0000  0.0000 -0.0000
                                           -0.0000 -0.0000 -0.0000 -0.0000 -0.0000
                                            0.0000  0.0000 -0.0000 -0.0000
    13. (2.00000) CR ( 5)Br   3           s(  0.00%)p 1.00(100.00%)
                                           -0.0000 -0.0000 -0.0000  0.0000  0.0000
                                           -0.0000  0.0000 -0.0000  1.0000 -0.0000
                                           -0.0000 -0.0000  0.0000 -0.0000 -0.0000
                                            0.0000 -0.0000 -0.0000  0.0000 -0.0000
                                           -0.0000  0.0000  0.0000 -0.0000  0.0000
                                           -0.0000 -0.0000  0.0000  0.0000 -0.0000
                                           -0.0000  0.0000 -0.0000 -0.0000  0.0000
                                           -0.0000  0.0000  0.0000 -0.0000  0.0000
                                            0.0000  0.0000 -0.0000  0.0000 -0.0000
                                           -0.0000 -0.0000  0.0000  0.0000 -0.0000
                                           -0.0000 -0.0000 -0.0000 -0.0000 -0.0000
                                            0.0000  0.0000 -0.0000 -0.0000
    14. (2.00000) CR ( 6)Br   3           s(  0.00%)p 1.00(100.00%)
                                           -0.0000 -0.0000 -0.0000  0.0001  0.0000
                                           -0.0000 -0.0000 -0.0000 -0.0000  0.0000
                                           -0.0000 -0.0000  0.0000  1.0000 -0.0000
                                            0.0001 -0.0000 -0.0000 -0.0000 -0.0000
                                           -0.0000  0.0001  0.0000 -0.0000  0.0000
                                           -0.0000  0.0000 -0.0000  0.0000 -0.0000
                                            0.0000 -0.0000  0.0000 -0.0000  0.0000
                                           -0.0000  0.0000  0.0000 -0.0000  0.0000
                                            0.0000  0.0000 -0.0000  0.0000  0.0000
                                           -0.0000 -0.0000 -0.0000 -0.0000 -0.0000
                                           -0.0000 -0.0000 -0.0000  0.0000  0.0000
                                           -0.0000 -0.0000 -0.0000 -0.0000
    15. (2.00000) CR ( 7)Br   3           s(  0.00%)p 1.00(100.00%)
                                           -0.0000 -0.0000 -0.0000  0.0000  0.0000
                                           -0.0000 -0.0000 -0.0000 -0.0000  0.0000
                                           -0.0000 -0.0000  0.0000 -0.0000  1.0000
                                            0.0000 -0.0000 -0.0000 -0.0000 -0.0000
                                           -0.0000  0.0000  0.0000 -0.0000  0.0000
                                           -0.0000  0.0000 -0.0000  0.0000 -0.0000
                                            0.0000 -0.0000  0.0000 -0.0000  0.0000
                                           -0.0000  0.0000  0.0000 -0.0000  0.0000
                                            0.0000  0.0000 -0.0000  0.0000  0.0000
                                           -0.0000 -0.0000 -0.0000 -0.0000 -0.0000
                                           -0.0000 -0.0000 -0.0000  0.0000  0.0000
                                           -0.0000 -0.0000 -0.0000 -0.0000
    16. (2.00002) CR ( 8)Br   3           s(  0.00%)p 1.00(100.00%)
                                           -0.0000 -0.0000 -0.0000  0.0000  0.0000
                                           -0.0000 -0.0000 -0.0000 -0.0000  0.0000
                                           -0.0000 -0.0000  0.0000 -0.0000 -0.0000
                                            0.0001 -0.0000 -0.0000  0.0000  1.0000
                                           -0.0000 -0.0001  0.0000 -0.0000  0.0000
                                           -0.0000  0.0000 -0.0000  0.0000 -0.0000
                                            0.0000 -0.0000  0.0000 -0.0000  0.0000
                                           -0.0000  0.0000  0.0000 -0.0000  0.0000
                                            0.0000  0.0000 -0.0000  0.0000 -0.0000
                                           -0.0000 -0.0000 -0.0000 -0.0000 -0.0000
                                           -0.0000 -0.0000 -0.0000  0.0000  0.0000
                                           -0.0000 -0.0000 -0.0000 -0.0000
    17. (2.00000) CR ( 9)Br   3           s(  0.00%)p 1.00(100.00%)
                                           -0.0000 -0.0000 -0.0000  0.0000  0.0000
                                           -0.0000 -0.0000 -0.0000 -0.0000  0.0000
                                           -0.0000 -0.0000  0.0000 -0.0000 -0.0000
                                            0.0000 -0.0000 -0.0000  0.0000 -0.0000
                                            1.0000 -0.0000  0.0000 -0.0000  0.0000
                                           -0.0000  0.0000 -0.0000  0.0000 -0.0000
                                            0.0000 -0.0000  0.0000 -0.0000  0.0000
                                           -0.0000  0.0000  0.0000 -0.0000  0.0000
                                            0.0000  0.0000 -0.0000  0.0000 -0.0000
                                           -0.0000 -0.0000 -0.0000 -0.0000 -0.0000
                                           -0.0000 -0.0000 -0.0000  0.0000  0.0000
                                           -0.0000 -0.0000 -0.0000 -0.0000
    18. (1.99767) CR (10)Br   3           s(  0.00%)p 0.00(  0.00%)d 1.00(100.00%)
                                           -0.0000 -0.0000 -0.0000  0.0000  0.0000
                                           -0.0000 -0.0000 -0.0000 -0.0000  0.0000
                                           -0.0000 -0.0000  0.0000 -0.0000 -0.0000
                                            0.0000 -0.0000 -0.0000 -0.0000 -0.0000
                                           -0.0000  0.0000  0.0000 -0.0000  0.0000
                                            1.0000  0.0000 -0.0000  0.0000 -0.0000
                                            0.0000 -0.0000  0.0000 -0.0000  0.0000
                                           -0.0000  0.0000  0.0000 -0.0000  0.0000
                                            0.0000  0.0000 -0.0000  0.0000 -0.0000
                                           -0.0000 -0.0000 -0.0000 -0.0000 -0.0000
                                           -0.0000 -0.0000 -0.0000  0.0000  0.0000
                                           -0.0000 -0.0000 -0.0000 -0.0000
    19. (1.99769) CR (11)Br   3           s(  0.00%)p 0.00(  0.00%)d 1.00(100.00%)
                                           -0.0000 -0.0000 -0.0000  0.0000  0.0000
                                           -0.0000 -0.0000 -0.0000 -0.0000  0.0000
                                           -0.0000  0.0000  0.0000 -0.0000 -0.0000
                                            0.0000 -0.0000 -0.0000 -0.0000 -0.0000
                                           -0.0000  0.0000  0.0000 -0.0000  0.0000
                                           -0.0000  0.0000 -0.0000  0.0000  1.0000
                                            0.0000 -0.0000  0.0000 -0.0000  0.0000
                                           -0.0000  0.0000  0.0000 -0.0000  0.0000
                                            0.0000  0.0000 -0.0000  0.0000  0.0000
                                           -0.0000 -0.0000 -0.0000 -0.0000 -0.0000
                                           -0.0000 -0.0000 -0.0000  0.0000  0.0000
                                           -0.0000 -0.0000 -0.0000 -0.0000
    20. (1.99767) CR (12)Br   3           s(  0.00%)p 0.00(  0.00%)d 1.00(100.00%)
                                           -0.0000 -0.0000 -0.0000  0.0000  0.0000
                                           -0.0000 -0.0000 -0.0000 -0.0000  0.0000
                                           -0.0000 -0.0000  0.0000 -0.0000 -0.0000
                                            0.0001 -0.0000 -0.0000 -0.0000 -0.0000
                                           -0.0000  0.0000  0.0000 -0.0000  0.0000
                                           -0.0000  0.0000 -0.0000  0.0000 -0.0000
                                            0.0000 -0.0000  0.0000  1.0000  0.0000
                                           -0.0000  0.0000  0.0000 -0.0000  0.0000
                                            0.0000  0.0000 -0.0000  0.0000  0.0000
                                           -0.0000 -0.0000 -0.0000 -0.0000 -0.0000
                                           -0.0000 -0.0000 -0.0000  0.0000  0.0000
                                           -0.0000 -0.0000 -0.0000 -0.0000
    21. (1.99766) CR (13)Br   3           s(  0.00%)p 0.00(  0.00%)d 1.00(100.00%)
                                            0.0000  0.0000  0.0000 -0.0000 -0.0000
                                            0.0000  0.0000  0.0000  0.0000 -0.0000
                                            0.0000  0.0000 -0.0000  0.0000  0.0000
                                           -0.0001  0.0000  0.0000  0.0000  0.0000
                                            0.0000 -0.0000 -0.0000  0.0000 -0.0000
                                            0.0000 -0.0000  0.0000 -0.0000  0.0000
                                           -0.0000  0.0000 -0.0000  0.0000 -0.0000
                                            0.0000 -0.0000  1.0000  0.0000 -0.0000
                                           -0.0000 -0.0000  0.0000 -0.0000  0.0000
                                            0.0000  0.0000  0.0000  0.0000  0.0000
                                            0.0000  0.0000  0.0000 -0.0000 -0.0000
                                            0.0000  0.0000  0.0000  0.0000
    22. (1.99768) CR (14)Br   3           s(  0.00%)p 0.00(  0.00%)d 1.00(100.00%)
                                            0.0000  0.0000  0.0000 -0.0000 -0.0000
                                            0.0000  0.0000  0.0000  0.0000 -0.0000
                                            0.0000  0.0000 -0.0000  0.0000  0.0000
                                           -0.0001  0.0000  0.0000  0.0000  0.0000
                                            0.0000 -0.0000 -0.0000  0.0000 -0.0000
                                            0.0000 -0.0000  0.0000 -0.0000  0.0000
                                           -0.0000  0.0000 -0.0000  0.0000 -0.0000
                                            0.0000 -0.0000 -0.0000  0.0000 -0.0000
                                           -0.0000  1.0000  0.0000 -0.0000  0.0000
                                            0.0000  0.0000  0.0000  0.0000  0.0000
                                            0.0000  0.0000  0.0000 -0.0000 -0.0000
                                            0.0000  0.0000  0.0000  0.0000
    23. (1.96855) LP ( 1) O   1           s( 64.25%)p 0.55( 35.65%)d 0.00(  0.09%)
                                                  f 0.00(  0.00%)
                                            0.0002  0.8015  0.0114  0.0067 -0.0008
                                           -0.2531 -0.0035 -0.0042 -0.0020  0.4203
                                            0.0067  0.0047  0.0025 -0.3400 -0.0046
                                           -0.0033 -0.0010  0.0178  0.0014 -0.0027
                                           -0.0160 -0.0022  0.0010  0.0164  0.0007
                                           -0.0012  0.0076 -0.0002 -0.0031 -0.0017
                                           -0.0003  0.0011  0.0030 -0.0005 -0.0011
                                            0.0010  0.0005  0.0001 -0.0007  0.0007
                                            0.0024 -0.0010  0.0025 -0.0016  0.0031
                                           -0.0011
    24. (1.95364) LP ( 2) O   1           s(  0.01%)p99.99( 99.76%)d14.57(  0.21%)
                                                  f 1.02(  0.01%)
                                           -0.0000  0.0043  0.0102  0.0044 -0.0006
                                           -0.0196 -0.0018 -0.0004 -0.0014  0.6155
                                            0.0122  0.0032  0.0027  0.7860  0.0168
                                            0.0056  0.0053  0.0191  0.0029 -0.0007
                                            0.0245  0.0042 -0.0003 -0.0014  0.0031
                                            0.0052  0.0122 -0.0027 -0.0059  0.0286
                                           -0.0008 -0.0065 -0.0023  0.0006 -0.0007
                                           -0.0005 -0.0072  0.0001  0.0077 -0.0012
                                            0.0000  0.0006 -0.0004 -0.0008  0.0048
                                           -0.0019
    25. (1.97446) LP ( 1)Cl   2           s( 92.08%)p 0.09(  7.90%)d 0.00(  0.02%)
                                                  f 0.00(  0.00%)
                                            0.0000  0.0003  0.9596  0.0067  0.0012
                                            0.0003  0.0000  0.2797 -0.0059 -0.0027
                                            0.0010 -0.0000 -0.0139  0.0019  0.0004
                                           -0.0005  0.0000  0.0220  0.0007  0.0001
                                            0.0001  0.0004 -0.0001 -0.0003  0.0003
                                            0.0004  0.0005 -0.0008 -0.0003  0.0001
                                           -0.0112  0.0005 -0.0001  0.0078  0.0007
                                            0.0003 -0.0003  0.0001 -0.0022 -0.0003
                                           -0.0001  0.0001  0.0002 -0.0000  0.0005
                                           -0.0003  0.0031  0.0002 -0.0005  0.0003
    26. (1.95620) LP ( 2)Cl   2           s(  0.02%)p99.99( 99.93%)d 2.52(  0.05%)
                                                  f 0.45(  0.01%)
                                            0.0000  0.0000  0.0117 -0.0062 -0.0028
                                            0.0015 -0.0000  0.0034  0.0002 -0.0007
                                            0.0007  0.0001 -0.5014 -0.0065 -0.0021
                                            0.0001  0.0002 -0.8646 -0.0131 -0.0040
                                            0.0018 -0.0041 -0.0088 -0.0045 -0.0049
                                           -0.0145 -0.0077 -0.0049 -0.0047 -0.0016
                                            0.0021  0.0016  0.0013 -0.0005  0.0004
                                            0.0001  0.0038  0.0001  0.0007 -0.0005
                                            0.0017 -0.0005 -0.0066  0.0015 -0.0001
                                           -0.0001  0.0007 -0.0005 -0.0042  0.0008
    27. (1.95504) LP ( 3)Cl   2           s(  0.06%)p99.99( 99.89%)d 0.60(  0.04%)
                                                  f 0.14(  0.01%)
                                            0.0000 -0.0000  0.0242  0.0054  0.0038
                                           -0.0016  0.0000 -0.0012 -0.0001 -0.0002
                                           -0.0008 -0.0002  0.8646  0.0112  0.0015
                                           -0.0001  0.0001 -0.5012 -0.0079 -0.0012
                                            0.0003 -0.0017  0.0124  0.0069  0.0025
                                           -0.0065 -0.0041 -0.0002 -0.0014 -0.0009
                                           -0.0079 -0.0051 -0.0030 -0.0022 -0.0032
                                           -0.0004  0.0032 -0.0004  0.0007 -0.0001
                                           -0.0010 -0.0006 -0.0032  0.0002 -0.0009
                                            0.0005 -0.0010  0.0001  0.0079 -0.0013
    28. (1.98006) LP ( 1)Br   3           s( 97.44%)p 0.03(  2.56%)d 0.00(  0.00%)
                                                  f 0.00(  0.00%)
                                            0.0000  0.0000  0.0000  0.9871 -0.0001
                                            0.0001  0.0001 -0.0000 -0.0000 -0.0360
                                            0.0002 -0.0001 -0.0001 -0.0000 -0.0000
                                           -0.1467  0.0008 -0.0005  0.0001 -0.0000
                                           -0.0000 -0.0528  0.0004 -0.0001  0.0002
                                           -0.0000  0.0005 -0.0002 -0.0000 -0.0000
                                            0.0001 -0.0001 -0.0001 -0.0000  0.0005
                                           -0.0004 -0.0001  0.0000 -0.0010  0.0005
                                            0.0001  0.0000 -0.0007  0.0002  0.0000
                                           -0.0003 -0.0002 -0.0001 -0.0000 -0.0003
                                           -0.0001 -0.0004 -0.0003  0.0001  0.0001
                                           -0.0003 -0.0002 -0.0003 -0.0002
    29. (1.95365) LP ( 2)Br   3           s(  0.00%)p 1.00( 99.99%)d 0.00(  0.01%)
                                                  f 0.00(  0.00%)
                                           -0.0000 -0.0000 -0.0000  0.0053  0.0003
                                           -0.0004 -0.0014  0.0001  0.0000  0.9598
                                            0.0007  0.0009  0.0001 -0.0000 -0.0000
                                           -0.1066 -0.0003 -0.0003 -0.0000 -0.0000
                                           -0.0000 -0.2595  0.0001 -0.0002  0.0002
                                           -0.0000  0.0071 -0.0019  0.0001 -0.0000
                                            0.0032 -0.0015  0.0014  0.0000 -0.0017
                                            0.0002  0.0003 -0.0000  0.0019 -0.0003
                                           -0.0004  0.0000 -0.0013  0.0005 -0.0003
                                            0.0000 -0.0001 -0.0004 -0.0003 -0.0006
                                           -0.0004  0.0007  0.0004  0.0014  0.0010
                                           -0.0018 -0.0011  0.0010  0.0007
    30. (1.95326) LP ( 3)Br   3           s(  0.00%)p 1.00( 99.99%)d 0.00(  0.01%)
                                                  f 0.00(  0.00%)
                                           -0.0000 -0.0000 -0.0000 -0.0010 -0.0005
                                            0.0011  0.0027  0.0000  0.0000  0.2017
                                            0.0004  0.0002 -0.0002 -0.0000 -0.0000
                                           -0.3808  0.0009  0.0001 -0.0003  0.0001
                                            0.0000  0.9023 -0.0001  0.0009 -0.0003
                                           -0.0000  0.0013 -0.0003  0.0001 -0.0000
                                            0.0018 -0.0005  0.0002 -0.0000  0.0034
                                           -0.0003 -0.0012 -0.0000  0.0019 -0.0004
                                           -0.0008 -0.0000  0.0047 -0.0019  0.0013
                                           -0.0003 -0.0000  0.0004  0.0003  0.0022
                                            0.0015 -0.0004 -0.0000  0.0008  0.0005
                                           -0.0001 -0.0001  0.0008  0.0003
    31. (1.91092) LP ( 4)Br   3           s(  2.56%)p38.11( 97.40%)d 0.01(  0.04%)
                                                  f 0.00(  0.00%)
                                           -0.0002 -0.0000 -0.0000  0.1599  0.0008
                                           -0.0004 -0.0009 -0.0000 -0.0000  0.1917
                                           -0.0004 -0.0002  0.0007 -0.0002 -0.0000
                                            0.9065 -0.0010 -0.0018 -0.0001 -0.0001
                                           -0.0000  0.3399  0.0023 -0.0006  0.0006
                                           -0.0001  0.0051 -0.0015  0.0003 -0.0000
                                            0.0029 -0.0008  0.0004 -0.0001  0.0134
                                           -0.0034  0.0014  0.0001 -0.0109  0.0023
                                            0.0005  0.0001 -0.0048  0.0012 -0.0000
                                           -0.0023 -0.0014 -0.0003 -0.0003 -0.0012
                                           -0.0010 -0.0029 -0.0016  0.0013  0.0008
                                           -0.0018 -0.0013 -0.0022 -0.0010
    32. (0.01940) RY*( 1) O   1           s(  0.20%)p99.99( 98.12%)d 8.03(  1.63%)
                                                  f 0.27(  0.06%)
                                           -0.0000 -0.0006  0.0447  0.0047  0.0015
                                            0.0033 -0.0208 -0.0001 -0.0045 -0.0163
                                            0.6123 -0.0250 -0.0084 -0.0211  0.7768
                                           -0.0316 -0.0031  0.0564  0.0156  0.0039
                                            0.0706  0.0223  0.0082 -0.0077  0.0044
                                            0.0083  0.0341 -0.0005 -0.0064  0.0764
                                            0.0048 -0.0073 -0.0063  0.0049  0.0017
                                           -0.0001 -0.0062  0.0064  0.0109 -0.0092
                                           -0.0014  0.0010  0.0031 -0.0011  0.0107
                                           -0.0086
    33. (0.01527) RY*( 2) O   1           s( 28.93%)p 2.35( 67.86%)d 0.10(  2.92%)
                                                  f 0.01(  0.29%)
                                           -0.0000  0.0004  0.5352 -0.0532 -0.0028
                                            0.0402 -0.3706 -0.0035  0.0251 -0.0138
                                            0.5560 -0.0028 -0.0316  0.0063 -0.4775
                                            0.0072  0.0227  0.1132  0.0178  0.0045
                                           -0.1092 -0.0207 -0.0094  0.0570  0.0024
                                           -0.0092  0.0019  0.0062  0.0039  0.0125
                                            0.0028  0.0002  0.0032 -0.0040 -0.0177
                                            0.0079 -0.0148  0.0081 -0.0216  0.0096
                                            0.0189 -0.0101  0.0269 -0.0120  0.0169
                                           -0.0087
    34. (0.00770) RY*( 3) O   1           s( 13.73%)p 0.42(  5.71%)d 5.75( 78.99%)
                                                  f 0.11(  1.56%)
                                            0.0000  0.0139  0.3667 -0.0507  0.0119
                                           -0.0194 -0.1365  0.0045  0.0210 -0.0052
                                           -0.1545  0.0123 -0.0620 -0.0016  0.0976
                                           -0.0085  0.0130 -0.7767 -0.0003 -0.0128
                                            0.3180  0.0088  0.0090  0.1003 -0.0039
                                            0.0075  0.1652  0.0111  0.0257  0.2165
                                           -0.0062  0.0044 -0.0023  0.0011  0.0011
                                            0.0041 -0.0012  0.0057  0.0362 -0.0139
                                           -0.0529  0.0217 -0.0289  0.0063 -0.0919
                                            0.0387
    35. (0.00704) RY*( 4) O   1           s(  0.93%)p 0.38(  0.35%)d99.99( 97.00%)
                                                  f 1.86(  1.72%)
                                            0.0000  0.0055  0.0959 -0.0071 -0.0028
                                           -0.0045 -0.0125  0.0036  0.0075 -0.0092
                                           -0.0344 -0.0067 -0.0029 -0.0130 -0.0402
                                           -0.0076  0.0093  0.2921 -0.0230  0.0018
                                            0.8512 -0.0367  0.0073  0.1655 -0.0101
                                            0.0031 -0.2160  0.0123 -0.0005 -0.2892
                                            0.0152 -0.0083 -0.0710  0.0306  0.0216
                                           -0.0088  0.0269 -0.0115  0.0724 -0.0307
                                           -0.0201  0.0074 -0.0049 -0.0014  0.0515
                                           -0.0231
    36. (0.00628) RY*( 5) O   1           s(  0.22%)p22.95(  5.14%)d99.99( 93.13%)
                                                  f 6.73(  1.51%)
                                           -0.0000  0.0018  0.0436 -0.0182 -0.0021
                                           -0.0097 -0.1178  0.0014  0.0227 -0.0386
[...]
                                           -0.0042 -0.0376 -0.0300  0.1803 -0.0381
                                           -0.6443 -0.0402 -0.0586  0.0896 -0.3597
                                            0.1433 -0.3026 -0.1422  0.0109 -0.1741
                                            0.0298  0.0829 -0.3801  0.0602  0.2147
                                            0.1127  0.1081  0.1307
   162. (0.00027) RY*( 8) H   4           s( 20.07%)p 1.09( 21.97%)d 2.89( 57.95%)
                                            0.0069 -0.0162  0.4431  0.0641  0.0335
                                            0.1336 -0.0631  0.0287 -0.4133 -0.0279
                                            0.0324 -0.0590 -0.1409  0.2299  0.0365
                                            0.5245 -0.1132  0.0821 -0.1410  0.4554
                                            0.0353  0.0385  0.0261
   163. (0.00027) RY*( 9) H   4           s(  6.06%)p 5.52( 33.42%)d 9.99( 60.52%)
                                            0.0035 -0.0532  0.1574  0.1815 -0.0665
                                            0.3096 -0.0598 -0.0243 -0.0470  0.0436
                                           -0.0140  0.2331 -0.4137 -0.4307  0.1183
                                           -0.3194 -0.0995 -0.4947 -0.0493  0.2092
                                            0.0407  0.0073  0.0330
   164. (0.00023) RY*(10) H   4           s(  5.64%)p 6.39( 36.02%)d10.34( 58.34%)
                                            0.0024 -0.0006  0.1896 -0.1430 -0.1045
                                            0.0469 -0.2007  0.0858 -0.2300 -0.3005
                                            0.0435 -0.3351  0.2050 -0.5692 -0.0668
                                           -0.2327 -0.0028  0.4092  0.0563  0.0753
                                            0.1089 -0.0055  0.1124
   165. (0.00020) RY*(11) H   4           s( 14.19%)p 4.51( 64.04%)d 1.53( 21.76%)
                                           -0.0217 -0.0819  0.3654 -0.0356  0.0370
                                            0.2341 -0.0159  0.0994  0.3696  0.1559
                                           -0.0215 -0.6051 -0.2160  0.1319 -0.0273
                                            0.0089 -0.0751 -0.1052 -0.0979 -0.3450
                                            0.0730 -0.0972  0.1982
   166. (0.00017) RY*(12) H   4           s(  2.46%)p14.36( 35.34%)d25.27( 62.20%)
                                            0.0075 -0.0246 -0.0350  0.1508  0.0690
                                            0.0597  0.1903  0.0427 -0.2711 -0.2504
                                            0.1178  0.0889 -0.3861  0.2113  0.0171
                                           -0.2148 -0.0078  0.2586 -0.0179 -0.3414
                                            0.0415  0.5473  0.2140
   167. (0.00013) RY*(13) H   4           s( 18.30%)p 1.25( 22.95%)d 3.21( 58.75%)
                                           -0.0060 -0.0187  0.2605  0.3387  0.0266
                                            0.0781 -0.0833 -0.0322  0.0261  0.2166
                                            0.0388 -0.1942  0.3577  0.0600  0.0079
                                           -0.1789  0.1330 -0.0980  0.2613  0.0908
                                           -0.3135  0.4979 -0.3191
   168. (0.00012) RY*(14) H   4           s( 39.89%)p 0.45( 18.01%)d 1.06( 42.09%)
                                            0.0070  0.0654  0.2743  0.5651  0.0177
                                            0.0242  0.1879 -0.0324 -0.1264 -0.2119
                                           -0.0664  0.1544  0.2318  0.0752  0.0297
                                           -0.0158  0.0117 -0.0206  0.3039 -0.2623
                                            0.2272 -0.4400  0.0845
   169. (0.00010) RY*(15) H   4           s(  2.22%)p 1.68(  3.75%)d42.29( 94.03%)
   170. (0.00010) RY*(16) H   4           s(  0.71%)p70.00( 49.98%)d69.05( 49.30%)
   171. (0.00007) RY*(17) H   4           s(  4.70%)p 1.04(  4.90%)d19.23( 90.40%)
   172. (0.00005) RY*(18) H   4           s( 17.79%)p 1.62( 28.77%)d 3.00( 53.44%)
   173. (0.00006) RY*(19) H   4           s(  0.31%)p12.92(  4.04%)d99.99( 95.65%)
   174. (0.00005) RY*(20) H   4           s( 34.57%)p 0.44( 15.10%)d 1.46( 50.33%)
   175. (0.00005) RY*(21) H   4           s(  0.80%)p41.16( 33.12%)d82.10( 66.07%)
   176. (0.00003) RY*(22) H   4           s(  1.98%)p16.12( 31.89%)d33.43( 66.13%)
   177. (0.05916) BD*( 1) O   1 -Cl   2  
                ( 40.96%)   0.6400* O   1 s(  9.74%)p 9.21( 89.71%)d 0.05(  0.53%)
                                                  f 0.00(  0.02%)
                                           -0.0003 -0.3094  0.0390  0.0130  0.0014
                                           -0.9461  0.0226  0.0091  0.0093 -0.0003
                                            0.0236  0.0043  0.0001 -0.0224 -0.0177
                                           -0.0032  0.0004  0.0173  0.0009 -0.0022
                                           -0.0176 -0.0024  0.0002  0.0126  0.0016
                                           -0.0011 -0.0561 -0.0050 -0.0015  0.0363
                                            0.0032  0.0004  0.0001 -0.0002  0.0081
                                           -0.0003  0.0001  0.0004 -0.0005  0.0011
                                            0.0063 -0.0017 -0.0080  0.0001  0.0005
                                           -0.0016
                ( 59.04%)  -0.7684*Cl   2 s(  8.13%)p11.14( 90.62%)d 0.14(  1.13%)
                                                  f 0.01(  0.11%)
                                            0.0000 -0.0005 -0.2791  0.0577  0.0102
                                            0.0025  0.0004  0.9496 -0.0655 -0.0138
                                            0.0039  0.0000  0.0057  0.0017 -0.0014
                                            0.0004 -0.0000 -0.0041 -0.0000  0.0020
                                           -0.0010 -0.0073  0.0006 -0.0004  0.0113
                                            0.0014  0.0007  0.0048  0.0002 -0.0010
                                           -0.0902  0.0106  0.0005  0.0534 -0.0056
                                           -0.0001  0.0008 -0.0002 -0.0200  0.0028
                                           -0.0001  0.0001 -0.0006 -0.0000 -0.0017
                                            0.0014  0.0259 -0.0035  0.0008 -0.0004
   178. (0.05726) BD*( 1) O   1 - H   4  
                ( 22.37%)   0.4729* O   1 s( 26.11%)p 2.81( 73.36%)d 0.02(  0.52%)
                                                  f 0.00(  0.01%)
                                            0.0003  0.5109 -0.0066 -0.0073  0.0018
                                           -0.1771  0.0183  0.0028  0.0020 -0.6627
                                            0.0112  0.0062  0.0018  0.5123 -0.0061
                                           -0.0050 -0.0037 -0.0050 -0.0029 -0.0002
                                            0.0033  0.0023  0.0005 -0.0615 -0.0037
                                            0.0005 -0.0367 -0.0033 -0.0023  0.0042
                                            0.0017  0.0020 -0.0078  0.0004  0.0004
                                           -0.0005 -0.0027 -0.0007 -0.0042 -0.0018
                                            0.0017  0.0018  0.0002  0.0016 -0.0024
                                            0.0020
                ( 77.63%)  -0.8811* H   4 s( 99.82%)p 0.00(  0.17%)d 0.00(  0.00%)
                                            0.9988  0.0240  0.0009  0.0003  0.0115
                                            0.0069 -0.0024 -0.0045  0.0246  0.0071
                                            0.0231 -0.0184 -0.0037 -0.0006 -0.0019
                                            0.0011  0.0015 -0.0011  0.0000 -0.0007
                                            0.0009 -0.0013 -0.0016


 NHO Directionality and "Bond Bending" (deviations from line of nuclear centers)

         [Thresholds for printing:  angular deviation  >  1.0 degree]
                                    hybrid p-character > 25.0%
                                    orbital occupancy  >  0.10e

                                Line of Centers        Hybrid 1              Hybrid 2
                                ---------------  -------------------   ------------------
                NBO               Theta   Phi    Theta   Phi    Dev    Theta   Phi    Dev
 ========================================================================================
     1. BD (   1) O   1 -Cl   2    90.0    0.0    87.3  358.2   3.2      --     --    --
     2. BD (   1) O   1 - H   4    55.0  257.5    53.1  256.5   2.1      --     --    --
    23. LP (   1) O   1             --     --    124.5  121.2   --       --     --    --
    24. LP (   2) O   1             --     --     37.9   92.1   --       --     --    --
    26. LP (   2)Cl   2             --     --    149.9  270.4   --       --     --    --
    27. LP (   3)Cl   2             --     --    120.2   90.2   --       --     --    --
    29. LP (   2)Br   3             --     --    105.0  353.6   --       --     --    --
    30. LP (   3)Br   3             --     --     25.5  298.0   --       --     --    --
    31. LP (   4)Br   3             --     --     69.7   78.0   --       --     --    --


 Natural Bond Orbitals (Summary):

           NBO                  Occupancy  
 -----------------------------------------------
 Molecular unit  1  (HOCl)
     1. BD (   1) O   1 -Cl   2          1.93888
     2. BD (   1) O   1 - H   4          1.96526
     3. CR (   1) O   1                  1.99969
     4. CR (   1)Cl   2                  2.00000
     5. CR (   2)Cl   2                  1.99982
     6. CR (   3)Cl   2                  1.99997
     7. CR (   4)Cl   2                  2.00003
     8. CR (   5)Cl   2                  2.00003
    23. LP (   1) O   1                  1.96855
    24. LP (   2) O   1                  1.95364
    25. LP (   1)Cl   2                  1.97446
    26. LP (   2)Cl   2                  1.95620
    27. LP (   3)Cl   2                  1.95504
    32. RY*(   1) O   1                  0.01940
    33. RY*(   2) O   1                  0.01527
    34. RY*(   3) O   1                  0.00770
    35. RY*(   4) O   1                  0.00704
    36. RY*(   5) O   1                  0.00628
    37. RY*(   6) O   1                  0.00603
    38. RY*(   7) O   1                  0.00568
    39. RY*(   8) O   1                  0.00270
    40. RY*(   9) O   1                  0.00253
    41. RY*(  10) O   1                  0.00078
    42. RY*(  11) O   1                  0.00067
    43. RY*(  12) O   1                  0.00063
    44. RY*(  13) O   1                  0.00057
    45. RY*(  14) O   1                  0.00051
    46. RY*(  15) O   1                  0.00049
    47. RY*(  16) O   1                  0.00048
    48. RY*(  17) O   1                  0.00049
    49. RY*(  18) O   1                  0.00046
    50. RY*(  19) O   1                  0.00045
    51. RY*(  20) O   1                  0.00044
    52. RY*(  21) O   1                  0.00044
    53. RY*(  22) O   1                  0.00041
    54. RY*(  23) O   1                  0.00034
    55. RY*(  24) O   1                  0.00030
    56. RY*(  25) O   1                  0.00024
    57. RY*(  26) O   1                  0.00020
    58. RY*(  27) O   1                  0.00015
    59. RY*(  28) O   1                  0.00013
    60. RY*(  29) O   1                  0.00013
    61. RY*(  30) O   1                  0.00010
    62. RY*(  31) O   1                  0.00009
    63. RY*(  32) O   1                  0.00008
    64. RY*(  33) O   1                  0.00007
    65. RY*(  34) O   1                  0.00008
    66. RY*(  35) O   1                  0.00007
    67. RY*(  36) O   1                  0.00008
    68. RY*(  37) O   1                  0.00005
    69. RY*(  38) O   1                  0.00005
    70. RY*(  39) O   1                  0.00005
    71. RY*(  40) O   1                  0.00004
    72. RY*(  41) O   1                  0.00002
    73. RY*(   1)Cl   2                  0.02197
    74. RY*(   2)Cl   2                  0.01733
    75. RY*(   3)Cl   2                  0.01681
    76. RY*(   4)Cl   2                  0.01630
    77. RY*(   5)Cl   2                  0.01165
    78. RY*(   6)Cl   2                  0.00917
    79. RY*(   7)Cl   2                  0.00897
    80. RY*(   8)Cl   2                  0.00626
    81. RY*(   9)Cl   2                  0.00172
    82. RY*(  10)Cl   2                  0.00126
    83. RY*(  11)Cl   2                  0.00126
    84. RY*(  12)Cl   2                  0.00119
    85. RY*(  13)Cl   2                  0.00119
    86. RY*(  14)Cl   2                  0.00116
    87. RY*(  15)Cl   2                  0.00109
    88. RY*(  16)Cl   2                  0.00094
    89. RY*(  17)Cl   2                  0.00076
    90. RY*(  18)Cl   2                  0.00074
    91. RY*(  19)Cl   2                  0.00062
    92. RY*(  20)Cl   2                  0.00054
    93. RY*(  21)Cl   2                  0.00041
    94. RY*(  22)Cl   2                  0.00038
    95. RY*(  23)Cl   2                  0.00033
    96. RY*(  24)Cl   2                  0.00031
    97. RY*(  25)Cl   2                  0.00019
    98. RY*(  26)Cl   2                  0.00015
    99. RY*(  27)Cl   2                  0.00014
   100. RY*(  28)Cl   2                  0.00013
   101. RY*(  29)Cl   2                  0.00013
   102. RY*(  30)Cl   2                  0.00011
   103. RY*(  31)Cl   2                  0.00011
   104. RY*(  32)Cl   2                  0.00011
   105. RY*(  33)Cl   2                  0.00010
   106. RY*(  34)Cl   2                  0.00010
   107. RY*(  35)Cl   2                  0.00009
   108. RY*(  36)Cl   2                  0.00010
   109. RY*(  37)Cl   2                  0.00007
   110. RY*(  38)Cl   2                  0.00006
   111. RY*(  39)Cl   2                  0.00003
   112. RY*(  40)Cl   2                  0.00003
   113. RY*(  41)Cl   2                  0.00001
   155. RY*(   1) H   4                  0.00842
   156. RY*(   2) H   4                  0.00496
   157. RY*(   3) H   4                  0.00337
   158. RY*(   4) H   4                  0.00273
   159. RY*(   5) H   4                  0.00054
   160. RY*(   6) H   4                  0.00048
   161. RY*(   7) H   4                  0.00038
   162. RY*(   8) H   4                  0.00027
   163. RY*(   9) H   4                  0.00027
   164. RY*(  10) H   4                  0.00023
   165. RY*(  11) H   4                  0.00020
   166. RY*(  12) H   4                  0.00017
   167. RY*(  13) H   4                  0.00013
   168. RY*(  14) H   4                  0.00012
   169. RY*(  15) H   4                  0.00010
   170. RY*(  16) H   4                  0.00010
   171. RY*(  17) H   4                  0.00007
   172. RY*(  18) H   4                  0.00005
   173. RY*(  19) H   4                  0.00006
   174. RY*(  20) H   4                  0.00005
   175. RY*(  21) H   4                  0.00005
   176. RY*(  22) H   4                  0.00003
   177. BD*(   1) O   1 -Cl   2          0.05916
   178. BD*(   1) O   1 - H   4          0.05726
       -------------------------------
              Total Lewis   25.71157  ( 98.6763%)
        Valence non-Lewis    0.11642  (  0.4468%)
        Rydberg non-Lewis    0.22848  (  0.8769%)
       -------------------------------
            Total unit  1   26.05646  (100.0000%)
           Charge unit  1   -0.05646

 Molecular unit  2  (Br)
     9. CR (   1)Br   3                  2.00001
    10. CR (   2)Br   3                  2.00000
    11. CR (   3)Br   3                  2.00000
    12. CR (   4)Br   3                  2.00002
    13. CR (   5)Br   3                  2.00000
    14. CR (   6)Br   3                  2.00000
    15. CR (   7)Br   3                  2.00000
    16. CR (   8)Br   3                  2.00002
    17. CR (   9)Br   3                  2.00000
    18. CR (  10)Br   3                  1.99767
    19. CR (  11)Br   3                  1.99769
    20. CR (  12)Br   3                  1.99767
    21. CR (  13)Br   3                  1.99766
    22. CR (  14)Br   3                  1.99768
    28. LP (   1)Br   3                  1.98006
    29. LP (   2)Br   3                  1.95365
    30. LP (   3)Br   3                  1.95326
    31. LP (   4)Br   3                  1.91092
   114. RY*(   1)Br   3                  0.01894
   115. RY*(   2)Br   3                  0.01889
   116. RY*(   3)Br   3                  0.01873
   117. RY*(   4)Br   3                  0.01873
   118. RY*(   5)Br   3                  0.01838
   119. RY*(   6)Br   3                  0.01180
   120. RY*(   7)Br   3                  0.01178
   121. RY*(   8)Br   3                  0.01031
   122. RY*(   9)Br   3                  0.00327
   123. RY*(  10)Br   3                  0.00181
   124. RY*(  11)Br   3                  0.00181
   125. RY*(  12)Br   3                  0.00177
   126. RY*(  13)Br   3                  0.00176
   127. RY*(  14)Br   3                  0.00176
   128. RY*(  15)Br   3                  0.00176
   129. RY*(  16)Br   3                  0.00176
   130. RY*(  17)Br   3                  0.00176
   131. RY*(  18)Br   3                  0.00177
   132. RY*(  19)Br   3                  0.00153
   133. RY*(  20)Br   3                  0.00154
   134. RY*(  21)Br   3                  0.00139
   135. RY*(  22)Br   3                  0.00081
   136. RY*(  23)Br   3                  0.00081
   137. RY*(  24)Br   3                  0.00078
   138. RY*(  25)Br   3                  0.00049
   139. RY*(  26)Br   3                  0.00029
   140. RY*(  27)Br   3                  0.00026
   141. RY*(  28)Br   3                  0.00027
   142. RY*(  29)Br   3                  0.00025
   143. RY*(  30)Br   3                  0.00024
   144. RY*(  31)Br   3                  0.00024
   145. RY*(  32)Br   3                  0.00025
   146. RY*(  33)Br   3                  0.00023
   147. RY*(  34)Br   3                  0.00023
   148. RY*(  35)Br   3                  0.00020
   149. RY*(  36)Br   3                  0.00018
   150. RY*(  37)Br   3                  0.00017
   151. RY*(  38)Br   3                  0.00012
   152. RY*(  39)Br   3                  0.00007
   153. RY*(  40)Br   3                  0.00007
   154. RY*(  41)Br   3                  0.00005
       -------------------------------
              Total Lewis   35.78629  ( 99.5625%)
        Valence non-Lewis    0.00000  (  0.0000%)
        Rydberg non-Lewis    0.15724  (  0.4375%)
       -------------------------------
            Total unit  2   35.94354  (100.0000%)
           Charge unit  2   -0.94354
 Leave Link  607 at Fri Nov  5 16:37:29 2021, MaxMem= 16106127360 cpu:              67.8 elap:               2.4
 (Enter /sw/contrib/gaussian/g16/B01/g16/l9999.exe)
 1\1\GINC-N2219\SP\RMP2-FC\Aug-CC-pVTZ\Br1Cl1H1O1(1-)\CGAVINH\05-Nov-20
 21\0\\#p pop=NBO SP NoSymm mp2/aug-cc-pvtz density=current\\title\\-1,
 1\O\X,1,10.\Cl,1,1.69735154,2,90.\Br,1,3.09318778,2,90.,3,102.48429983
 ,0\H,1,0.96862334,2,55.,3,102.48429983,0\\Version=ES64L-G16RevB.01\HF=
 -3107.4698239\MP2=-3108.1697317\RMSD=6.204e-09\Dipole=0.973271,1.27520
 23,0.2027712\Quadrupole=8.4559052,-18.8110085,10.3551033,-6.6964546,-0
 .1681697,-0.1027718\PG=C01 [X(Br1Cl1H1O1)]\\@


 AND THIS OUR LIFE, EXEMPT FROM PUBLIC HAUNT,
 FINDS TONGUES IN TREES, BOOKS IN THE RUNNING BROOKS,
 SERMONS IN STONES, AND GOOD IN EVERYTHING.
 I WOULD NOT CHANGE IT. -- W. SHAKESPEARE
 AS YOU LIKE IT, ACT II, SCENE 1.
 Job cpu time:       0 days  0 hours  5 minutes 55.5 seconds.
 Elapsed time:       0 days  0 hours  0 minutes 19.1 seconds.
 File lengths (MBytes):  RWF=     15 Int=      0 D2E=      0 Chk=      8 Scr=      1
 Normal termination of Gaussian 16 at Fri Nov  5 16:37:29 2021.
