 Entering Gaussian System, Link 0=g16
 Input=brhocl_oop_05_sp.gjf
 Output=brhocl_oop_05_sp.log
 Initial command:
 /sw/contrib/gaussian/g16/B01/g16/l1.exe "/scr/Gau-15852.inp" -scrdir="/scr/"
 Entering Link 1 = /sw/contrib/gaussian/g16/B01/g16/l1.exe PID=     15853.
  
 Copyright (c) 1988-2017, Gaussian, Inc.  All Rights Reserved.
  
 This is part of the Gaussian(R) 16 program.  It is based on
 the Gaussian(R) 09 system (copyright 2009, Gaussian, Inc.),
 the Gaussian(R) 03 system (copyright 2003, Gaussian, Inc.),
 the Gaussian(R) 98 system (copyright 1998, Gaussian, Inc.),
 the Gaussian(R) 94 system (copyright 1995, Gaussian, Inc.),
 the Gaussian 92(TM) system (copyright 1992, Gaussian, Inc.),
 the Gaussian 90(TM) system (copyright 1990, Gaussian, Inc.),
 the Gaussian 88(TM) system (copyright 1988, Gaussian, Inc.),
 the Gaussian 86(TM) system (copyright 1986, Carnegie Mellon
 University), and the Gaussian 82(TM) system (copyright 1983,
 Carnegie Mellon University). Gaussian is a federally registered
 trademark of Gaussian, Inc.
  
 This software contains proprietary and confidential information,
 including trade secrets, belonging to Gaussian, Inc.
  
 This software is provided under written license and may be
 used, copied, transmitted, or stored only in accord with that
 written license.
  
 The following legend is applicable only to US Government
 contracts under FAR:
  
                    RESTRICTED RIGHTS LEGEND
  
 Use, reproduction and disclosure by the US Government is
 subject to restrictions as set forth in subparagraphs (a)
 and (c) of the Commercial Computer Software - Restricted
 Rights clause in FAR 52.227-19.
  
 Gaussian, Inc.
 340 Quinnipiac St., Bldg. 40, Wallingford CT 06492
  
  
 ---------------------------------------------------------------
 Warning -- This program may not be used in any manner that
 competes with the business of Gaussian, Inc. or will provide
 assistance to any competitor of Gaussian, Inc.  The licensee
 of this program is prohibited from giving any competitor of
 Gaussian, Inc. access to this program.  By using this program,
 the user acknowledges that Gaussian, Inc. is engaged in the
 business of creating and licensing software in the field of
 computational chemistry and represents and warrants to the
 licensee that it is not a competitor of Gaussian, Inc. and that
 it will not use this program in any manner prohibited above.
 ---------------------------------------------------------------
  

 Cite this work as:
 Gaussian 16, Revision B.01,
 M. J. Frisch, G. W. Trucks, H. B. Schlegel, G. E. Scuseria, 
 M. A. Robb, J. R. Cheeseman, G. Scalmani, V. Barone, 
 G. A. Petersson, H. Nakatsuji, X. Li, M. Caricato, A. V. Marenich, 
 J. Bloino, B. G. Janesko, R. Gomperts, B. Mennucci, H. P. Hratchian, 
 J. V. Ortiz, A. F. Izmaylov, J. L. Sonnenberg, D. Williams-Young, 
 F. Ding, F. Lipparini, F. Egidi, J. Goings, B. Peng, A. Petrone, 
 T. Henderson, D. Ranasinghe, V. G. Zakrzewski, J. Gao, N. Rega, 
 G. Zheng, W. Liang, M. Hada, M. Ehara, K. Toyota, R. Fukuda, 
 J. Hasegawa, M. Ishida, T. Nakajima, Y. Honda, O. Kitao, H. Nakai, 
 T. Vreven, K. Throssell, J. A. Montgomery, Jr., J. E. Peralta, 
 F. Ogliaro, M. J. Bearpark, J. J. Heyd, E. N. Brothers, K. N. Kudin, 
 V. N. Staroverov, T. A. Keith, R. Kobayashi, J. Normand, 
 K. Raghavachari, A. P. Rendell, J. C. Burant, S. S. Iyengar, 
 J. Tomasi, M. Cossi, J. M. Millam, M. Klene, C. Adamo, R. Cammi, 
 J. W. Ochterski, R. L. Martin, K. Morokuma, O. Farkas, 
 J. B. Foresman, and D. J. Fox, Gaussian, Inc., Wallingford CT, 2016.
 
 ******************************************
 Gaussian 16:  ES64L-G16RevB.01 20-Dec-2017
                 5-Nov-2021 
 ******************************************
 %nproc=28
 Will use up to   28 processors via shared memory.
 %mem=120GB
 %chk=/gscratch/ilahie/mccoygrp/coire_hocl/oop_s_rOH_f/brhocl/brhocl_oop_0_sp.chk
 ----------------------------------------------------
 #p pop=NBO SP NoSymm mp2/aug-cc-pvtz density=current
 ----------------------------------------------------
 1/30=1,38=1,172=1/1;
 2/12=2,15=1,17=6,18=5,40=1/2;
 3/5=16,6=1,7=10,11=9,25=1,30=1,71=1/1,2,3;
 4//1;
 5/5=2,38=5/2;
 8/6=4,10=1/1;
 9/15=1,16=-3/6;
 10/5=1,13=10,31=1/2;
 6/7=2,8=2,9=2,10=2,22=-1,40=1/1,7;
 99/5=1,9=1/99;
 Leave Link    1 at Fri Nov  5 16:35:13 2021, MaxMem= 16106127360 cpu:               1.6 elap:               0.1
 (Enter /sw/contrib/gaussian/g16/B01/g16/l101.exe)
 -----
 title
 -----
 Symbolic Z-matrix:
 Charge = -1 Multiplicity = 1
 O
 X                    1     10. 
 Cl                   1    r1       2     90. 
 Br                   1    r2       2     90.      3    a1       0
 H                    1    r3       2    oop      3    a1       0
       Variables:
  r1                    1.69705                  
  r2                    3.09319                  
  r3                    0.96862                  
  a1                  102.4843                   
  OOP                  85.                       
 
 ITRead=  0  0  0  0
 MicOpt= -1 -1 -1 -1
 NAtoms=      4 NQM=        4 NQMF=       0 NMMI=      0 NMMIF=      0
                NMic=       0 NMicF=      0.
                    Isotopes and Nuclear Properties:
 (Nuclear quadrupole moments (NQMom) in fm**2, nuclear magnetic moments (NMagM)
  in nuclear magnetons)

  Atom         1           2           3           4
 IAtWgt=          16          35          79           1
 AtmWgt=  15.9949146  34.9688527  78.9183361   1.0078250
 NucSpn=           0           3           3           1
 AtZEff=  -0.0000000  -0.0000000  -0.0000000  -0.0000000
 NQMom=    0.0000000  -8.1650000  31.3000000   0.0000000
 NMagM=    0.0000000   0.8218740   2.1063990   2.7928460
 AtZNuc=   8.0000000  17.0000000  35.0000000   1.0000000
 Leave Link  101 at Fri Nov  5 16:35:14 2021, MaxMem= 16106127360 cpu:               2.2 elap:               0.1
 (Enter /sw/contrib/gaussian/g16/B01/g16/l202.exe)
                          Input orientation:                          
 ---------------------------------------------------------------------
 Center     Atomic      Atomic             Coordinates (Angstroms)
 Number     Number       Type             X           Y           Z
 ---------------------------------------------------------------------
      1          8           0        0.000000    0.000000    0.000000
      2         17           0        1.697052    0.000000    0.000000
      3         35           0       -0.668661   -3.020050    0.000000
      4          1           0       -0.208593   -0.942122    0.084421
 ---------------------------------------------------------------------
                    Distance matrix (angstroms):
                    1          2          3          4
     1  O    0.000000
     2  Cl   1.697052   0.000000
     3  Br   3.093188   3.836313   0.000000
     4  H    0.968623   2.127487   2.129924   0.000000
 Symmetry turned off by external request.
 Stoichiometry    BrClHO(1-)
 Framework group  C1[X(BrClHO)]
 Deg. of freedom     6
 Full point group                 C1      NOp   1
 Rotational constants (GHZ):          21.8985770           1.2765405           1.2062658
 Leave Link  202 at Fri Nov  5 16:35:14 2021, MaxMem= 16106127360 cpu:               2.2 elap:               0.1
 (Enter /sw/contrib/gaussian/g16/B01/g16/l301.exe)
 Standard basis: Aug-CC-pVTZ (5D, 7F)
 Ernie: Thresh=  0.10000D-02 Tol=  0.10000D-05 Strict=F.
 Ernie:  48 primitive shells out of 228 were deleted.
   178 basis functions,   430 primitive gaussians,   208 cartesian basis functions
    31 alpha electrons       31 beta electrons
       nuclear repulsion energy       189.6780816523 Hartrees.
 IExCor=    0 DFT=F Ex=HF Corr=None ExCW=0 ScaHFX=  1.000000
 ScaDFX=  1.000000  1.000000  1.000000  1.000000 ScalE2=  1.000000  1.000000
 IRadAn=      5 IRanWt=     -1 IRanGd=            0 ICorTp=0 IEmpDi=  4
 NAtoms=    4 NActive=    4 NUniq=    4 SFac= 1.00D+00 NAtFMM=   60 NAOKFM=F Big=F
 Integral buffers will be    131072 words long.
 Raffenetti 1 integral format.
 Two-electron integral symmetry is turned off.
 Leave Link  301 at Fri Nov  5 16:35:14 2021, MaxMem= 16106127360 cpu:               1.3 elap:               0.1
 (Enter /sw/contrib/gaussian/g16/B01/g16/l302.exe)
 NPDir=0 NMtPBC=     1 NCelOv=     1 NCel=       1 NClECP=     1 NCelD=      1
         NCelK=      1 NCelE2=     1 NClLst=     1 CellRange=     0.0.
 One-electron integrals computed using PRISM.
 NBasis=   178 RedAO= T EigKep=  2.27D-04  NBF=   178
 NBsUse=   178 1.00D-06 EigRej= -1.00D+00 NBFU=   178
 Leave Link  302 at Fri Nov  5 16:35:14 2021, MaxMem= 16106127360 cpu:               4.5 elap:               0.2
 (Enter /sw/contrib/gaussian/g16/B01/g16/l303.exe)
 DipDrv:  MaxL=1.
 Leave Link  303 at Fri Nov  5 16:35:14 2021, MaxMem= 16106127360 cpu:               0.7 elap:               0.1
 (Enter /sw/contrib/gaussian/g16/B01/g16/l401.exe)
 ExpMin= 2.53D-02 ExpMax= 1.06D+07 ExpMxC= 1.21D+04 IAcc=3 IRadAn=         5 AccDes= 0.00D+00
 Harris functional with IExCor=  205 and IRadAn=       5 diagonalized for initial guess.
 HarFok:  IExCor=  205 AccDes= 0.00D+00 IRadAn=         5 IDoV= 1 UseB2=F ITyADJ=14
 ICtDFT=  3500011 ScaDFX=  1.000000  1.000000  1.000000  1.000000
 FoFCou: FMM=F IPFlag=           0 FMFlag=      100000 FMFlg1=           0
         NFxFlg=           0 DoJE=T BraDBF=F KetDBF=T FulRan=T
         wScrn=  0.000000 ICntrl=       500 IOpCl=  0 I1Cent=   200000004 NGrid=           0
         NMat0=    1 NMatS0=      1 NMatT0=    0 NMatD0=    1 NMtDS0=    0 NMtDT0=    0
 Symmetry not used in FoFCou.
 Harris En= -3106.39201835903    
 JPrj=0 DoOrth=F DoCkMO=F.
 Leave Link  401 at Fri Nov  5 16:35:14 2021, MaxMem= 16106127360 cpu:               8.0 elap:               0.3
 (Enter /sw/contrib/gaussian/g16/B01/g16/l502.exe)
 Keep R1 ints in memory in canonical form, NReq=149454910.
 FoFCou: FMM=F IPFlag=           0 FMFlag=           0 FMFlg1=           0
         NFxFlg=           0 DoJE=F BraDBF=F KetDBF=F FulRan=T
         wScrn=  0.000000 ICntrl=       600 IOpCl=  0 I1Cent=           0 NGrid=           0
         NMat0=    1 NMatS0=  15931 NMatT0=    0 NMatD0=    1 NMtDS0=    0 NMtDT0=    0
 Symmetry not used in FoFCou.
 Two-electron integral symmetry not used.
 Closed shell SCF:
 Using DIIS extrapolation, IDIIS=  1040.
 NGot= 16106127360 LenX= 15979127348 LenY= 15979083643
 Requested convergence on RMS density matrix=1.00D-08 within 128 cycles.
 Requested convergence on MAX density matrix=1.00D-06.
 Requested convergence on             energy=1.00D-06.
 No special actions if energy rises.

 Cycle   1  Pass 1  IDiag  1:
 E= -3107.31238154568    
 DIIS: error= 6.00D-02 at cycle   1 NSaved=   1.
 NSaved= 1 IEnMin= 1 EnMin= -3107.31238154568     IErMin= 1 ErrMin= 6.00D-02
 ErrMax= 6.00D-02  0.00D+00 EMaxC= 1.00D-01 BMatC= 6.40D-01 BMatP= 6.40D-01
 IDIUse=3 WtCom= 4.00D-01 WtEn= 6.00D-01
 Coeff-Com:  0.100D+01
 Coeff-En:   0.100D+01
 Coeff:      0.100D+01
 Gap=     0.560 Goal=   None    Shift=    0.000
 GapD=    0.560 DampG=2.000 DampE=0.500 DampFc=1.0000 IDamp=-1.
 RMSDP=3.06D-03 MaxDP=9.88D-02              OVMax= 1.21D-01

 Cycle   2  Pass 1  IDiag  1:
 E= -3107.44942506656     Delta-E=       -0.137043520881 Rises=F Damp=F
 DIIS: error= 1.75D-02 at cycle   2 NSaved=   2.
 NSaved= 2 IEnMin= 2 EnMin= -3107.44942506656     IErMin= 2 ErrMin= 1.75D-02
 ErrMax= 1.75D-02  0.00D+00 EMaxC= 1.00D-01 BMatC= 4.58D-02 BMatP= 6.40D-01
 IDIUse=3 WtCom= 8.25D-01 WtEn= 1.75D-01
 Coeff-Com:  0.139D+00 0.861D+00
 Coeff-En:   0.000D+00 0.100D+01
 Coeff:      0.115D+00 0.885D+00
 Gap=     0.329 Goal=   None    Shift=    0.000
 RMSDP=1.13D-03 MaxDP=3.93D-02 DE=-1.37D-01 OVMax= 7.66D-02

 Cycle   3  Pass 1  IDiag  1:
 E= -3107.46929564328     Delta-E=       -0.019870576723 Rises=F Damp=F
 DIIS: error= 8.79D-03 at cycle   3 NSaved=   3.
 NSaved= 3 IEnMin= 3 EnMin= -3107.46929564328     IErMin= 3 ErrMin= 8.79D-03
 ErrMax= 8.79D-03  0.00D+00 EMaxC= 1.00D-01 BMatC= 1.42D-02 BMatP= 4.58D-02
 IDIUse=3 WtCom= 9.12D-01 WtEn= 8.79D-02
 Coeff-Com:  0.664D-02 0.355D+00 0.638D+00
 Coeff-En:   0.000D+00 0.170D+00 0.830D+00
 Coeff:      0.606D-02 0.339D+00 0.655D+00
 Gap=     0.328 Goal=   None    Shift=    0.000
 RMSDP=3.50D-04 MaxDP=1.43D-02 DE=-1.99D-02 OVMax= 3.69D-02

 Cycle   4  Pass 1  IDiag  1:
 E= -3107.47906841739     Delta-E=       -0.009772774110 Rises=F Damp=F
 DIIS: error= 1.39D-03 at cycle   4 NSaved=   4.
 NSaved= 4 IEnMin= 4 EnMin= -3107.47906841739     IErMin= 4 ErrMin= 1.39D-03
 ErrMax= 1.39D-03  0.00D+00 EMaxC= 1.00D-01 BMatC= 1.75D-04 BMatP= 1.42D-02
 IDIUse=3 WtCom= 9.86D-01 WtEn= 1.39D-02
 Coeff-Com: -0.515D-02-0.313D-01 0.429D-01 0.994D+00
 Coeff-En:   0.000D+00 0.000D+00 0.000D+00 0.100D+01
 Coeff:     -0.508D-02-0.309D-01 0.423D-01 0.994D+00
 Gap=     0.327 Goal=   None    Shift=    0.000
 RMSDP=6.15D-05 MaxDP=1.47D-03 DE=-9.77D-03 OVMax= 3.67D-03

 Cycle   5  Pass 1  IDiag  1:
 E= -3107.47927157592     Delta-E=       -0.000203158530 Rises=F Damp=F
 DIIS: error= 2.33D-04 at cycle   5 NSaved=   5.
 NSaved= 5 IEnMin= 5 EnMin= -3107.47927157592     IErMin= 5 ErrMin= 2.33D-04
 ErrMax= 2.33D-04  0.00D+00 EMaxC= 1.00D-01 BMatC= 1.25D-05 BMatP= 1.75D-04
 IDIUse=3 WtCom= 9.98D-01 WtEn= 2.33D-03
 Coeff-Com:  0.852D-03-0.165D-01-0.381D-01-0.183D+00 0.124D+01
 Coeff-En:   0.000D+00 0.000D+00 0.000D+00 0.000D+00 0.100D+01
 Coeff:      0.850D-03-0.165D-01-0.380D-01-0.183D+00 0.124D+01
 Gap=     0.328 Goal=   None    Shift=    0.000
 RMSDP=3.12D-05 MaxDP=1.10D-03 DE=-2.03D-04 OVMax= 2.98D-03

 Cycle   6  Pass 1  IDiag  1:
 E= -3107.47930691653     Delta-E=       -0.000035340602 Rises=F Damp=F
 DIIS: error= 1.18D-04 at cycle   6 NSaved=   6.
 NSaved= 6 IEnMin= 6 EnMin= -3107.47930691653     IErMin= 6 ErrMin= 1.18D-04
 ErrMax= 1.18D-04  0.00D+00 EMaxC= 1.00D-01 BMatC= 1.76D-06 BMatP= 1.25D-05
 IDIUse=3 WtCom= 9.99D-01 WtEn= 1.18D-03
 Coeff-Com:  0.471D-03 0.416D-02-0.768D-03-0.122D+00-0.567D-01 0.118D+01
 Coeff-En:   0.000D+00 0.000D+00 0.000D+00 0.000D+00 0.000D+00 0.100D+01
 Coeff:      0.470D-03 0.416D-02-0.767D-03-0.122D+00-0.566D-01 0.117D+01
 Gap=     0.328 Goal=   None    Shift=    0.000
 RMSDP=1.32D-05 MaxDP=5.42D-04 DE=-3.53D-05 OVMax= 1.47D-03

 Cycle   7  Pass 1  IDiag  1:
 E= -3107.47931291224     Delta-E=       -0.000005995715 Rises=F Damp=F
 DIIS: error= 4.39D-05 at cycle   7 NSaved=   7.
 NSaved= 7 IEnMin= 7 EnMin= -3107.47931291224     IErMin= 7 ErrMin= 4.39D-05
 ErrMax= 4.39D-05  0.00D+00 EMaxC= 1.00D-01 BMatC= 1.89D-07 BMatP= 1.76D-06
 IDIUse=1 WtCom= 1.00D+00 WtEn= 0.00D+00
 Coeff-Com: -0.235D-03 0.885D-03 0.637D-02 0.552D-01-0.160D+00-0.257D+00
 Coeff-Com:  0.135D+01
 Coeff:     -0.235D-03 0.885D-03 0.637D-02 0.552D-01-0.160D+00-0.257D+00
 Coeff:      0.135D+01
 Gap=     0.328 Goal=   None    Shift=    0.000
 RMSDP=5.40D-06 MaxDP=1.93D-04 DE=-6.00D-06 OVMax= 5.65D-04

 Cycle   8  Pass 1  IDiag  1:
 E= -3107.47931364371     Delta-E=       -0.000000731465 Rises=F Damp=F
 DIIS: error= 8.52D-06 at cycle   8 NSaved=   8.
 NSaved= 8 IEnMin= 8 EnMin= -3107.47931364371     IErMin= 8 ErrMin= 8.52D-06
 ErrMax= 8.52D-06  0.00D+00 EMaxC= 1.00D-01 BMatC= 9.80D-09 BMatP= 1.89D-07
 IDIUse=1 WtCom= 1.00D+00 WtEn= 0.00D+00
 Coeff-Com:  0.182D-04-0.551D-03-0.120D-02-0.425D-02 0.305D-01 0.920D-02
 Coeff-Com: -0.329D+00 0.130D+01
 Coeff:      0.182D-04-0.551D-03-0.120D-02-0.425D-02 0.305D-01 0.920D-02
 Coeff:     -0.329D+00 0.130D+01
 Gap=     0.328 Goal=   None    Shift=    0.000
 RMSDP=1.28D-06 MaxDP=2.78D-05 DE=-7.31D-07 OVMax= 1.45D-04

 Cycle   9  Pass 1  IDiag  1:
 E= -3107.47931368402     Delta-E=       -0.000000040315 Rises=F Damp=F
 DIIS: error= 3.42D-06 at cycle   9 NSaved=   9.
 NSaved= 9 IEnMin= 9 EnMin= -3107.47931368402     IErMin= 9 ErrMin= 3.42D-06
 ErrMax= 3.42D-06  0.00D+00 EMaxC= 1.00D-01 BMatC= 1.26D-09 BMatP= 9.80D-09
 IDIUse=1 WtCom= 1.00D+00 WtEn= 0.00D+00
 Coeff-Com:  0.112D-04 0.389D-04-0.173D-03-0.264D-02 0.423D-02 0.176D-01
 Coeff-Com: -0.235D-01-0.341D+00 0.135D+01
 Coeff:      0.112D-04 0.389D-04-0.173D-03-0.264D-02 0.423D-02 0.176D-01
 Coeff:     -0.235D-01-0.341D+00 0.135D+01
 Gap=     0.328 Goal=   None    Shift=    0.000
 RMSDP=5.04D-07 MaxDP=1.36D-05 DE=-4.03D-08 OVMax= 6.49D-05

 Cycle  10  Pass 1  IDiag  1:
 E= -3107.47931369035     Delta-E=       -0.000000006334 Rises=F Damp=F
 DIIS: error= 1.62D-06 at cycle  10 NSaved=  10.
 NSaved=10 IEnMin=10 EnMin= -3107.47931369035     IErMin=10 ErrMin= 1.62D-06
 ErrMax= 1.62D-06  0.00D+00 EMaxC= 1.00D-01 BMatC= 2.28D-10 BMatP= 1.26D-09
 IDIUse=1 WtCom= 1.00D+00 WtEn= 0.00D+00
 Coeff-Com: -0.421D-05 0.121D-03 0.242D-03 0.720D-03-0.628D-02-0.579D-03
 Coeff-Com:  0.598D-01-0.211D+00-0.138D+00 0.130D+01
 Coeff:     -0.421D-05 0.121D-03 0.242D-03 0.720D-03-0.628D-02-0.579D-03
 Coeff:      0.598D-01-0.211D+00-0.138D+00 0.130D+01
 Gap=     0.328 Goal=   None    Shift=    0.000
 RMSDP=2.57D-07 MaxDP=7.49D-06 DE=-6.33D-09 OVMax= 3.24D-05

 Cycle  11  Pass 1  IDiag  1:
 E= -3107.47931369151     Delta-E=       -0.000000001153 Rises=F Damp=F
 DIIS: error= 4.82D-07 at cycle  11 NSaved=  11.
 NSaved=11 IEnMin=11 EnMin= -3107.47931369151     IErMin=11 ErrMin= 4.82D-07
 ErrMax= 4.82D-07  0.00D+00 EMaxC= 1.00D-01 BMatC= 1.79D-11 BMatP= 2.28D-10
 IDIUse=1 WtCom= 1.00D+00 WtEn= 0.00D+00
 Coeff-Com: -0.933D-06-0.313D-04-0.204D-04 0.439D-03 0.174D-03-0.266D-02
 Coeff-Com: -0.460D-02 0.726D-01-0.127D+00-0.249D+00 0.131D+01
 Coeff:     -0.933D-06-0.313D-04-0.204D-04 0.439D-03 0.174D-03-0.266D-02
 Coeff:     -0.460D-02 0.726D-01-0.127D+00-0.249D+00 0.131D+01
 Gap=     0.328 Goal=   None    Shift=    0.000
 RMSDP=7.37D-08 MaxDP=2.32D-06 DE=-1.15D-09 OVMax= 8.95D-06

 Cycle  12  Pass 1  IDiag  1:
 E= -3107.47931369159     Delta-E=       -0.000000000085 Rises=F Damp=F
 DIIS: error= 8.73D-08 at cycle  12 NSaved=  12.
 NSaved=12 IEnMin=12 EnMin= -3107.47931369159     IErMin=12 ErrMin= 8.73D-08
 ErrMax= 8.73D-08  0.00D+00 EMaxC= 1.00D-01 BMatC= 1.07D-12 BMatP= 1.79D-11
 IDIUse=1 WtCom= 1.00D+00 WtEn= 0.00D+00
 Coeff-Com:  0.164D-06-0.751D-05-0.171D-04-0.587D-04 0.460D-03 0.867D-04
 Coeff-Com: -0.480D-02 0.183D-01 0.489D-02-0.109D+00 0.102D+00 0.988D+00
 Coeff:      0.164D-06-0.751D-05-0.171D-04-0.587D-04 0.460D-03 0.867D-04
 Coeff:     -0.480D-02 0.183D-01 0.489D-02-0.109D+00 0.102D+00 0.988D+00
 Gap=     0.328 Goal=   None    Shift=    0.000
 RMSDP=1.18D-08 MaxDP=3.25D-07 DE=-8.55D-11 OVMax= 1.16D-06

 Cycle  13  Pass 1  IDiag  1:
 E= -3107.47931369159     Delta-E=        0.000000000003 Rises=F Damp=F
 DIIS: error= 1.98D-08 at cycle  13 NSaved=  13.
 NSaved=13 IEnMin=12 EnMin= -3107.47931369159     IErMin=13 ErrMin= 1.98D-08
 ErrMax= 1.98D-08  0.00D+00 EMaxC= 1.00D-01 BMatC= 1.07D-13 BMatP= 1.07D-12
 IDIUse=1 WtCom= 1.00D+00 WtEn= 0.00D+00
 Coeff-Com:  0.794D-07 0.254D-05 0.248D-05-0.231D-04-0.489D-04 0.116D-03
 Coeff-Com:  0.102D-02-0.812D-02 0.119D-01 0.292D-01-0.136D+00-0.230D-01
 Coeff-Com:  0.112D+01
 Coeff:      0.794D-07 0.254D-05 0.248D-05-0.231D-04-0.489D-04 0.116D-03
 Coeff:      0.102D-02-0.812D-02 0.119D-01 0.292D-01-0.136D+00-0.230D-01
 Coeff:      0.112D+01
 Gap=     0.328 Goal=   None    Shift=    0.000
 RMSDP=4.29D-09 MaxDP=9.60D-08 DE= 2.73D-12 OVMax= 3.43D-07

 SCF Done:  E(RHF) =  -3107.47931369     A.U. after   13 cycles
            NFock= 13  Conv=0.43D-08     -V/T= 2.0000
 KE= 3.107376576035D+03 PE=-7.821908439255D+03 EE= 1.417374467876D+03
 Leave Link  502 at Fri Nov  5 16:35:18 2021, MaxMem= 16106127360 cpu:              40.5 elap:               4.0
 (Enter /sw/contrib/gaussian/g16/B01/g16/l801.exe)
 ExpMin= 2.53D-02 ExpMax= 1.06D+07 ExpMxC= 1.21D+04 IAcc=3 IRadAn=         5 AccDes= 0.00D+00
 HarFok:  IExCor=  205 AccDes= 0.00D+00 IRadAn=         5 IDoV=-2 UseB2=F ITyADJ=14
 ICtDFT= 12500011 ScaDFX=  1.000000  1.000000  1.000000  1.000000
 Largest valence mixing into a core orbital is  4.48D-04
 Largest core mixing into a valence orbital is  1.60D-04
 Range of M.O.s used for correlation:    16   178
 NBasis=   178 NAE=    31 NBE=    31 NFC=    15 NFV=     0
 NROrb=    163 NOA=    16 NOB=    16 NVA=   147 NVB=   147

 **** Warning!!: The largest alpha MO coefficient is  0.15987755D+02

 Leave Link  801 at Fri Nov  5 16:35:18 2021, MaxMem= 16106127360 cpu:               2.0 elap:               0.1
 (Enter /sw/contrib/gaussian/g16/B01/g16/l906.exe)
 Frozen-core derivative calculation, NFC=  15 NFV=   0.
 FulOut=F Deriv=T AODrv=F NAtomX=     4
   MMem=         124  MDisk=          16 MDiskD=          16
  W3Min=     1147744 MinDsk=     1765480 NBas6D=         208
 NBas2D=       22240    NTT=       21736    LW2=     9911920
    MDV= 16105652851 MDiskM=      387107 NBas2p=       22040
 Fully in-core method, ICMem=   527338992.
 IMap=   1   2   3   4   5   6   7   8   9  10  11  12  13  14  15  16  17  18  19  20
 IMap=  21  22  23  24  25  26  27  28  29  30  31
 JobTyp=1 Pass  1 fully in-core, NPsUse= 28.
 Compute canonical integrals.
 FoFCou: FMM=F IPFlag=           0 FMFlag=           0 FMFlg1=           0
         NFxFlg=           0 DoJE=F BraDBF=F KetDBF=F FulRan=T
         wScrn=  0.000000 ICntrl=       600 IOpCl=  1 I1Cent=           0 NGrid=           0
         NMat0=    1 NMatS0=  22240 NMatT0=    0 NMatD0=    1 NMtDS0=    0 NMtDT0=    0
 Symmetry not used in FoFCou.
 Spin components of T(2) and E(2):
     alpha-alpha T2 =       0.3008905340D-01 E2=     -0.9369246436D-01
     alpha-beta  T2 =       0.1608025332D+00 E2=     -0.5142360768D+00
     beta-beta   T2 =       0.3008905340D-01 E2=     -0.9369246436D-01
 The integrals were generated   1 times.
 ANorm=    0.1104979927D+01
 E2 =    -0.7016210055D+00 EUMP2 =    -0.31081809346971D+04
 Leave Link  906 at Fri Nov  5 16:35:25 2021, MaxMem= 16106127360 cpu:             179.9 elap:               6.5
 (Enter /sw/contrib/gaussian/g16/B01/g16/l1002.exe)
 Minotr:  Closed shell wavefunction.
          Computing MP2/KS-MP2 derivatives.
          Using Z-Vector for PSCF gradient.
          Skipping F1 and S1 gradient terms here.
          Frozen-core window.
          Direct CPHF calculation.
          Differentiating once with respect to electric field.
                with respect to dipole field.
          Electric field/nuclear overlap derivatives assumed to be zero.
          Requested convergence is 1.0D-10 RMS, and 1.0D-09 maximum.
          NewPWx=F KeepS1=T KeepF1=T KeepIn=T MapXYZ=F SortEE=F KeepMc=T.
 Keep R1 ints in memory in canonical form, NReq=149459190.
 FoFCou: FMM=F IPFlag=           0 FMFlag=           0 FMFlg1=           0
         NFxFlg=           0 DoJE=F BraDBF=F KetDBF=F FulRan=T
         wScrn=  0.000000 ICntrl=       600 IOpCl=  0 I1Cent=           0 NGrid=           0
         NMat0=    1 NMatS0=  15931 NMatT0=    0 NMatD0=    1 NMtDS0=    0 NMtDT0=    0
 Symmetry not used in FoFCou.
 Two-electron integral symmetry not used.
          MDV=   16106127360 using IRadAn=       5.
          Solving linear equations separately, MaxMat=       0.
          There are     1 degrees of freedom in the 1st order CPHF.  IDoFFX=0 NUNeed=     1.
 LinEq1:  Iter=  0 NonCon=     1 RMS=2.61D-03 Max=4.39D-02 NDo=     1
 AX will form     1 AO Fock derivatives at one time.
 LinEq1:  Iter=  1 NonCon=     1 RMS=4.12D-04 Max=4.63D-03 NDo=     1
 LinEq1:  Iter=  2 NonCon=     1 RMS=1.97D-04 Max=4.50D-03 NDo=     1
 LinEq1:  Iter=  3 NonCon=     1 RMS=6.39D-05 Max=1.02D-03 NDo=     1
 LinEq1:  Iter=  4 NonCon=     1 RMS=2.72D-05 Max=9.48D-04 NDo=     1
 LinEq1:  Iter=  5 NonCon=     1 RMS=9.72D-06 Max=1.58D-04 NDo=     1
 LinEq1:  Iter=  6 NonCon=     1 RMS=2.07D-06 Max=2.55D-05 NDo=     1
 LinEq1:  Iter=  7 NonCon=     1 RMS=5.32D-07 Max=1.05D-05 NDo=     1
 LinEq1:  Iter=  8 NonCon=     1 RMS=1.76D-07 Max=4.87D-06 NDo=     1
 LinEq1:  Iter=  9 NonCon=     1 RMS=5.42D-08 Max=1.37D-06 NDo=     1
 LinEq1:  Iter= 10 NonCon=     1 RMS=1.44D-08 Max=2.03D-07 NDo=     1
 LinEq1:  Iter= 11 NonCon=     1 RMS=3.20D-09 Max=4.89D-08 NDo=     1
 LinEq1:  Iter= 12 NonCon=     1 RMS=6.13D-10 Max=1.70D-08 NDo=     1
 LinEq1:  Iter= 13 NonCon=     1 RMS=1.92D-10 Max=4.36D-09 NDo=     1
 LinEq1:  Iter= 14 NonCon=     1 RMS=5.86D-11 Max=1.30D-09 NDo=     1
 LinEq1:  Iter= 15 NonCon=     0 RMS=1.09D-11 Max=1.61D-10 NDo=     1
 Linear equations converged to 1.000D-10 1.000D-09 after    15 iterations.
 End of Minotr F.D. properties file   721 does not exist.
 End of Minotr F.D. properties file   722 does not exist.
 End of Minotr F.D. properties file   788 does not exist.
 Leave Link 1002 at Fri Nov  5 16:35:30 2021, MaxMem= 16106127360 cpu:              40.8 elap:               4.7
 (Enter /sw/contrib/gaussian/g16/B01/g16/l601.exe)
 Copying SCF densities to generalized density rwf, IOpCl= 0 IROHF=0.

 **********************************************************************

            Population analysis using the MP2 Density.

 **********************************************************************

 Alpha  occ. eigenvalues -- -489.75194-104.73601 -64.89229 -58.24679 -58.24675
 Alpha  occ. eigenvalues --  -58.24675 -20.46707 -10.45539  -9.56481  -7.92253
 Alpha  occ. eigenvalues --   -7.91987  -7.91978  -7.17255  -7.17210  -7.17209
 Alpha  occ. eigenvalues --   -2.91423  -2.91402  -2.91400  -2.91352  -2.91352
 Alpha  occ. eigenvalues --   -1.23950  -0.90412  -0.72656  -0.55215  -0.44658
 Alpha  occ. eigenvalues --   -0.43763  -0.31424  -0.28762  -0.18205  -0.17254
 Alpha  occ. eigenvalues --   -0.17248
 Alpha virt. eigenvalues --    0.15541   0.17911   0.21608   0.22756   0.24155
 Alpha virt. eigenvalues --    0.24705   0.25038   0.28011   0.30217   0.31167
 Alpha virt. eigenvalues --    0.32248   0.32811   0.35819   0.43104   0.43731
 Alpha virt. eigenvalues --    0.46994   0.48186   0.48695   0.50732   0.54100
 Alpha virt. eigenvalues --    0.54286   0.56669   0.59128   0.59869   0.60352
 Alpha virt. eigenvalues --    0.61042   0.65131   0.70478   0.73831   0.74550
 Alpha virt. eigenvalues --    0.75524   0.77519   0.78663   0.85222   0.88611
 Alpha virt. eigenvalues --    0.89244   0.91682   0.94272   0.99560   1.00509
 Alpha virt. eigenvalues --    1.00549   1.00896   1.02199   1.03577   1.06842
 Alpha virt. eigenvalues --    1.07213   1.09009   1.10395   1.10993   1.12735
 Alpha virt. eigenvalues --    1.14807   1.17865   1.18393   1.20154   1.21421
 Alpha virt. eigenvalues --    1.22993   1.26844   1.29267   1.32345   1.33906
 Alpha virt. eigenvalues --    1.37132   1.38293   1.46748   1.50478   1.52388
 Alpha virt. eigenvalues --    1.55354   1.57708   1.62999   1.65756   1.69585
 Alpha virt. eigenvalues --    1.70580   1.75368   1.78804   1.81199   1.89967
 Alpha virt. eigenvalues --    1.96641   2.14146   2.37220   2.39729   2.41926
 Alpha virt. eigenvalues --    2.43588   2.47128   2.49753   2.50611   2.52880
 Alpha virt. eigenvalues --    2.53510   2.55159   2.55409   2.55663   2.56910
 Alpha virt. eigenvalues --    2.57231   2.60449   2.63324   2.64709   2.65676
 Alpha virt. eigenvalues --    2.67641   2.68941   2.70531   2.71638   2.72216
 Alpha virt. eigenvalues --    2.74250   2.75545   2.78097   2.79763   2.80551
 Alpha virt. eigenvalues --    2.87536   3.00133   3.06777   3.08996   3.16057
 Alpha virt. eigenvalues --    3.18925   3.21241   3.24780   3.27708   3.30647
 Alpha virt. eigenvalues --    3.32961   3.51533   3.53465   3.56612   3.95075
 Alpha virt. eigenvalues --    4.19506   4.34079   4.46259   4.57236   4.59380
 Alpha virt. eigenvalues --    4.78063   4.94369   5.02615   5.22762   5.44817
 Alpha virt. eigenvalues --    5.51011   5.73520   6.39023   6.56480   6.85374
 Alpha virt. eigenvalues --    6.90331   6.90930   6.99431   7.32937   7.37508
 Alpha virt. eigenvalues --    7.42314   7.45248   7.53676   7.80138   7.81719
 Alpha virt. eigenvalues --    8.41551  15.49706
          Condensed to atoms (all electrons):
               1          2          3          4
     1  O    8.626032  -0.101605  -0.084572   0.021948
     2  Cl  -0.101605  17.046853   0.002083  -0.004501
     3  Br  -0.084572   0.002083  35.906337   0.049612
     4  H    0.021948  -0.004501   0.049612   0.654848
 Mulliken charges:
               1
     1  O   -0.461804
     2  Cl   0.057170
     3  Br  -0.873460
     4  H    0.278093
 Sum of Mulliken charges =  -1.00000
 Mulliken charges with hydrogens summed into heavy atoms:
               1
     1  O   -0.183711
     2  Cl   0.057170
     3  Br  -0.873460
 Electronic spatial extent (au):  <R**2>=           1498.3090
 Charge=             -1.0000 electrons
 Dipole moment (field-independent basis, Debye):
    X=              1.8102    Y=             10.8334    Z=              0.0583  Tot=             10.9837
 Quadrupole moment (field-independent basis, Debye-Ang):
   XX=            -45.0691   YY=            -78.8648   ZZ=            -43.2076
   XY=             -8.3097   XZ=             -0.0324   YZ=             -0.0149
 Traceless Quadrupole moment (field-independent basis, Debye-Ang):
   XX=             10.6447   YY=            -23.1510   ZZ=             12.5062
   XY=             -8.3097   XZ=             -0.0324   YZ=             -0.0149
 Octapole moment (field-independent basis, Debye-Ang**2):
  XXX=            -16.7499  YYY=            319.4022  ZZZ=             -0.3316  XYY=             17.1376
  XXY=             75.3264  XXZ=             -0.1826  XZZ=             -7.4515  YZZ=             70.2576
  YYZ=             -0.5108  XYZ=             -0.0936
 Hexadecapole moment (field-independent basis, Debye-Ang**3):
 XXXX=           -334.1135 YYYY=          -1646.0816 ZZZZ=            -62.3420 XXXY=           -145.3674
 XXXZ=             -0.0396 YYYX=           -212.5745 YYYZ=              2.1038 ZZZX=              0.0640
 ZZZY=              0.5001 XXYY=           -297.6315 XXZZ=            -71.0408 YYZZ=           -232.0965
 XXYZ=              0.2140 YYXZ=              0.3782 ZZXY=            -47.1738
 N-N= 1.896780816523D+02 E-N=-7.820483998224D+03  KE= 3.107399691392D+03
 No NMR shielding tensors so no spin-rotation constants.
 Leave Link  601 at Fri Nov  5 16:35:30 2021, MaxMem= 16106127360 cpu:               4.3 elap:               0.2
 (Enter /sw/contrib/gaussian/g16/B01/g16/l607.exe)
 ******************************Gaussian NBO Version 3.1******************************
             N A T U R A L   A T O M I C   O R B I T A L   A N D
          N A T U R A L   B O N D   O R B I T A L   A N A L Y S I S
 ******************************Gaussian NBO Version 3.1******************************
       /RESON  / : Allow strongly delocalized NBO set

 Analyzing the MP2 density

 Job title: title                                                           

 Storage needed:     95974 in NPA,    127345 in NBO (********** available)
 GSVD:  LWork=        4314 too small for GESVD, short by       49391 words or       49391 for optimal perf.


 NATURAL POPULATIONS:  Natural atomic orbital occupancies 
                                                          
   NAO  Atom  No  lang   Type(AO)    Occupancy
 --------------------------------------------
     1    O    1  S      Cor( 1S)     1.99966
     2    O    1  S      Val( 2S)     1.78105
     3    O    1  S      Ryd( 3S)     0.00930
     4    O    1  S      Ryd( 4S)     0.00108
     5    O    1  S      Ryd( 5S)     0.00019
     6    O    1  px     Val( 2p)     1.20463
     7    O    1  px     Ryd( 3p)     0.00644
     8    O    1  px     Ryd( 4p)     0.00062
     9    O    1  px     Ryd( 5p)     0.00035
    10    O    1  py     Val( 2p)     1.70361
    11    O    1  py     Ryd( 3p)     0.01200
    12    O    1  py     Ryd( 4p)     0.00077
    13    O    1  py     Ryd( 5p)     0.00043
    14    O    1  pz     Val( 2p)     1.94614
    15    O    1  pz     Ryd( 3p)     0.01981
    16    O    1  pz     Ryd( 4p)     0.00068
    17    O    1  pz     Ryd( 5p)     0.00014
    18    O    1  dxy    Ryd( 3d)     0.00867
    19    O    1  dxy    Ryd( 4d)     0.00046
    20    O    1  dxy    Ryd( 5d)     0.00014
    21    O    1  dxz    Ryd( 3d)     0.00856
    22    O    1  dxz    Ryd( 4d)     0.00056
    23    O    1  dxz    Ryd( 5d)     0.00009
    24    O    1  dyz    Ryd( 3d)     0.00788
    25    O    1  dyz    Ryd( 4d)     0.00059
    26    O    1  dyz    Ryd( 5d)     0.00036
    27    O    1  dx2y2  Ryd( 3d)     0.01335
    28    O    1  dx2y2  Ryd( 4d)     0.00033
    29    O    1  dx2y2  Ryd( 5d)     0.00017
    30    O    1  dz2    Ryd( 3d)     0.00972
    31    O    1  dz2    Ryd( 4d)     0.00055
    32    O    1  dz2    Ryd( 5d)     0.00015
    33    O    1  f(0)   Ryd( 4f)     0.00071
    34    O    1  f(0)   Ryd( 5f)     0.00010
    35    O    1  f(C1)  Ryd( 4f)     0.00067
    36    O    1  f(C1)  Ryd( 5f)     0.00011
    37    O    1  f(S1)  Ryd( 4f)     0.00057
    38    O    1  f(S1)  Ryd( 5f)     0.00011
    39    O    1  f(C2)  Ryd( 4f)     0.00058
    40    O    1  f(C2)  Ryd( 5f)     0.00012
    41    O    1  f(S2)  Ryd( 4f)     0.00053
    42    O    1  f(S2)  Ryd( 5f)     0.00012
    43    O    1  f(C3)  Ryd( 4f)     0.00057
    44    O    1  f(C3)  Ryd( 5f)     0.00014
    45    O    1  f(S3)  Ryd( 4f)     0.00053
    46    O    1  f(S3)  Ryd( 5f)     0.00014

    47   Cl    2  S      Cor( 1S)     2.00000
    48   Cl    2  S      Cor( 2S)     1.99981
    49   Cl    2  S      Val( 3S)     1.88618
    50   Cl    2  S      Ryd( 4S)     0.00769
    51   Cl    2  S      Ryd( 5S)     0.00053
    52   Cl    2  S      Ryd( 6S)     0.00016
    53   Cl    2  px     Cor( 2p)     1.99996
    54   Cl    2  px     Val( 3p)     0.90551
    55   Cl    2  px     Ryd( 4p)     0.00632
    56   Cl    2  px     Ryd( 5p)     0.00052
    57   Cl    2  px     Ryd( 6p)     0.00020
    58   Cl    2  py     Cor( 2p)     2.00003
    59   Cl    2  py     Val( 3p)     1.95351
    60   Cl    2  py     Ryd( 4p)     0.00973
    61   Cl    2  py     Ryd( 5p)     0.00051
    62   Cl    2  py     Ryd( 6p)     0.00009
    63   Cl    2  pz     Cor( 2p)     2.00003
    64   Cl    2  pz     Val( 3p)     1.95468
    65   Cl    2  pz     Ryd( 4p)     0.01040
    66   Cl    2  pz     Ryd( 5p)     0.00067
    67   Cl    2  pz     Ryd( 6p)     0.00003
    68   Cl    2  dxy    Ryd( 3d)     0.01647
    69   Cl    2  dxy    Ryd( 4d)     0.00078
    70   Cl    2  dxy    Ryd( 5d)     0.00032
    71   Cl    2  dxz    Ryd( 3d)     0.02104
    72   Cl    2  dxz    Ryd( 4d)     0.00104
    73   Cl    2  dxz    Ryd( 5d)     0.00036
    74   Cl    2  dyz    Ryd( 3d)     0.01677
    75   Cl    2  dyz    Ryd( 4d)     0.00073
    76   Cl    2  dyz    Ryd( 5d)     0.00018
    77   Cl    2  dx2y2  Ryd( 3d)     0.01838
    78   Cl    2  dx2y2  Ryd( 4d)     0.00047
    79   Cl    2  dx2y2  Ryd( 5d)     0.00016
    80   Cl    2  dz2    Ryd( 3d)     0.01743
    81   Cl    2  dz2    Ryd( 4d)     0.00060
    82   Cl    2  dz2    Ryd( 5d)     0.00015
    83   Cl    2  f(0)   Ryd( 4f)     0.00131
    84   Cl    2  f(0)   Ryd( 5f)     0.00013
    85   Cl    2  f(C1)  Ryd( 4f)     0.00144
    86   Cl    2  f(C1)  Ryd( 5f)     0.00014
    87   Cl    2  f(S1)  Ryd( 4f)     0.00127
    88   Cl    2  f(S1)  Ryd( 5f)     0.00013
    89   Cl    2  f(C2)  Ryd( 4f)     0.00134
    90   Cl    2  f(C2)  Ryd( 5f)     0.00013
    91   Cl    2  f(S2)  Ryd( 4f)     0.00120
    92   Cl    2  f(S2)  Ryd( 5f)     0.00013
    93   Cl    2  f(C3)  Ryd( 4f)     0.00154
    94   Cl    2  f(C3)  Ryd( 5f)     0.00013
    95   Cl    2  f(S3)  Ryd( 4f)     0.00125
    96   Cl    2  f(S3)  Ryd( 5f)     0.00014

    97   Br    3  S      Cor( 1S)     2.00000
    98   Br    3  S      Cor( 2S)     2.00000
    99   Br    3  S      Cor( 3S)     1.99990
   100   Br    3  S      Val( 4S)     1.97031
   101   Br    3  S      Ryd( 5S)     0.00195
   102   Br    3  S      Ryd( 6S)     0.00045
   103   Br    3  S      Ryd( 7S)     0.00015
   104   Br    3  px     Cor( 3p)     2.00000
   105   Br    3  px     Cor( 2p)     2.00001
   106   Br    3  px     Val( 4p)     1.94976
   107   Br    3  px     Ryd( 5p)     0.01116
   108   Br    3  px     Ryd( 6p)     0.00081
   109   Br    3  px     Ryd( 7p)     0.00009
   110   Br    3  py     Cor( 2p)     2.00000
   111   Br    3  py     Cor( 3p)     1.99994
   112   Br    3  py     Val( 4p)     1.87647
   113   Br    3  py     Ryd( 5p)     0.00966
   114   Br    3  py     Ryd( 6p)     0.00076
   115   Br    3  py     Ryd( 7p)     0.00011
   116   Br    3  pz     Cor( 3p)     2.00000
   117   Br    3  pz     Cor( 2p)     2.00001
   118   Br    3  pz     Val( 4p)     1.95353
   119   Br    3  pz     Ryd( 5p)     0.01130
   120   Br    3  pz     Ryd( 6p)     0.00082
   121   Br    3  pz     Ryd( 7p)     0.00009
   122   Br    3  dxy    Cor( 3d)     1.99765
   123   Br    3  dxy    Ryd( 4d)     0.01882
   124   Br    3  dxy    Ryd( 5d)     0.00145
   125   Br    3  dxy    Ryd( 6d)     0.00021
   126   Br    3  dxz    Cor( 3d)     1.99769
   127   Br    3  dxz    Ryd( 4d)     0.01865
   128   Br    3  dxz    Ryd( 5d)     0.00175
   129   Br    3  dxz    Ryd( 6d)     0.00025
   130   Br    3  dyz    Cor( 3d)     1.99766
   131   Br    3  dyz    Ryd( 4d)     0.01895
   132   Br    3  dyz    Ryd( 5d)     0.00147
   133   Br    3  dyz    Ryd( 6d)     0.00020
   134   Br    3  dx2y2  Cor( 3d)     1.99763
   135   Br    3  dx2y2  Ryd( 4d)     0.01850
   136   Br    3  dx2y2  Ryd( 5d)     0.00160
   137   Br    3  dx2y2  Ryd( 6d)     0.00024
   138   Br    3  dz2    Cor( 3d)     1.99767
   139   Br    3  dz2    Ryd( 4d)     0.01857
   140   Br    3  dz2    Ryd( 5d)     0.00171
   141   Br    3  dz2    Ryd( 6d)     0.00022
   142   Br    3  f(0)   Ryd( 4f)     0.00173
   143   Br    3  f(0)   Ryd( 5f)     0.00026
   144   Br    3  f(C1)  Ryd( 4f)     0.00175
   145   Br    3  f(C1)  Ryd( 5f)     0.00025
   146   Br    3  f(S1)  Ryd( 4f)     0.00175
   147   Br    3  f(S1)  Ryd( 5f)     0.00027
   148   Br    3  f(C2)  Ryd( 4f)     0.00172
   149   Br    3  f(C2)  Ryd( 5f)     0.00026
   150   Br    3  f(S2)  Ryd( 4f)     0.00176
   151   Br    3  f(S2)  Ryd( 5f)     0.00026
   152   Br    3  f(C3)  Ryd( 4f)     0.00170
   153   Br    3  f(C3)  Ryd( 5f)     0.00027
   154   Br    3  f(S3)  Ryd( 4f)     0.00172
   155   Br    3  f(S3)  Ryd( 5f)     0.00027

   156    H    4  S      Val( 1S)     0.49425
   157    H    4  S      Ryd( 2S)     0.00909
   158    H    4  S      Ryd( 3S)     0.00027
   159    H    4  S      Ryd( 4S)     0.00013
   160    H    4  px     Ryd( 2p)     0.00398
   161    H    4  px     Ryd( 3p)     0.00051
   162    H    4  px     Ryd( 4p)     0.00012
   163    H    4  py     Ryd( 2p)     0.00523
   164    H    4  py     Ryd( 3p)     0.00088
   165    H    4  py     Ryd( 4p)     0.00037
   166    H    4  pz     Ryd( 2p)     0.00531
   167    H    4  pz     Ryd( 3p)     0.00040
   168    H    4  pz     Ryd( 4p)     0.00023
   169    H    4  dxy    Ryd( 3d)     0.00028
   170    H    4  dxy    Ryd( 4d)     0.00011
   171    H    4  dxz    Ryd( 3d)     0.00023
   172    H    4  dxz    Ryd( 4d)     0.00007
   173    H    4  dyz    Ryd( 3d)     0.00043
   174    H    4  dyz    Ryd( 4d)     0.00011
   175    H    4  dx2y2  Ryd( 3d)     0.00021
   176    H    4  dx2y2  Ryd( 4d)     0.00012
   177    H    4  dz2    Ryd( 3d)     0.00024
   178    H    4  dz2    Ryd( 4d)     0.00009

 WARNING:  5 low occupancy (<1.9990e) core orbitals found on Br    3


 Summary of Natural Population Analysis:                  
                                                          
                                       Natural Population 
                Natural  -----------------------------------------------
    Atom  No    Charge         Core      Valence    Rydberg      Total
 -----------------------------------------------------------------------
      O    1   -0.74346      1.99966     6.63542    0.10838     8.74346
     Cl    2    0.15827      9.99983     6.69989    0.14200    16.84173
     Br    3   -0.89213     27.98816     7.75007    0.15390    35.89213
      H    4    0.47732      0.00000     0.49425    0.02843     0.52268
 =======================================================================
   * Total *   -1.00000     39.98765    21.57963    0.43271    62.00000

                                 Natural Population      
 --------------------------------------------------------
   Core                      39.98765 ( 99.9691% of  40)
   Valence                   21.57963 ( 98.0892% of  22)
   Natural Minimal Basis     61.56729 ( 99.3021% of  62)
   Natural Rydberg Basis      0.43271 (  0.6979% of  62)
 --------------------------------------------------------

    Atom  No          Natural Electron Configuration
 ----------------------------------------------------------------------------
      O    1      [core]2S( 1.78)2p( 4.85)3S( 0.01)3p( 0.04)3d( 0.05)
     Cl    2      [core]3S( 1.89)3p( 4.81)4S( 0.01)3d( 0.09)4p( 0.03)4f( 0.01)
     Br    3      [core]4S( 1.97)4p( 5.78)4d( 0.09)5p( 0.03)4f( 0.01)5d( 0.01)
      H    4            1S( 0.49)2S( 0.01)2p( 0.01)


 NATURAL BOND ORBITAL ANALYSIS:

                       Occupancies       Lewis Structure    Low   High
           Occ.    -------------------  -----------------   occ   occ
  Cycle   Thresh.   Lewis   Non-Lewis     CR  BD  3C  LP    (L)   (NL)   Dev
 =============================================================================
   1(1)    1.90    61.44975   0.55025     20   2   0   9     1      1    0.13
   2(2)    1.90    61.44975   0.55025     20   2   0   9     1      1    0.13
   3(1)    1.80    61.44975   0.55025     20   2   0   9     0      1    0.13
   4(2)    1.80    61.44975   0.55025     20   2   0   9     0      1    0.13
   5(1)    1.70    61.44975   0.55025     20   2   0   9     0      1    0.13
   6(2)    1.70    61.44975   0.55025     20   2   0   9     0      1    0.13
   7(1)    1.60    61.44975   0.55025     20   2   0   9     0      1    0.13
   8(2)    1.60    61.44975   0.55025     20   2   0   9     0      1    0.13
   9(1)    1.50    61.05987   0.94013     20   1   0  10     0      1    0.59
  10(2)    1.50    61.05987   0.94013     20   1   0  10     0      1    0.59
  11(1)    1.90    61.44975   0.55025     20   2   0   9     1      1    0.13
 -----------------------------------------------------------------------------

 Structure accepted: RESONANCE keyword permits strongly delocalized structure

 WARNING:  5 low occupancy (<1.9990e) core orbitals found on Br    3

 --------------------------------------------------------
   Core                     39.98765 ( 99.969% of  40)
   Valence Lewis            21.46209 ( 97.555% of  22)
  ==================       ============================
   Total Lewis              61.44975 ( 99.112% of  62)
  -----------------------------------------------------
   Valence non-Lewis         0.16239 (  0.262% of  62)
   Rydberg non-Lewis         0.38786 (  0.626% of  62)
  ==================       ============================
   Total non-Lewis           0.55025 (  0.888% of  62)
 --------------------------------------------------------


       (Occupancy)   Bond orbital/ Coefficients/ Hybrids
 ---------------------------------------------------------------------------------
     1. (1.93864) BD ( 1) O   1 -Cl   2  
                ( 58.85%)   0.7671* O   1 s( 10.02%)p 8.93( 89.46%)d 0.05(  0.50%)
                                                  f 0.00(  0.02%)
                                            0.0003  0.3138 -0.0390 -0.0143 -0.0005
                                            0.9446 -0.0283 -0.0101 -0.0106 -0.0182
                                           -0.0294 -0.0052 -0.0002  0.0046  0.0028
                                            0.0005 -0.0001 -0.0230 -0.0017  0.0025
                                            0.0027  0.0004 -0.0001 -0.0021 -0.0002
                                            0.0003  0.0517  0.0047  0.0024 -0.0419
                                           -0.0038  0.0005 -0.0000 -0.0000 -0.0114
                                            0.0013 -0.0002  0.0001  0.0001 -0.0002
                                           -0.0011  0.0003  0.0054  0.0007 -0.0005
                                            0.0021
                ( 41.15%)   0.6415*Cl   2 s(  8.18%)p11.07( 90.58%)d 0.14(  1.12%)
                                                  f 0.01(  0.11%)
                                           -0.0000  0.0005  0.2807 -0.0539 -0.0103
                                            0.0022 -0.0004 -0.9494  0.0636  0.0141
                                           -0.0045 -0.0000 -0.0100 -0.0021  0.0024
                                           -0.0008  0.0000  0.0009  0.0001 -0.0003
                                            0.0001  0.0123 -0.0000  0.0008 -0.0019
                                           -0.0002 -0.0001 -0.0009  0.0000  0.0002
                                            0.0884 -0.0102 -0.0003 -0.0561  0.0056
                                            0.0009 -0.0001  0.0000  0.0208 -0.0033
                                            0.0005 -0.0002  0.0001  0.0000  0.0003
                                           -0.0002 -0.0252  0.0030 -0.0012  0.0002
     2. (1.96662) BD ( 1) O   1 - H   4  
                ( 79.05%)   0.8891* O   1 s( 30.41%)p 2.27( 69.09%)d 0.02(  0.49%)
                                                  f 0.00(  0.01%)
                                           -0.0003 -0.5513  0.0083  0.0081 -0.0018
                                            0.1970 -0.0176 -0.0028 -0.0029  0.8033
                                           -0.0095 -0.0068 -0.0041 -0.0793  0.0006
                                            0.0007  0.0008  0.0003  0.0029  0.0002
                                           -0.0000 -0.0003 -0.0001  0.0119  0.0007
                                           -0.0002  0.0584  0.0050  0.0022  0.0360
                                            0.0011 -0.0027  0.0019  0.0001 -0.0015
                                           -0.0006 -0.0082 -0.0004  0.0012  0.0004
                                           -0.0004 -0.0004 -0.0017 -0.0024  0.0004
                                           -0.0025
                ( 20.95%)   0.4577* H   4 s( 99.85%)p 0.00(  0.15%)d 0.00(  0.00%)
                                           -0.9983 -0.0418 -0.0020  0.0012 -0.0114
                                           -0.0078 -0.0016  0.0157 -0.0308  0.0105
                                           -0.0047  0.0031 -0.0003  0.0002  0.0022
                                           -0.0003 -0.0003 -0.0004 -0.0000  0.0017
                                            0.0004  0.0000  0.0029
     3. (1.99966) CR ( 1) O   1           s(100.00%)p 0.00(  0.00%)
                                            1.0000 -0.0004  0.0000  0.0000 -0.0000
                                           -0.0002  0.0000  0.0000  0.0000  0.0001
                                            0.0000 -0.0000 -0.0000 -0.0000 -0.0000
                                            0.0000  0.0000  0.0000  0.0000 -0.0000
                                           -0.0000 -0.0000 -0.0000  0.0000  0.0000
                                           -0.0000 -0.0000  0.0000  0.0000  0.0000
                                            0.0000 -0.0000  0.0000  0.0000  0.0000
                                           -0.0000 -0.0000 -0.0000  0.0000  0.0000
                                            0.0000 -0.0000 -0.0000 -0.0000 -0.0000
                                           -0.0000
     4. (2.00000) CR ( 1)Cl   2           s(100.00%)
                                            1.0000  0.0000  0.0000 -0.0000 -0.0000
                                            0.0000 -0.0000 -0.0000  0.0000  0.0000
                                           -0.0000 -0.0000 -0.0000 -0.0000  0.0000
                                           -0.0000 -0.0000  0.0000  0.0000 -0.0000
                                            0.0000  0.0000 -0.0000  0.0000 -0.0000
                                           -0.0000 -0.0000 -0.0000  0.0000  0.0000
                                            0.0000 -0.0000 -0.0000 -0.0000  0.0000
                                            0.0000 -0.0000  0.0000  0.0000 -0.0000
                                            0.0000 -0.0000  0.0000  0.0000  0.0000
                                           -0.0000 -0.0000  0.0000 -0.0000  0.0000
     5. (1.99981) CR ( 2)Cl   2           s(100.00%)p 0.00(  0.00%)
                                            0.0000  1.0000 -0.0004  0.0000  0.0000
                                           -0.0000  0.0000  0.0004 -0.0000 -0.0000
                                            0.0000  0.0000  0.0000  0.0000 -0.0000
                                            0.0000 -0.0000 -0.0000 -0.0000  0.0000
                                           -0.0000 -0.0000  0.0000 -0.0000  0.0000
                                            0.0000  0.0000  0.0000 -0.0000 -0.0000
                                           -0.0000  0.0000  0.0000  0.0000 -0.0000
                                           -0.0000  0.0000 -0.0000 -0.0000  0.0000
                                           -0.0000  0.0000 -0.0000 -0.0000 -0.0000
                                            0.0000  0.0000 -0.0000  0.0000 -0.0000
     6. (1.99996) CR ( 3)Cl   2           s(  0.00%)p 1.00(100.00%)
                                           -0.0000  0.0000  0.0001 -0.0000 -0.0000
                                            0.0000  1.0000 -0.0004  0.0000  0.0000
                                           -0.0000  0.0000 -0.0000 -0.0000  0.0000
                                           -0.0000 -0.0000  0.0000  0.0000 -0.0000
                                            0.0000  0.0000 -0.0000  0.0000 -0.0000
                                           -0.0000 -0.0000 -0.0000  0.0000  0.0000
                                            0.0000 -0.0000 -0.0000 -0.0000  0.0000
                                            0.0000 -0.0000  0.0000  0.0000 -0.0000
                                            0.0000 -0.0000  0.0000  0.0000  0.0000
                                           -0.0000 -0.0000  0.0000 -0.0000  0.0000
     7. (2.00003) CR ( 4)Cl   2           s(  0.00%)p 1.00(100.00%)
                                           -0.0000  0.0000  0.0000  0.0000  0.0000
                                            0.0000  0.0000 -0.0000  0.0000  0.0000
                                           -0.0000  1.0000  0.0002  0.0000  0.0000
                                            0.0000  0.0000 -0.0000 -0.0000  0.0000
                                           -0.0000 -0.0000  0.0000  0.0000  0.0000
                                            0.0000  0.0000  0.0000  0.0000 -0.0000
                                           -0.0000 -0.0000 -0.0000 -0.0000 -0.0000
                                           -0.0000  0.0000 -0.0000  0.0000  0.0000
                                           -0.0000  0.0000  0.0000 -0.0000 -0.0000
                                            0.0000 -0.0000  0.0000  0.0000 -0.0000
     8. (2.00003) CR ( 5)Cl   2           s(  0.00%)p 1.00(100.00%)
                                           -0.0000 -0.0000 -0.0000  0.0000  0.0000
                                            0.0000 -0.0000  0.0000 -0.0000  0.0000
                                            0.0000  0.0000 -0.0000 -0.0000  0.0000
                                           -0.0000  1.0000  0.0002  0.0000  0.0000
                                           -0.0000  0.0000  0.0000  0.0000  0.0000
                                            0.0000  0.0000  0.0000  0.0000  0.0000
                                           -0.0000  0.0000  0.0000  0.0000  0.0000
                                            0.0000 -0.0000  0.0000 -0.0000  0.0000
                                           -0.0000  0.0000  0.0000 -0.0000  0.0000
                                           -0.0000  0.0000  0.0000 -0.0000  0.0000
     9. (2.00000) CR ( 1)Br   3           s(100.00%)
                                            1.0000 -0.0000  0.0000  0.0000 -0.0000
                                            0.0000  0.0000  0.0000 -0.0000 -0.0000
                                            0.0000 -0.0000 -0.0000  0.0000 -0.0000
                                           -0.0000  0.0000 -0.0000  0.0000  0.0000
                                           -0.0000  0.0000  0.0000  0.0000  0.0000
                                           -0.0000 -0.0000  0.0000 -0.0000 -0.0000
                                           -0.0000 -0.0000 -0.0000 -0.0000 -0.0000
                                           -0.0000 -0.0000  0.0000  0.0000  0.0000
                                            0.0000  0.0000  0.0000  0.0000  0.0000
                                           -0.0000 -0.0000 -0.0000  0.0000 -0.0000
                                           -0.0000 -0.0000 -0.0000  0.0000  0.0000
                                           -0.0000 -0.0000 -0.0000 -0.0000
    10. (2.00000) CR ( 2)Br   3           s(100.00%)
                                           -0.0000  1.0000  0.0000  0.0000 -0.0000
                                            0.0000  0.0000 -0.0000  0.0000  0.0000
                                            0.0000  0.0000 -0.0000  0.0000 -0.0000
                                           -0.0000  0.0000 -0.0000  0.0000  0.0000
                                           -0.0000 -0.0000  0.0000 -0.0000  0.0000
                                           -0.0000  0.0000 -0.0000 -0.0000 -0.0000
                                            0.0000 -0.0000  0.0000 -0.0000 -0.0000
                                           -0.0000 -0.0000  0.0000  0.0000  0.0000
                                            0.0000  0.0000  0.0000  0.0000  0.0000
                                           -0.0000 -0.0000 -0.0000 -0.0000 -0.0000
                                           -0.0000  0.0000 -0.0000  0.0000  0.0000
                                           -0.0000 -0.0000  0.0000  0.0000
    11. (1.99990) CR ( 3)Br   3           s(100.00%)
                                            0.0000  0.0000  1.0000 -0.0002  0.0000
                                           -0.0000 -0.0000 -0.0000  0.0000  0.0000
                                           -0.0000  0.0000  0.0000 -0.0000  0.0000
                                            0.0000 -0.0000  0.0000 -0.0000 -0.0000
                                            0.0000  0.0000 -0.0000  0.0000 -0.0000
                                            0.0000  0.0000 -0.0000  0.0000  0.0000
                                            0.0000 -0.0000  0.0000  0.0000  0.0000
                                           -0.0000  0.0000 -0.0000 -0.0000 -0.0000
                                           -0.0000 -0.0000 -0.0000 -0.0000 -0.0000
                                           -0.0000  0.0000  0.0000 -0.0000  0.0000
                                            0.0000 -0.0000  0.0000  0.0000  0.0000
                                            0.0000  0.0000  0.0000  0.0000
    12. (2.00000) CR ( 4)Br   3           s(  0.00%)p 1.00(100.00%)
                                            0.0000 -0.0000 -0.0000 -0.0000  0.0000
                                           -0.0000 -0.0000  1.0000  0.0000  0.0000
                                            0.0000  0.0000 -0.0000  0.0000 -0.0000
                                           -0.0000 -0.0000 -0.0000  0.0000  0.0000
                                           -0.0000 -0.0000 -0.0000 -0.0000  0.0000
                                           -0.0000  0.0000 -0.0000 -0.0000 -0.0000
                                            0.0000 -0.0000  0.0000  0.0000 -0.0000
                                            0.0000  0.0000 -0.0000  0.0000 -0.0000
                                           -0.0000 -0.0000  0.0000 -0.0000  0.0000
                                            0.0000 -0.0000 -0.0000 -0.0000  0.0000
                                            0.0000  0.0000  0.0000  0.0000  0.0000
                                           -0.0000 -0.0000  0.0000  0.0000
    13. (2.00001) CR ( 5)Br   3           s(  0.00%)p 1.00(100.00%)
                                           -0.0000  0.0000  0.0000  0.0000 -0.0000
                                            0.0000  0.0000  0.0000  1.0000 -0.0002
                                           -0.0000 -0.0000  0.0000 -0.0000  0.0000
                                            0.0000  0.0000  0.0000 -0.0000 -0.0000
                                            0.0000  0.0000  0.0000  0.0000 -0.0000
                                            0.0000 -0.0000  0.0000  0.0000  0.0000
                                           -0.0000  0.0000 -0.0000 -0.0000  0.0000
                                           -0.0000 -0.0000  0.0000 -0.0000  0.0000
                                            0.0000  0.0000 -0.0000  0.0000 -0.0000
                                           -0.0000  0.0000  0.0000  0.0000 -0.0000
                                           -0.0000 -0.0000 -0.0000 -0.0000 -0.0000
                                            0.0000  0.0000 -0.0000 -0.0000
    14. (2.00000) CR ( 6)Br   3           s(  0.00%)p 1.00(100.00%)
                                            0.0000  0.0000 -0.0000 -0.0000  0.0000
                                           -0.0000 -0.0000  0.0000 -0.0000 -0.0000
                                           -0.0000 -0.0000  0.0000  1.0000  0.0000
                                            0.0000 -0.0000  0.0000 -0.0000  0.0000
                                           -0.0000 -0.0000 -0.0000 -0.0000 -0.0000
                                            0.0000 -0.0000  0.0000  0.0000  0.0000
                                           -0.0000  0.0000 -0.0000  0.0000 -0.0000
                                            0.0000  0.0000 -0.0000 -0.0000 -0.0000
                                            0.0000 -0.0000 -0.0000 -0.0000 -0.0000
                                            0.0000  0.0000  0.0000  0.0000  0.0000
                                            0.0000  0.0000  0.0000 -0.0000 -0.0000
                                            0.0000  0.0000 -0.0000 -0.0000
    15. (1.99994) CR ( 7)Br   3           s(  0.00%)p 1.00(100.00%)
                                           -0.0000 -0.0000  0.0000  0.0001 -0.0000
                                            0.0000  0.0000 -0.0000  0.0000  0.0000
                                            0.0000  0.0000 -0.0000  0.0000  1.0000
                                           -0.0000  0.0000 -0.0000  0.0000 -0.0000
                                            0.0000  0.0000  0.0000  0.0000  0.0000
                                           -0.0000  0.0000 -0.0000 -0.0000 -0.0000
                                            0.0000 -0.0000  0.0000 -0.0000  0.0000
                                           -0.0000 -0.0000  0.0000  0.0000  0.0000
                                           -0.0000  0.0000  0.0000  0.0000  0.0000
                                           -0.0000 -0.0000 -0.0000 -0.0000 -0.0000
                                           -0.0000 -0.0000 -0.0000  0.0000  0.0000
                                           -0.0000 -0.0000  0.0000  0.0000
    16. (2.00000) CR ( 8)Br   3           s(  0.00%)p 1.00(100.00%)
                                            0.0000  0.0000 -0.0000 -0.0000 -0.0000
                                            0.0000  0.0000  0.0000 -0.0000 -0.0000
                                           -0.0000  0.0000 -0.0000  0.0000 -0.0000
                                           -0.0000 -0.0000  0.0000 -0.0000  1.0000
                                            0.0000  0.0000  0.0000  0.0000 -0.0000
                                            0.0000 -0.0000  0.0000  0.0000 -0.0000
                                            0.0000 -0.0000 -0.0000 -0.0000  0.0000
                                           -0.0000 -0.0000 -0.0000  0.0000 -0.0000
                                           -0.0000 -0.0000  0.0000 -0.0000  0.0000
                                           -0.0000 -0.0000  0.0000  0.0000  0.0000
                                            0.0000 -0.0000 -0.0000  0.0000  0.0000
                                            0.0000  0.0000  0.0000  0.0000
    17. (2.00001) CR ( 9)Br   3           s(  0.00%)p 1.00(100.00%)
                                           -0.0000 -0.0000  0.0000  0.0000  0.0000
                                           -0.0000 -0.0000 -0.0000  0.0000  0.0000
                                            0.0000 -0.0000  0.0000 -0.0000  0.0000
                                            0.0000  0.0000 -0.0000  0.0000  0.0000
                                            1.0000 -0.0002 -0.0000 -0.0000  0.0000
                                           -0.0000  0.0000 -0.0000 -0.0000  0.0000
                                           -0.0000  0.0000  0.0000  0.0000 -0.0000
                                            0.0000  0.0000  0.0000 -0.0000  0.0000
                                            0.0000  0.0000 -0.0000  0.0000 -0.0000
                                            0.0000  0.0000 -0.0000 -0.0000 -0.0000
                                           -0.0000  0.0000  0.0000 -0.0000 -0.0000
                                           -0.0000 -0.0000 -0.0000 -0.0000
    18. (1.99765) CR (10)Br   3           s(  0.00%)p 0.00(  0.00%)d 1.00(100.00%)
                                           -0.0000 -0.0000  0.0000  0.0000  0.0000
                                            0.0000 -0.0000 -0.0000  0.0000  0.0000
                                            0.0000  0.0000 -0.0000  0.0000 -0.0000
                                           -0.0000  0.0000 -0.0000  0.0000  0.0000
                                           -0.0000 -0.0000  0.0000 -0.0000  0.0000
                                            1.0000  0.0000 -0.0000 -0.0000 -0.0000
                                            0.0000 -0.0000  0.0000 -0.0000 -0.0000
                                            0.0000 -0.0000  0.0000  0.0000  0.0000
                                           -0.0000  0.0000  0.0000  0.0000  0.0000
                                            0.0000 -0.0000 -0.0000 -0.0000 -0.0000
                                           -0.0000  0.0000  0.0000  0.0000  0.0000
                                           -0.0000 -0.0000  0.0000  0.0000
    19. (1.99769) CR (11)Br   3           s(  0.00%)p 0.00(  0.00%)d 1.00(100.00%)
                                           -0.0000 -0.0000  0.0000  0.0000 -0.0000
                                            0.0000  0.0000 -0.0000  0.0000  0.0000
                                            0.0000  0.0000 -0.0000  0.0000 -0.0000
                                           -0.0000  0.0000 -0.0000  0.0000 -0.0000
                                            0.0000  0.0000  0.0000  0.0000 -0.0000
                                           -0.0000  0.0000 -0.0000 -0.0000  1.0000
                                            0.0000 -0.0000 -0.0000 -0.0000  0.0000
                                           -0.0000 -0.0000  0.0000  0.0000 -0.0000
                                           -0.0000  0.0000  0.0000 -0.0000  0.0000
                                           -0.0000 -0.0000 -0.0000 -0.0000  0.0000
                                            0.0000 -0.0000 -0.0000  0.0000  0.0000
                                           -0.0000 -0.0000  0.0000  0.0000
    20. (1.99766) CR (12)Br   3           s(  0.00%)p 0.00(  0.00%)d 1.00(100.00%)
                                           -0.0000 -0.0000  0.0000  0.0000 -0.0000
                                            0.0000  0.0000  0.0000 -0.0000 -0.0000
                                            0.0000 -0.0000 -0.0000  0.0000 -0.0000
                                           -0.0000  0.0000 -0.0000 -0.0000 -0.0000
                                            0.0000  0.0000  0.0000  0.0000 -0.0000
                                           -0.0000 -0.0000  0.0000 -0.0000 -0.0000
                                            0.0000 -0.0000 -0.0000  1.0000  0.0000
                                           -0.0000 -0.0000  0.0000  0.0000 -0.0000
                                           -0.0000  0.0000  0.0000 -0.0000  0.0000
                                           -0.0000 -0.0000  0.0000  0.0000  0.0000
                                            0.0000 -0.0000 -0.0000  0.0000  0.0000
                                            0.0000 -0.0000  0.0000 -0.0000
    21. (1.99763) CR (13)Br   3           s(  0.00%)p 0.00(  0.00%)d 1.00(100.00%)
                                            0.0000  0.0000 -0.0000 -0.0000  0.0000
                                           -0.0000 -0.0000 -0.0000  0.0000  0.0000
                                            0.0000  0.0000  0.0000 -0.0000  0.0000
                                            0.0000 -0.0000  0.0000 -0.0000 -0.0000
                                            0.0000  0.0000 -0.0000  0.0000 -0.0000
                                            0.0000  0.0000 -0.0000  0.0000  0.0000
                                            0.0000 -0.0000  0.0000  0.0000  0.0000
                                            0.0000  0.0000  1.0000  0.0000 -0.0000
                                           -0.0000 -0.0000 -0.0000 -0.0000 -0.0000
                                           -0.0000  0.0000 -0.0000 -0.0000  0.0000
                                            0.0000  0.0000  0.0000  0.0000  0.0000
                                           -0.0000 -0.0000  0.0000  0.0000
    22. (1.99767) CR (14)Br   3           s(  0.00%)p 0.00(  0.00%)d 1.00(100.00%)
                                            0.0000  0.0000 -0.0000 -0.0000  0.0000
                                           -0.0000 -0.0000 -0.0000  0.0000  0.0000
                                           -0.0000  0.0000  0.0000 -0.0000  0.0000
                                            0.0000 -0.0000  0.0000 -0.0000 -0.0000
                                            0.0000  0.0000  0.0000  0.0000 -0.0000
                                            0.0000 -0.0000  0.0000  0.0000  0.0000
                                            0.0000 -0.0000 -0.0000  0.0000  0.0000
                                           -0.0000 -0.0000 -0.0000 -0.0000 -0.0000
                                           -0.0000  1.0000 -0.0000 -0.0000 -0.0000
                                           -0.0000 -0.0000  0.0000  0.0000  0.0000
                                            0.0000 -0.0000 -0.0000  0.0000  0.0000
                                            0.0000  0.0000  0.0000  0.0000
    23. (1.96667) LP ( 1) O   1           s( 59.68%)p 0.67( 40.21%)d 0.00(  0.10%)
                                                  f 0.00(  0.00%)
                                            0.0002  0.7724  0.0123  0.0082 -0.0014
                                           -0.2441 -0.0038 -0.0040 -0.0023  0.5816
                                            0.0084  0.0057  0.0017 -0.0645 -0.0010
                                           -0.0006 -0.0001  0.0225  0.0022 -0.0034
                                           -0.0026 -0.0004  0.0002  0.0042  0.0002
                                           -0.0003  0.0167  0.0000 -0.0041  0.0122
                                            0.0007  0.0006  0.0008 -0.0001  0.0001
                                            0.0005 -0.0028  0.0003  0.0000  0.0002
                                            0.0004 -0.0002  0.0034 -0.0022  0.0036
                                           -0.0018
    24. (1.95328) LP ( 2) O   1           s(  0.00%)p 1.00( 99.80%)d 0.00(  0.18%)
                                                  f 0.00(  0.01%)
                                           -0.0000  0.0046  0.0013  0.0006 -0.0000
                                           -0.0043 -0.0001  0.0000 -0.0002  0.1022
                                            0.0021  0.0005  0.0006  0.9935  0.0202
                                            0.0060  0.0066  0.0029  0.0004 -0.0002
                                            0.0293  0.0051 -0.0004 -0.0273  0.0039
                                            0.0116  0.0029 -0.0005 -0.0013  0.0058
                                           -0.0002 -0.0014 -0.0102  0.0007 -0.0002
                                           -0.0001 -0.0019 -0.0001  0.0043 -0.0022
                                            0.0010  0.0012 -0.0001 -0.0002  0.0006
                                           -0.0004
    25. (1.97406) LP ( 1)Cl   2           s( 91.99%)p 0.09(  7.99%)d 0.00(  0.02%)
                                                  f 0.00(  0.00%)
                                            0.0000  0.0003  0.9591  0.0062  0.0012
                                           -0.0003  0.0000  0.2814 -0.0059 -0.0029
                                            0.0012  0.0000 -0.0261  0.0015  0.0002
                                           -0.0005 -0.0000  0.0040  0.0001  0.0000
                                            0.0000  0.0001 -0.0003 -0.0005  0.0001
                                            0.0001  0.0001 -0.0001 -0.0000  0.0000
                                           -0.0115  0.0005  0.0000  0.0073  0.0005
                                            0.0004 -0.0001  0.0000 -0.0020 -0.0004
                                            0.0001 -0.0000  0.0000  0.0000  0.0001
                                           -0.0001  0.0033 -0.0000 -0.0005  0.0003
    26. (1.95618) LP ( 2)Cl   2           s(  0.00%)p 1.00( 99.95%)d 0.00(  0.04%)
                                                  f 0.00(  0.01%)
                                            0.0000  0.0000  0.0023 -0.0008 -0.0004
                                           -0.0003  0.0000  0.0004  0.0000 -0.0001
                                            0.0000  0.0000 -0.0625 -0.0008 -0.0003
                                           -0.0000  0.0002 -0.9977 -0.0149 -0.0051
                                            0.0023 -0.0007 -0.0011 -0.0006 -0.0072
                                           -0.0168 -0.0086 -0.0036 -0.0031 -0.0010
                                            0.0001  0.0001  0.0001 -0.0001 -0.0001
                                           -0.0001  0.0054 -0.0009  0.0002 -0.0001
                                            0.0003 -0.0002 -0.0066  0.0010 -0.0009
                                            0.0007  0.0001 -0.0001 -0.0005  0.0001
    27. (1.95496) LP ( 3)Cl   2           s(  0.09%)p99.99( 99.87%)d 0.43(  0.04%)
                                                  f 0.10(  0.01%)
                                            0.0000 -0.0000  0.0282  0.0062  0.0040
                                            0.0018  0.0000 -0.0033 -0.0003 -0.0003
                                           -0.0007 -0.0002  0.9973  0.0127  0.0015
                                            0.0001  0.0000 -0.0624 -0.0010 -0.0002
                                            0.0001 -0.0016  0.0142  0.0080  0.0004
                                           -0.0007 -0.0005  0.0001 -0.0001 -0.0001
                                           -0.0078 -0.0048 -0.0031 -0.0008 -0.0027
                                           -0.0005  0.0005 -0.0001  0.0001  0.0003
                                           -0.0023  0.0001 -0.0003 -0.0000 -0.0002
                                            0.0001 -0.0013  0.0003  0.0087 -0.0014
    28. (1.97848) LP ( 1)Br   3           s( 92.83%)p 0.08(  7.17%)d 0.00(  0.00%)
                                                  f 0.00(  0.00%)
                                           -0.0000 -0.0000  0.0002  0.9635 -0.0002
                                            0.0006  0.0004  0.0000 -0.0000 -0.0643
                                            0.0002 -0.0002 -0.0002  0.0000 -0.0001
                                           -0.2595  0.0013 -0.0007  0.0001  0.0000
                                           -0.0000 -0.0156  0.0000 -0.0000  0.0000
                                           -0.0000 -0.0001 -0.0000 -0.0002 -0.0000
                                           -0.0001  0.0000 -0.0000 -0.0000 -0.0002
                                           -0.0000 -0.0000  0.0000  0.0001  0.0002
                                            0.0003  0.0000  0.0002  0.0001  0.0003
                                           -0.0000 -0.0000 -0.0000 -0.0000 -0.0002
                                           -0.0001 -0.0000 -0.0000  0.0000  0.0000
                                           -0.0002 -0.0001 -0.0002 -0.0002
    29. (1.95402) LP ( 2)Br   3           s(  0.00%)p 1.00( 99.99%)d 0.00(  0.01%)
                                                  f 0.00(  0.00%)
                                           -0.0000  0.0000 -0.0000  0.0000 -0.0003
                                            0.0001  0.0006  0.0000 -0.0000 -0.0544
                                           -0.0001 -0.0000 -0.0000  0.0000 -0.0000
                                           -0.0466  0.0000  0.0001 -0.0001 -0.0000
                                            0.0002  0.9974  0.0028  0.0017 -0.0003
                                            0.0000 -0.0006  0.0001  0.0001 -0.0000
                                            0.0018 -0.0003 -0.0003 -0.0000  0.0088
                                           -0.0020 -0.0009 -0.0000  0.0004 -0.0001
                                           -0.0002 -0.0000  0.0012 -0.0004  0.0002
                                           -0.0021 -0.0012  0.0002  0.0001  0.0006
                                            0.0004 -0.0024 -0.0012  0.0011  0.0007
                                            0.0002  0.0001  0.0001 -0.0000
    30. (1.95370) LP ( 3)Br   3           s(  0.00%)p 1.00( 99.98%)d 0.00(  0.01%)
                                                  f 0.00(  0.00%)
                                            0.0000 -0.0000 -0.0000  0.0069  0.0004
                                           -0.0000 -0.0006 -0.0000  0.0002  0.9748
                                            0.0028  0.0014 -0.0003  0.0000 -0.0000
                                           -0.2184 -0.0006 -0.0004  0.0001 -0.0000
                                            0.0000  0.0430  0.0001  0.0001  0.0000
                                           -0.0000  0.0091 -0.0018 -0.0009 -0.0000
                                            0.0008 -0.0003  0.0002 -0.0000  0.0002
                                           -0.0001 -0.0000 -0.0000  0.0033 -0.0002
                                           -0.0011  0.0000  0.0001 -0.0000  0.0001
                                           -0.0001 -0.0001 -0.0009 -0.0005  0.0001
                                            0.0000  0.0000  0.0000  0.0004  0.0002
                                           -0.0026 -0.0013  0.0018  0.0009
    31. (1.86547) LP ( 4)Br   3           s(  7.16%)p12.96( 92.78%)d 0.01(  0.05%)
                                                  f 0.00(  0.01%)
                                           -0.0000  0.0000  0.0000  0.2676  0.0008
                                           -0.0022 -0.0015  0.0000  0.0000  0.2061
                                           -0.0012 -0.0005  0.0005  0.0000  0.0000
                                            0.9393 -0.0057 -0.0035  0.0006 -0.0000
                                           -0.0000  0.0551  0.0002 -0.0002  0.0001
                                           -0.0000  0.0079 -0.0017  0.0001  0.0000
                                            0.0006 -0.0002  0.0001  0.0000  0.0029
                                           -0.0007  0.0003 -0.0000 -0.0168  0.0032
                                            0.0009 -0.0000 -0.0115  0.0025 -0.0003
                                           -0.0006 -0.0003 -0.0009 -0.0006 -0.0041
                                           -0.0021 -0.0007 -0.0003  0.0003  0.0001
                                           -0.0031 -0.0015 -0.0040 -0.0015
    32. (0.01931) RY*( 1) O   1           s(  0.01%)p 1.00( 98.64%)d 0.01(  1.30%)
                                                  f 0.00(  0.05%)
                                           -0.0000 -0.0000  0.0094  0.0007  0.0001
                                            0.0006 -0.0038  0.0002 -0.0008 -0.0024
                                            0.0990 -0.0035 -0.0020 -0.0247  0.9870
                                           -0.0403 -0.0135  0.0087  0.0024  0.0004
                                            0.0866  0.0276  0.0099 -0.0630  0.0025
                                            0.0177  0.0061 -0.0007 -0.0019  0.0135
                                            0.0006 -0.0015 -0.0113  0.0103  0.0003
                                            0.0000 -0.0010  0.0012  0.0126 -0.0106
                                           -0.0034  0.0015  0.0005 -0.0002  0.0019
                                           -0.0016
    33. (0.01584) RY*( 2) O   1           s( 30.54%)p 2.20( 67.19%)d 0.07(  2.06%)
                                                  f 0.01(  0.22%)
                                           -0.0000  0.0014  0.5514 -0.0365 -0.0053
                                            0.0384 -0.3417 -0.0031  0.0207 -0.0168
                                            0.7374  0.0002 -0.0516  0.0012 -0.0803
                                            0.0013  0.0055  0.1287  0.0253  0.0063
                                           -0.0156 -0.0037 -0.0018  0.0094 -0.0009
                                           -0.0028  0.0236  0.0024  0.0008  0.0487
                                            0.0017 -0.0062 -0.0020  0.0005 -0.0043
                                            0.0010  0.0048  0.0011 -0.0051  0.0024
                                            0.0039 -0.0021  0.0332 -0.0150  0.0249
                                           -0.0126
    34. (0.00782) RY*( 3) O   1           s( 16.67%)p 0.50(  8.41%)d 4.42( 73.62%)
                                                  f 0.08(  1.30%)
                                           -0.0000  0.0167  0.4028 -0.0629  0.0159
                                           -0.0210 -0.1406  0.0076  0.0318 -0.0106
                                           -0.2374  0.0281 -0.0716  0.0002  0.0196
                                           -0.0020  0.0021 -0.8243 -0.0134 -0.0251
                                            0.0380  0.0018  0.0018 -0.0087 -0.0016
                                           -0.0001  0.1391  0.0084  0.0284  0.1848
                                           -0.0092  0.0039 -0.0034  0.0018 -0.0253
                                            0.0153  0.0042  0.0007  0.0008 -0.0000
                                           -0.0090  0.0039 -0.0490  0.0171 -0.0883
                                            0.0393
    35. (0.00700) RY*( 4) O   1           s(  0.02%)p17.44(  0.41%)d99.99( 97.89%)
                                                  f72.39(  1.68%)
                                            0.0000  0.0009  0.0151 -0.0016 -0.0004
                                           -0.0009 -0.0009  0.0005  0.0012 -0.0010
                                           -0.0028 -0.0012 -0.0009 -0.0167 -0.0605
                                           -0.0090 -0.0045  0.0276 -0.0032  0.0002
                                            0.9221 -0.0360  0.0170  0.3487 -0.0199
                                            0.0062 -0.0383  0.0025  0.0002 -0.0520
                                            0.0025 -0.0020 -0.0382  0.0177  0.0025
                                           -0.0011  0.0092 -0.0041  0.1089 -0.0484
                                           -0.0230  0.0103 -0.0022  0.0003  0.0077
                                           -0.0036
    36. (0.00621) RY*( 5) O   1           s(  1.47%)p10.92( 16.06%)d55.00( 80.87%)
                                                  f 1.09(  1.60%)
[...]
                                           -0.0379  0.2442  0.0668 -0.4252  0.1695
                                           -0.0408 -0.0050 -0.0696  0.0169  0.0913
                                           -0.0841  0.1101 -0.0880
   163. (0.00031) RY*( 9) H   4           s(  3.09%)p27.89( 86.26%)d 3.44( 10.65%)
                                           -0.0017 -0.0134  0.1753  0.0036 -0.0207
                                            0.1084  0.0807  0.0371 -0.0469  0.0037
                                            0.1212 -0.9085  0.0182 -0.1546  0.0158
                                            0.0637 -0.0783  0.1473 -0.2061  0.0689
                                            0.0113  0.0457  0.0314
   164. (0.00025) RY*(10) H   4           s(  2.65%)p12.24( 32.45%)d24.48( 64.90%)
                                            0.0145  0.0595 -0.0182  0.1498 -0.1007
                                           -0.1390  0.1695 -0.0324 -0.3218  0.3900
                                           -0.0136  0.0879 -0.0400 -0.4181 -0.0198
                                           -0.0223  0.0068 -0.0068  0.0265  0.4598
                                            0.0976 -0.4897  0.1082
   165. (0.00023) RY*(11) H   4           s(  3.15%)p 1.74(  5.48%)d29.04( 91.37%)
                                            0.0057  0.0053  0.1633  0.0689  0.0445
                                            0.0203 -0.0611 -0.0158 -0.1782  0.0949
                                           -0.0134  0.0856  0.0129  0.2125  0.0210
                                            0.8727 -0.0952 -0.0534  0.0019  0.2426
                                            0.0015  0.1833 -0.0471
   166. (0.00021) RY*(12) H   4           s(  5.35%)p 5.46( 29.24%)d12.22( 65.41%)
                                            0.0150  0.0196  0.1861  0.1352  0.0515
                                           -0.0212 -0.0457 -0.0341 -0.4221  0.3218
                                            0.0192  0.0549  0.0291  0.1758 -0.0485
                                           -0.3992  0.0502  0.0943 -0.0049  0.2050
                                            0.0669  0.6352  0.0020
   167. (0.00018) RY*(13) H   4           s(  9.11%)p 1.31( 11.95%)d 8.67( 78.95%)
                                           -0.0053 -0.0317  0.2941 -0.0596  0.0548
                                           -0.0190 -0.2242  0.0139  0.1491 -0.2049
                                           -0.0001 -0.0356  0.0122  0.4862  0.1333
                                           -0.2274  0.0151  0.0334 -0.0550  0.5666
                                           -0.1133 -0.3317 -0.1880
   168. (0.00013) RY*(14) H   4           s(  3.26%)p13.17( 42.95%)d16.49( 53.78%)
                                           -0.0018 -0.0039  0.0811  0.1613  0.0065
                                            0.0354  0.0852 -0.0054  0.0164 -0.0275
                                           -0.0138 -0.2091 -0.6132  0.0565 -0.0734
                                           -0.0245  0.1456 -0.3914  0.5886  0.0191
                                           -0.0494  0.0338 -0.0630
   169. (0.00011) RY*(15) H   4           s(  0.89%)p41.94( 37.18%)d69.87( 61.94%)
                                            0.0030  0.0075  0.0799 -0.0491 -0.0267
                                           -0.1122 -0.5739 -0.0109  0.0357  0.1373
                                            0.0019 -0.0340 -0.0878 -0.2217  0.6693
                                            0.0045 -0.0197 -0.0503  0.0970 -0.1103
                                            0.3106  0.0324 -0.0141
   170. (0.00011) RY*(16) H   4           s( 68.76%)p 0.07(  5.00%)d 0.38( 26.24%)
                                           -0.0022 -0.0093  0.3039  0.7715  0.0258
                                            0.1336 -0.0114  0.0088  0.0865  0.1097
                                           -0.0085  0.0303  0.1037  0.2077 -0.0171
                                           -0.0218 -0.0253  0.0540 -0.0718 -0.3388
                                            0.1716 -0.2441  0.0771
   171. (0.00006) RY*(17) H   4           s(  0.00%)p 1.00(  0.28%)d99.99( 99.72%)
   172. (0.00005) RY*(18) H   4           s(  0.02%)p99.99( 33.28%)d99.99( 66.70%)
   173. (0.00006) RY*(19) H   4           s(  0.38%)p 4.99(  1.90%)d99.99( 97.72%)
   174. (0.00004) RY*(20) H   4           s(  2.84%)p 8.53( 24.27%)d25.64( 72.89%)
   175. (0.00004) RY*(21) H   4           s(  2.92%)p16.01( 46.73%)d17.25( 50.35%)
   176. (0.00005) RY*(22) H   4           s( 48.97%)p 0.39( 19.04%)d 0.65( 31.99%)
   177. (0.05880) BD*( 1) O   1 -Cl   2  
                ( 41.15%)   0.6415* O   1 s( 10.02%)p 8.93( 89.46%)d 0.05(  0.50%)
                                                  f 0.00(  0.02%)
                                           -0.0003 -0.3138  0.0390  0.0143  0.0005
                                           -0.9446  0.0283  0.0101  0.0106  0.0182
                                            0.0294  0.0052  0.0002 -0.0046 -0.0028
                                           -0.0005  0.0001  0.0230  0.0017 -0.0025
                                           -0.0027 -0.0004  0.0001  0.0021  0.0002
                                           -0.0003 -0.0517 -0.0047 -0.0024  0.0419
                                            0.0038 -0.0005  0.0000  0.0000  0.0114
                                           -0.0013  0.0002 -0.0001 -0.0001  0.0002
                                            0.0011 -0.0003 -0.0054 -0.0007  0.0005
                                           -0.0021
                ( 58.85%)  -0.7671*Cl   2 s(  8.18%)p11.07( 90.58%)d 0.14(  1.12%)
                                                  f 0.01(  0.11%)
                                            0.0000 -0.0005 -0.2807  0.0539  0.0103
                                           -0.0022  0.0004  0.9494 -0.0636 -0.0141
                                            0.0045  0.0000  0.0100  0.0021 -0.0024
                                            0.0008 -0.0000 -0.0009 -0.0001  0.0003
                                           -0.0001 -0.0123  0.0000 -0.0008  0.0019
                                            0.0002  0.0001  0.0009 -0.0000 -0.0002
                                           -0.0884  0.0102  0.0003  0.0561 -0.0056
                                           -0.0009  0.0001 -0.0000 -0.0208  0.0033
                                           -0.0005  0.0002 -0.0001 -0.0000 -0.0003
                                            0.0002  0.0252 -0.0030  0.0012 -0.0002
   178. (0.10359) BD*( 1) O   1 - H   4  
                ( 20.95%)   0.4577* O   1 s( 30.41%)p 2.27( 69.09%)d 0.02(  0.49%)
                                                  f 0.00(  0.01%)
                                            0.0003  0.5513 -0.0083 -0.0081  0.0018
                                           -0.1970  0.0176  0.0028  0.0029 -0.8033
                                            0.0095  0.0068  0.0041  0.0793 -0.0006
                                           -0.0007 -0.0008 -0.0003 -0.0029 -0.0002
                                            0.0000  0.0003  0.0001 -0.0119 -0.0007
                                            0.0002 -0.0584 -0.0050 -0.0022 -0.0360
                                           -0.0011  0.0027 -0.0019 -0.0001  0.0015
                                            0.0006  0.0082  0.0004 -0.0012 -0.0004
                                            0.0004  0.0004  0.0017  0.0024 -0.0004
                                            0.0025
                ( 79.05%)  -0.8891* H   4 s( 99.85%)p 0.00(  0.15%)d 0.00(  0.00%)
                                            0.9983  0.0418  0.0020 -0.0012  0.0114
                                            0.0078  0.0016 -0.0157  0.0308 -0.0105
                                            0.0047 -0.0031  0.0003 -0.0002 -0.0022
                                            0.0003  0.0003  0.0004  0.0000 -0.0017
                                           -0.0004 -0.0000 -0.0029


 NHO Directionality and "Bond Bending" (deviations from line of nuclear centers)

         [Thresholds for printing:  angular deviation  >  1.0 degree]
                                    hybrid p-character > 25.0%
                                    orbital occupancy  >  0.10e

                                Line of Centers        Hybrid 1              Hybrid 2
                                ---------------  -------------------   ------------------
                NBO               Theta   Phi    Theta   Phi    Dev    Theta   Phi    Dev
 ========================================================================================
     1. BD (   1) O   1 -Cl   2    90.0    0.0    89.5  356.6   3.4      --     --    --
    23. LP (   1) O   1             --     --     95.8  113.0   --       --     --    --
    24. LP (   2) O   1             --     --      5.9   92.5   --       --     --    --
    26. LP (   2)Cl   2             --     --    176.4  270.4   --       --     --    --
    27. LP (   3)Cl   2             --     --     93.6   90.3   --       --     --    --
    29. LP (   2)Br   3             --     --      4.1  220.4   --       --     --    --
    30. LP (   3)Br   3             --     --     87.5  347.4   --       --     --    --
    31. LP (   4)Br   3             --     --     86.7   77.6   --       --     --    --


 Natural Bond Orbitals (Summary):

           NBO                  Occupancy  
 -----------------------------------------------
 Molecular unit  1  (HOCl)
     1. BD (   1) O   1 -Cl   2          1.93864
     2. BD (   1) O   1 - H   4          1.96662
     3. CR (   1) O   1                  1.99966
     4. CR (   1)Cl   2                  2.00000
     5. CR (   2)Cl   2                  1.99981
     6. CR (   3)Cl   2                  1.99996
     7. CR (   4)Cl   2                  2.00003
     8. CR (   5)Cl   2                  2.00003
    23. LP (   1) O   1                  1.96667
    24. LP (   2) O   1                  1.95328
    25. LP (   1)Cl   2                  1.97406
    26. LP (   2)Cl   2                  1.95618
    27. LP (   3)Cl   2                  1.95496
    32. RY*(   1) O   1                  0.01931
    33. RY*(   2) O   1                  0.01584
    34. RY*(   3) O   1                  0.00782
    35. RY*(   4) O   1                  0.00700
    36. RY*(   5) O   1                  0.00621
    37. RY*(   6) O   1                  0.00613
    38. RY*(   7) O   1                  0.00569
    39. RY*(   8) O   1                  0.00312
    40. RY*(   9) O   1                  0.00251
    41. RY*(  10) O   1                  0.00081
    42. RY*(  11) O   1                  0.00064
    43. RY*(  12) O   1                  0.00059
    44. RY*(  13) O   1                  0.00058
    45. RY*(  14) O   1                  0.00051
    46. RY*(  15) O   1                  0.00050
    47. RY*(  16) O   1                  0.00047
    48. RY*(  17) O   1                  0.00047
    49. RY*(  18) O   1                  0.00046
    50. RY*(  19) O   1                  0.00044
    51. RY*(  20) O   1                  0.00044
    52. RY*(  21) O   1                  0.00044
    53. RY*(  22) O   1                  0.00041
    54. RY*(  23) O   1                  0.00034
    55. RY*(  24) O   1                  0.00030
    56. RY*(  25) O   1                  0.00024
    57. RY*(  26) O   1                  0.00020
    58. RY*(  27) O   1                  0.00012
    59. RY*(  28) O   1                  0.00013
    60. RY*(  29) O   1                  0.00013
    61. RY*(  30) O   1                  0.00009
    62. RY*(  31) O   1                  0.00008
    63. RY*(  32) O   1                  0.00008
    64. RY*(  33) O   1                  0.00007
    65. RY*(  34) O   1                  0.00008
    66. RY*(  35) O   1                  0.00008
    67. RY*(  36) O   1                  0.00006
    68. RY*(  37) O   1                  0.00006
    69. RY*(  38) O   1                  0.00006
    70. RY*(  39) O   1                  0.00003
    71. RY*(  40) O   1                  0.00003
    72. RY*(  41) O   1                  0.00001
    73. RY*(   1)Cl   2                  0.02211
    74. RY*(   2)Cl   2                  0.01727
    75. RY*(   3)Cl   2                  0.01674
    76. RY*(   4)Cl   2                  0.01648
    77. RY*(   5)Cl   2                  0.01160
    78. RY*(   6)Cl   2                  0.00924
    79. RY*(   7)Cl   2                  0.00902
    80. RY*(   8)Cl   2                  0.00627
    81. RY*(   9)Cl   2                  0.00166
    82. RY*(  10)Cl   2                  0.00126
    83. RY*(  11)Cl   2                  0.00126
    84. RY*(  12)Cl   2                  0.00119
    85. RY*(  13)Cl   2                  0.00120
    86. RY*(  14)Cl   2                  0.00116
    87. RY*(  15)Cl   2                  0.00110
    88. RY*(  16)Cl   2                  0.00094
    89. RY*(  17)Cl   2                  0.00076
    90. RY*(  18)Cl   2                  0.00076
    91. RY*(  19)Cl   2                  0.00063
    92. RY*(  20)Cl   2                  0.00054
    93. RY*(  21)Cl   2                  0.00043
    94. RY*(  22)Cl   2                  0.00035
    95. RY*(  23)Cl   2                  0.00036
    96. RY*(  24)Cl   2                  0.00031
    97. RY*(  25)Cl   2                  0.00019
    98. RY*(  26)Cl   2                  0.00016
    99. RY*(  27)Cl   2                  0.00014
   100. RY*(  28)Cl   2                  0.00013
   101. RY*(  29)Cl   2                  0.00012
   102. RY*(  30)Cl   2                  0.00012
   103. RY*(  31)Cl   2                  0.00011
   104. RY*(  32)Cl   2                  0.00010
   105. RY*(  33)Cl   2                  0.00010
   106. RY*(  34)Cl   2                  0.00009
   107. RY*(  35)Cl   2                  0.00010
   108. RY*(  36)Cl   2                  0.00007
   109. RY*(  37)Cl   2                  0.00008
   110. RY*(  38)Cl   2                  0.00005
   111. RY*(  39)Cl   2                  0.00004
   112. RY*(  40)Cl   2                  0.00003
   113. RY*(  41)Cl   2                  0.00000
   155. RY*(   1) H   4                  0.01085
   156. RY*(   2) H   4                  0.00549
   157. RY*(   3) H   4                  0.00493
   158. RY*(   4) H   4                  0.00368
   159. RY*(   5) H   4                  0.00060
   160. RY*(   6) H   4                  0.00053
   161. RY*(   7) H   4                  0.00047
   162. RY*(   8) H   4                  0.00035
   163. RY*(   9) H   4                  0.00031
   164. RY*(  10) H   4                  0.00025
   165. RY*(  11) H   4                  0.00023
   166. RY*(  12) H   4                  0.00021
   167. RY*(  13) H   4                  0.00018
   168. RY*(  14) H   4                  0.00013
   169. RY*(  15) H   4                  0.00011
   170. RY*(  16) H   4                  0.00011
   171. RY*(  17) H   4                  0.00006
   172. RY*(  18) H   4                  0.00005
   173. RY*(  19) H   4                  0.00006
   174. RY*(  20) H   4                  0.00004
   175. RY*(  21) H   4                  0.00004
   176. RY*(  22) H   4                  0.00005
   177. BD*(   1) O   1 -Cl   2          0.05880
   178. BD*(   1) O   1 - H   4          0.10359
       -------------------------------
              Total Lewis   25.70990  ( 98.4757%)
        Valence non-Lewis    0.16239  (  0.6220%)
        Rydberg non-Lewis    0.23557  (  0.9023%)
       -------------------------------
            Total unit  1   26.10787  (100.0000%)
           Charge unit  1   -0.10787

 Molecular unit  2  (Br)
     9. CR (   1)Br   3                  2.00000
    10. CR (   2)Br   3                  2.00000
    11. CR (   3)Br   3                  1.99990
    12. CR (   4)Br   3                  2.00000
    13. CR (   5)Br   3                  2.00001
    14. CR (   6)Br   3                  2.00000
    15. CR (   7)Br   3                  1.99994
    16. CR (   8)Br   3                  2.00000
    17. CR (   9)Br   3                  2.00001
    18. CR (  10)Br   3                  1.99765
    19. CR (  11)Br   3                  1.99769
    20. CR (  12)Br   3                  1.99766
    21. CR (  13)Br   3                  1.99763
    22. CR (  14)Br   3                  1.99767
    28. LP (   1)Br   3                  1.97848
    29. LP (   2)Br   3                  1.95402
    30. LP (   3)Br   3                  1.95370
    31. LP (   4)Br   3                  1.86547
   114. RY*(   1)Br   3                  0.01880
   115. RY*(   2)Br   3                  0.01874
   116. RY*(   3)Br   3                  0.01865
   117. RY*(   4)Br   3                  0.01864
   118. RY*(   5)Br   3                  0.01783
   119. RY*(   6)Br   3                  0.01129
   120. RY*(   7)Br   3                  0.01122
   121. RY*(   8)Br   3                  0.00929
   122. RY*(   9)Br   3                  0.00229
   123. RY*(  10)Br   3                  0.00180
   124. RY*(  11)Br   3                  0.00179
   125. RY*(  12)Br   3                  0.00175
   126. RY*(  13)Br   3                  0.00175
   127. RY*(  14)Br   3                  0.00175
   128. RY*(  15)Br   3                  0.00175
   129. RY*(  16)Br   3                  0.00175
   130. RY*(  17)Br   3                  0.00175
   131. RY*(  18)Br   3                  0.00175
   132. RY*(  19)Br   3                  0.00143
   133. RY*(  20)Br   3                  0.00139
   134. RY*(  21)Br   3                  0.00120
   135. RY*(  22)Br   3                  0.00079
   136. RY*(  23)Br   3                  0.00079
   137. RY*(  24)Br   3                  0.00073
   138. RY*(  25)Br   3                  0.00039
   139. RY*(  26)Br   3                  0.00028
   140. RY*(  27)Br   3                  0.00026
   141. RY*(  28)Br   3                  0.00025
   142. RY*(  29)Br   3                  0.00026
   143. RY*(  30)Br   3                  0.00025
   144. RY*(  31)Br   3                  0.00024
   145. RY*(  32)Br   3                  0.00024
   146. RY*(  33)Br   3                  0.00023
   147. RY*(  34)Br   3                  0.00022
   148. RY*(  35)Br   3                  0.00017
   149. RY*(  36)Br   3                  0.00016
   150. RY*(  37)Br   3                  0.00016
   151. RY*(  38)Br   3                  0.00010
   152. RY*(  39)Br   3                  0.00007
   153. RY*(  40)Br   3                  0.00007
   154. RY*(  41)Br   3                  0.00004
       -------------------------------
              Total Lewis   35.73984  ( 99.5757%)
        Valence non-Lewis    0.00000  (  0.0000%)
        Rydberg non-Lewis    0.15229  (  0.4243%)
       -------------------------------
            Total unit  2   35.89213  (100.0000%)
           Charge unit  2   -0.89213
 Leave Link  607 at Fri Nov  5 16:35:33 2021, MaxMem= 16106127360 cpu:              76.3 elap:               2.8
 (Enter /sw/contrib/gaussian/g16/B01/g16/l9999.exe)
 1\1\GINC-N2219\SP\RMP2-FC\Aug-CC-pVTZ\Br1Cl1H1O1(1-)\CGAVINH\05-Nov-20
 21\0\\#p pop=NBO SP NoSymm mp2/aug-cc-pvtz density=current\\title\\-1,
 1\O\X,1,10.\Cl,1,1.69705154,2,90.\Br,1,3.09318778,2,90.,3,102.48429983
 ,0\H,1,0.96862334,2,85.,3,102.48429983,0\\Version=ES64L-G16RevB.01\HF=
 -3107.4793137\MP2=-3108.1809347\RMSD=4.290e-09\Dipole=0.874451,0.95845
 24,0.0255436\Quadrupole=7.914104,-17.212183,9.298079,-6.178065,-0.0241
 093,-0.0110442\PG=C01 [X(Br1Cl1H1O1)]\\@


 EVERY WORD THAT YOU WRITE IS A BLOW THAT SMITES THE DEVIL.
     -- ST. BERNARD OF CLAIRVAUX
 Job cpu time:       0 days  0 hours  6 minutes  5.9 seconds.
 Elapsed time:       0 days  0 hours  0 minutes 19.2 seconds.
 File lengths (MBytes):  RWF=     15 Int=      0 D2E=      0 Chk=      8 Scr=      1
 Normal termination of Gaussian 16 at Fri Nov  5 16:35:33 2021.
