 Entering Gaussian System, Link 0=g16
 Input=brhocl_rOBr_opt.gjf
 Output=brhocl_rOBr_opt.log
 Initial command:
 /sw/contrib/gaussian/g16/B01/g16/l1.exe "/scr/Gau-30590.inp" -scrdir="/scr/"
 Entering Link 1 = /sw/contrib/gaussian/g16/B01/g16/l1.exe PID=     30591.
  
 Copyright (c) 1988-2017, Gaussian, Inc.  All Rights Reserved.
  
 This is part of the Gaussian(R) 16 program.  It is based on
 the Gaussian(R) 09 system (copyright 2009, Gaussian, Inc.),
 the Gaussian(R) 03 system (copyright 2003, Gaussian, Inc.),
 the Gaussian(R) 98 system (copyright 1998, Gaussian, Inc.),
 the Gaussian(R) 94 system (copyright 1995, Gaussian, Inc.),
 the Gaussian 92(TM) system (copyright 1992, Gaussian, Inc.),
 the Gaussian 90(TM) system (copyright 1990, Gaussian, Inc.),
 the Gaussian 88(TM) system (copyright 1988, Gaussian, Inc.),
 the Gaussian 86(TM) system (copyright 1986, Carnegie Mellon
 University), and the Gaussian 82(TM) system (copyright 1983,
 Carnegie Mellon University). Gaussian is a federally registered
 trademark of Gaussian, Inc.
  
 This software contains proprietary and confidential information,
 including trade secrets, belonging to Gaussian, Inc.
  
 This software is provided under written license and may be
 used, copied, transmitted, or stored only in accord with that
 written license.
  
 The following legend is applicable only to US Government
 contracts under FAR:
  
                    RESTRICTED RIGHTS LEGEND
  
 Use, reproduction and disclosure by the US Government is
 subject to restrictions as set forth in subparagraphs (a)
 and (c) of the Commercial Computer Software - Restricted
 Rights clause in FAR 52.227-19.
  
 Gaussian, Inc.
 340 Quinnipiac St., Bldg. 40, Wallingford CT 06492
  
  
 ---------------------------------------------------------------
 Warning -- This program may not be used in any manner that
 competes with the business of Gaussian, Inc. or will provide
 assistance to any competitor of Gaussian, Inc.  The licensee
 of this program is prohibited from giving any competitor of
 Gaussian, Inc. access to this program.  By using this program,
 the user acknowledges that Gaussian, Inc. is engaged in the
 business of creating and licensing software in the field of
 computational chemistry and represents and warrants to the
 licensee that it is not a competitor of Gaussian, Inc. and that
 it will not use this program in any manner prohibited above.
 ---------------------------------------------------------------
  

 Cite this work as:
 Gaussian 16, Revision B.01,
 M. J. Frisch, G. W. Trucks, H. B. Schlegel, G. E. Scuseria, 
 M. A. Robb, J. R. Cheeseman, G. Scalmani, V. Barone, 
 G. A. Petersson, H. Nakatsuji, X. Li, M. Caricato, A. V. Marenich, 
 J. Bloino, B. G. Janesko, R. Gomperts, B. Mennucci, H. P. Hratchian, 
 J. V. Ortiz, A. F. Izmaylov, J. L. Sonnenberg, D. Williams-Young, 
 F. Ding, F. Lipparini, F. Egidi, J. Goings, B. Peng, A. Petrone, 
 T. Henderson, D. Ranasinghe, V. G. Zakrzewski, J. Gao, N. Rega, 
 G. Zheng, W. Liang, M. Hada, M. Ehara, K. Toyota, R. Fukuda, 
 J. Hasegawa, M. Ishida, T. Nakajima, Y. Honda, O. Kitao, H. Nakai, 
 T. Vreven, K. Throssell, J. A. Montgomery, Jr., J. E. Peralta, 
 F. Ogliaro, M. J. Bearpark, J. J. Heyd, E. N. Brothers, K. N. Kudin, 
 V. N. Staroverov, T. A. Keith, R. Kobayashi, J. Normand, 
 K. Raghavachari, A. P. Rendell, J. C. Burant, S. S. Iyengar, 
 J. Tomasi, M. Cossi, J. M. Millam, M. Klene, C. Adamo, R. Cammi, 
 J. W. Ochterski, R. L. Martin, K. Morokuma, O. Farkas, 
 J. B. Foresman, and D. J. Fox, Gaussian, Inc., Wallingford CT, 2016.
 
 ******************************************
 Gaussian 16:  ES64L-G16RevB.01 20-Dec-2017
                 5-Nov-2021 
 ******************************************
 %nproc=28
 Will use up to   28 processors via shared memory.
 %mem=120GB
 %chk=/gscratch/ilahie/mccoygrp/coire_hocl/oop_s_rOH_f/brhocl/brhocl_rOBr_opt.chk
 -------------------------------------------------
 #p opt=(z-matrix) mp2/aug-cc-pvtz density=current
 -------------------------------------------------
 1/10=7,18=40,38=1/1,3;
 2/12=2,17=6,18=5,29=3,40=1/2;
 3/5=16,6=1,7=10,11=9,25=1,30=1,71=1/1,2,3;
 4//1;
 5/5=2,38=5/2;
 8/6=4,10=1/1;
 9/15=2,16=-3/6;
 10/5=1/2;
 6/7=2,8=2,9=2,10=2,22=-1/1;
 7/12=2,29=1/1,2,3,16;
 1/10=7,18=40/3(2);
 2/29=3/2;
 99//99;
 2/29=3/2;
 3/5=16,6=1,7=10,11=9,25=1,30=1,71=1/1,2,3;
 4/5=5,16=3,69=1/1;
 5/5=2,38=5/2;
 8/6=4,10=1/1;
 9/15=2,16=-3/6;
 10/5=1/2;
 7/12=2/1,2,3,16;
 1/18=40/3(-8);
 2/29=3/2;
 6/7=2,8=2,9=2,10=2,22=-1/1;
 99/9=10/99;
 Leave Link    1 at Fri Nov  5 16:01:42 2021, MaxMem= 16106127360 cpu:               1.9 elap:               0.1
 (Enter /sw/contrib/gaussian/g16/B01/g16/l101.exe)
 -----
 title
 -----
 Symbolic Z-matrix:
 Charge = -1 Multiplicity = 1
 O
 X                    1     10. 
 Cl                   1    r1       2     90. 
 Br                   1    r2       2     90.      3    a1       0
 H                    1    r3       2    oop      3    a1       0
       Variables:
  r1                    1.697   -1        0.     
  r2                    2.90468                  
  r3                    0.96862 -1        0.     
  a1                  102.4843  -1        0.     
  OOP                  90.      -1        0.     
 
 ITRead=  0  0  0  0
 MicOpt= -1 -1 -1 -1
 NAtoms=      4 NQM=        4 NQMF=       0 NMMI=      0 NMMIF=      0
                NMic=       0 NMicF=      0.
                    Isotopes and Nuclear Properties:
 (Nuclear quadrupole moments (NQMom) in fm**2, nuclear magnetic moments (NMagM)
  in nuclear magnetons)

  Atom         1           2           3           4
 IAtWgt=          16          35          79           1
 AtmWgt=  15.9949146  34.9688527  78.9183361   1.0078250
 NucSpn=           0           3           3           1
 AtZEff=  -0.0000000  -0.0000000  -0.0000000  -0.0000000
 NQMom=    0.0000000  -8.1650000  31.3000000   0.0000000
 NMagM=    0.0000000   0.8218740   2.1063990   2.7928460
 AtZNuc=   8.0000000  17.0000000  35.0000000   1.0000000
 Leave Link  101 at Fri Nov  5 16:01:42 2021, MaxMem= 16106127360 cpu:               3.0 elap:               0.1
 (Enter /sw/contrib/gaussian/g16/B01/g16/l103.exe)

 GradGradGradGradGradGradGradGradGradGradGradGradGradGradGradGradGradGrad
 Berny optimization.
 Initialization pass.
                       ----------------------------
                       !    Initial Parameters    !
                       ! (Angstroms and Degrees)  !
 ----------------------                            ----------------------
 !      Name          Value   Derivative information (Atomic Units)     !
 ------------------------------------------------------------------------
 !       r1          1.697    Frozen                                    !
 !       r2          2.9047   estimate D2E/DX2                          !
 !       r3          0.9686   Frozen                                    !
 !       a1        102.4843   Frozen                                    !
 !       OOP        90.0      Frozen                                    !
 ------------------------------------------------------------------------
 Trust Radius=3.00D-01 FncErr=1.00D-07 GrdErr=1.00D-07 EigMax=2.50D+02 EigMin=1.00D-04
 Number of steps in this run=     20 maximum allowed number of steps=    100.
 GradGradGradGradGradGradGradGradGradGradGradGradGradGradGradGradGradGrad

 Leave Link  103 at Fri Nov  5 16:01:42 2021, MaxMem= 16106127360 cpu:               0.6 elap:               0.0
 (Enter /sw/contrib/gaussian/g16/B01/g16/l202.exe)
 ---------------------------------------------------------------------------------------------------
                            Z-MATRIX (ANGSTROMS AND DEGREES)
   CD    Cent   Atom    N1       Length/X        N2       Alpha/Y        N3        Beta/Z          J
 ---------------------------------------------------------------------------------------------------
      1      1  O 
      2         X        1  10.000000(     1)
      3      2  Cl       1   1.697002(     2)      2   90.000(     5)
      4      3  Br       1   2.904676(     3)      2   90.000(     6)      3  102.484(     8)      0
      5      4  H        1   0.968623(     4)      2   90.000(     7)      3  102.484(     9)      0
 ---------------------------------------------------------------------------------------------------
                         Z-Matrix orientation:                         
 ---------------------------------------------------------------------
 Center     Atomic      Atomic             Coordinates (Angstroms)
 Number     Number       Type             X           Y           Z
 ---------------------------------------------------------------------
      1          8           0        0.000000    0.000000    0.000000
      2         -1           0        0.000000    0.000000   10.000000
      3         17           0        1.697002    0.000000    0.000000
      4         35           0       -0.627910   -2.835996    0.000000
      5          1           0       -0.209389   -0.945721    0.000000
 ---------------------------------------------------------------------
                    Distance matrix (angstroms):
                    1          2          3          4          5
     1  O    0.000000
     2  X   10.000000   0.000000
     3  Cl   1.697002  10.142969   0.000000
     4  Br   2.904676  10.413316   3.667163   0.000000
     5  H    0.968623  10.046802   2.128077   1.936053   0.000000
 Stoichiometry    BrClHO(1-)
 Framework group  CS[SG(BrClHO)]
 Deg. of freedom     5
 Full point group                 CS      NOp   2
 Largest Abelian subgroup         CS      NOp   2
 Largest concise Abelian subgroup C1      NOp   1
                         Standard orientation:                         
 ---------------------------------------------------------------------
 Center     Atomic      Atomic             Coordinates (Angstroms)
 Number     Number       Type             X           Y           Z
 ---------------------------------------------------------------------
      1          8           0        0.583617    1.539426    0.000000
      2         17           0        2.127006    0.833900    0.000000
      3         35           0       -1.166515   -0.778802    0.000000
      4          1           0       -0.000000    0.766366    0.000000
 ---------------------------------------------------------------------
 Rotational constants (GHZ):          22.5253816           1.4101395           1.3270625
 Leave Link  202 at Fri Nov  5 16:01:42 2021, MaxMem= 16106127360 cpu:               2.0 elap:               0.1
 (Enter /sw/contrib/gaussian/g16/B01/g16/l301.exe)
 Standard basis: Aug-CC-pVTZ (5D, 7F)
 Ernie: Thresh=  0.10000D-02 Tol=  0.10000D-05 Strict=F.
 Ernie:  48 primitive shells out of 228 were deleted.
 There are   142 symmetry adapted cartesian basis functions of A'  symmetry.
 There are    66 symmetry adapted cartesian basis functions of A"  symmetry.
 There are   118 symmetry adapted basis functions of A'  symmetry.
 There are    60 symmetry adapted basis functions of A"  symmetry.
   178 basis functions,   430 primitive gaussians,   208 cartesian basis functions
    31 alpha electrons       31 beta electrons
       nuclear repulsion energy       197.4434241641 Hartrees.
 IExCor=    0 DFT=F Ex=HF Corr=None ExCW=0 ScaHFX=  1.000000
 ScaDFX=  1.000000  1.000000  1.000000  1.000000 ScalE2=  1.000000  1.000000
 IRadAn=      5 IRanWt=     -1 IRanGd=            0 ICorTp=0 IEmpDi=  4
 NAtoms=    4 NActive=    4 NUniq=    4 SFac= 1.00D+00 NAtFMM=   60 NAOKFM=F Big=F
 Integral buffers will be    131072 words long.
 Raffenetti 1 integral format.
 Two-electron integral symmetry is turned on.
 Leave Link  301 at Fri Nov  5 16:01:42 2021, MaxMem= 16106127360 cpu:               1.7 elap:               0.1
 (Enter /sw/contrib/gaussian/g16/B01/g16/l302.exe)
 NPDir=0 NMtPBC=     1 NCelOv=     1 NCel=       1 NClECP=     1 NCelD=      1
         NCelK=      1 NCelE2=     1 NClLst=     1 CellRange=     0.0.
 One-electron integrals computed using PRISM.
 One-electron integral symmetry used in STVInt
 NBasis=   178 RedAO= T EigKep=  2.12D-04  NBF=   118    60
 NBsUse=   178 1.00D-06 EigRej= -1.00D+00 NBFU=   118    60
 Leave Link  302 at Fri Nov  5 16:01:42 2021, MaxMem= 16106127360 cpu:               5.2 elap:               0.2
 (Enter /sw/contrib/gaussian/g16/B01/g16/l303.exe)
 DipDrv:  MaxL=1.
 Leave Link  303 at Fri Nov  5 16:01:42 2021, MaxMem= 16106127360 cpu:               2.6 elap:               0.2
 (Enter /sw/contrib/gaussian/g16/B01/g16/l401.exe)
 ExpMin= 2.53D-02 ExpMax= 1.06D+07 ExpMxC= 1.21D+04 IAcc=3 IRadAn=         5 AccDes= 0.00D+00
 Harris functional with IExCor=  205 and IRadAn=       5 diagonalized for initial guess.
 HarFok:  IExCor=  205 AccDes= 0.00D+00 IRadAn=         5 IDoV= 1 UseB2=F ITyADJ=14
 ICtDFT=  3500011 ScaDFX=  1.000000  1.000000  1.000000  1.000000
 FoFCou: FMM=F IPFlag=           0 FMFlag=      100000 FMFlg1=           0
         NFxFlg=           0 DoJE=T BraDBF=F KetDBF=T FulRan=T
         wScrn=  0.000000 ICntrl=       500 IOpCl=  0 I1Cent=   200000004 NGrid=           0
         NMat0=    1 NMatS0=      1 NMatT0=    0 NMatD0=    1 NMtDS0=    0 NMtDT0=    0
 Petite list used in FoFCou.
 Harris En= -3106.38873695222    
 JPrj=0 DoOrth=F DoCkMO=F.
 Initial guess orbital symmetries:
       Occupied  (A') (A') (A') (A') (A') (A") (A') (A') (A') (A')
                 (A') (A") (A') (A') (A") (A') (A') (A") (A') (A")
                 (A') (A') (A') (A') (A') (A") (A') (A') (A") (A')
                 (A")
       Virtual   (A') (A') (A') (A") (A') (A') (A') (A") (A') (A")
                 (A') (A') (A") (A') (A') (A") (A') (A') (A") (A')
                 (A') (A') (A") (A') (A") (A') (A') (A') (A") (A')
                 (A') (A') (A") (A") (A') (A") (A') (A') (A") (A')
                 (A') (A') (A") (A") (A') (A') (A") (A') (A') (A")
                 (A') (A') (A") (A') (A") (A') (A") (A') (A') (A")
                 (A') (A") (A') (A') (A') (A') (A') (A") (A") (A')
                 (A") (A') (A") (A') (A') (A') (A') (A") (A') (A')
                 (A") (A") (A') (A') (A") (A') (A") (A') (A") (A')
                 (A") (A') (A') (A') (A") (A') (A") (A') (A') (A")
                 (A') (A") (A') (A") (A') (A') (A") (A') (A") (A')
                 (A') (A") (A') (A') (A") (A') (A') (A") (A') (A')
                 (A') (A") (A") (A") (A') (A') (A') (A') (A') (A')
                 (A") (A') (A') (A') (A") (A') (A") (A') (A") (A")
                 (A') (A') (A") (A') (A') (A') (A')
 The electronic state of the initial guess is 1-A'.
 Leave Link  401 at Fri Nov  5 16:01:43 2021, MaxMem= 16106127360 cpu:               7.8 elap:               0.3
 (Enter /sw/contrib/gaussian/g16/B01/g16/l502.exe)
 Keep R1 ints in memory in symmetry-blocked form, NReq=191183261.
 FoFCou: FMM=F IPFlag=           0 FMFlag=           0 FMFlg1=           0
         NFxFlg=           0 DoJE=F BraDBF=F KetDBF=F FulRan=T
         wScrn=  0.000000 ICntrl=       600 IOpCl=  0 I1Cent=           0 NGrid=           0
         NMat0=    1 NMatS0=  15931 NMatT0=    0 NMatD0=    1 NMtDS0=    0 NMtDT0=    0
 Petite list used in FoFCou.
 Closed shell SCF:
 Using DIIS extrapolation, IDIIS=  1040.
 NGot= 16106127360 LenX= 16041757360 LenY= 16041713655
 Requested convergence on RMS density matrix=1.00D-08 within 128 cycles.
 Requested convergence on MAX density matrix=1.00D-06.
 Requested convergence on             energy=1.00D-06.
 No special actions if energy rises.

 Cycle   1  Pass 1  IDiag  1:
 E= -3107.30376353881    
 DIIS: error= 4.69D-02 at cycle   1 NSaved=   1.
 NSaved= 1 IEnMin= 1 EnMin= -3107.30376353881     IErMin= 1 ErrMin= 4.69D-02
 ErrMax= 4.69D-02  0.00D+00 EMaxC= 1.00D-01 BMatC= 6.54D-01 BMatP= 6.54D-01
 IDIUse=3 WtCom= 5.31D-01 WtEn= 4.69D-01
 Coeff-Com:  0.100D+01
 Coeff-En:   0.100D+01
 Coeff:      0.100D+01
 Gap=     0.562 Goal=   None    Shift=    0.000
 GapD=    0.562 DampG=2.000 DampE=0.500 DampFc=1.0000 IDamp=-1.
 RMSDP=3.27D-03 MaxDP=1.04D-01              OVMax= 1.27D-01

 Cycle   2  Pass 1  IDiag  1:
 E= -3107.44101731974     Delta-E=       -0.137253780929 Rises=F Damp=F
 DIIS: error= 1.77D-02 at cycle   2 NSaved=   2.
 NSaved= 2 IEnMin= 2 EnMin= -3107.44101731974     IErMin= 2 ErrMin= 1.77D-02
 ErrMax= 1.77D-02  0.00D+00 EMaxC= 1.00D-01 BMatC= 4.97D-02 BMatP= 6.54D-01
 IDIUse=3 WtCom= 8.23D-01 WtEn= 1.77D-01
 Coeff-Com:  0.145D+00 0.855D+00
 Coeff-En:   0.000D+00 0.100D+01
 Coeff:      0.119D+00 0.881D+00
 Gap=     0.333 Goal=   None    Shift=    0.000
 RMSDP=1.23D-03 MaxDP=3.99D-02 DE=-1.37D-01 OVMax= 8.02D-02

 Cycle   3  Pass 1  IDiag  1:
 E= -3107.46277697181     Delta-E=       -0.021759652068 Rises=F Damp=F
 DIIS: error= 8.88D-03 at cycle   3 NSaved=   3.
 NSaved= 3 IEnMin= 3 EnMin= -3107.46277697181     IErMin= 3 ErrMin= 8.88D-03
 ErrMax= 8.88D-03  0.00D+00 EMaxC= 1.00D-01 BMatC= 1.55D-02 BMatP= 4.97D-02
 IDIUse=3 WtCom= 9.11D-01 WtEn= 8.88D-02
 Coeff-Com:  0.657D-02 0.356D+00 0.638D+00
 Coeff-En:   0.000D+00 0.172D+00 0.828D+00
 Coeff:      0.598D-02 0.339D+00 0.655D+00
 Gap=     0.334 Goal=   None    Shift=    0.000
 RMSDP=3.73D-04 MaxDP=1.28D-02 DE=-2.18D-02 OVMax= 3.87D-02

 Cycle   4  Pass 1  IDiag  1:
 E= -3107.47350687510     Delta-E=       -0.010729903295 Rises=F Damp=F
 DIIS: error= 1.44D-03 at cycle   4 NSaved=   4.
 NSaved= 4 IEnMin= 4 EnMin= -3107.47350687510     IErMin= 4 ErrMin= 1.44D-03
 ErrMax= 1.44D-03  0.00D+00 EMaxC= 1.00D-01 BMatC= 1.94D-04 BMatP= 1.55D-02
 IDIUse=3 WtCom= 9.86D-01 WtEn= 1.44D-02
 Coeff-Com: -0.540D-02-0.299D-01 0.454D-01 0.990D+00
 Coeff-En:   0.000D+00 0.000D+00 0.000D+00 0.100D+01
 Coeff:     -0.532D-02-0.295D-01 0.448D-01 0.990D+00
 Gap=     0.332 Goal=   None    Shift=    0.000
 RMSDP=6.57D-05 MaxDP=1.49D-03 DE=-1.07D-02 OVMax= 3.92D-03

 Cycle   5  Pass 1  IDiag  1:
 E= -3107.47373516262     Delta-E=       -0.000228287516 Rises=F Damp=F
 DIIS: error= 2.47D-04 at cycle   5 NSaved=   5.
 NSaved= 5 IEnMin= 5 EnMin= -3107.47373516262     IErMin= 5 ErrMin= 2.47D-04
 ErrMax= 2.47D-04  0.00D+00 EMaxC= 1.00D-01 BMatC= 1.46D-05 BMatP= 1.94D-04
 IDIUse=3 WtCom= 9.98D-01 WtEn= 2.47D-03
 Coeff-Com:  0.852D-03-0.189D-01-0.406D-01-0.168D+00 0.123D+01
 Coeff-En:   0.000D+00 0.000D+00 0.000D+00 0.000D+00 0.100D+01
 Coeff:      0.850D-03-0.188D-01-0.405D-01-0.168D+00 0.123D+01
 Gap=     0.333 Goal=   None    Shift=    0.000
 RMSDP=3.36D-05 MaxDP=9.03D-04 DE=-2.28D-04 OVMax= 3.21D-03

 Cycle   6  Pass 1  IDiag  1:
 E= -3107.47377624856     Delta-E=       -0.000041085938 Rises=F Damp=F
 DIIS: error= 1.38D-04 at cycle   6 NSaved=   6.
 NSaved= 6 IEnMin= 6 EnMin= -3107.47377624856     IErMin= 6 ErrMin= 1.38D-04
 ErrMax= 1.38D-04  0.00D+00 EMaxC= 1.00D-01 BMatC= 2.05D-06 BMatP= 1.46D-05
 IDIUse=3 WtCom= 9.99D-01 WtEn= 1.38D-03
 Coeff-Com:  0.475D-03 0.458D-02-0.100D-03-0.122D+00-0.759D-01 0.119D+01
 Coeff-En:   0.000D+00 0.000D+00 0.000D+00 0.000D+00 0.000D+00 0.100D+01
 Coeff:      0.474D-03 0.458D-02-0.999D-04-0.122D+00-0.758D-01 0.119D+01
 Gap=     0.333 Goal=   None    Shift=    0.000
 RMSDP=1.47D-05 MaxDP=3.95D-04 DE=-4.11D-05 OVMax= 1.63D-03

 Cycle   7  Pass 1  IDiag  1:
 E= -3107.47378333983     Delta-E=       -0.000007091275 Rises=F Damp=F
 DIIS: error= 5.11D-05 at cycle   7 NSaved=   7.
 NSaved= 7 IEnMin= 7 EnMin= -3107.47378333983     IErMin= 7 ErrMin= 5.11D-05
 ErrMax= 5.11D-05  0.00D+00 EMaxC= 1.00D-01 BMatC= 2.15D-07 BMatP= 2.05D-06
 IDIUse=1 WtCom= 1.00D+00 WtEn= 0.00D+00
 Coeff-Com: -0.238D-03 0.901D-03 0.641D-02 0.545D-01-0.151D+00-0.271D+00
 Coeff-Com:  0.136D+01
 Coeff:     -0.238D-03 0.901D-03 0.641D-02 0.545D-01-0.151D+00-0.271D+00
 Coeff:      0.136D+01
 Gap=     0.333 Goal=   None    Shift=    0.000
 RMSDP=5.80D-06 MaxDP=1.63D-04 DE=-7.09D-06 OVMax= 6.10D-04

 Cycle   8  Pass 1  IDiag  1:
 E= -3107.47378417433     Delta-E=       -0.000000834503 Rises=F Damp=F
 DIIS: error= 9.84D-06 at cycle   8 NSaved=   8.
 NSaved= 8 IEnMin= 8 EnMin= -3107.47378417433     IErMin= 8 ErrMin= 9.84D-06
 ErrMax= 9.84D-06  0.00D+00 EMaxC= 1.00D-01 BMatC= 1.14D-08 BMatP= 2.15D-07
 IDIUse=1 WtCom= 1.00D+00 WtEn= 0.00D+00
 Coeff-Com:  0.147D-04-0.537D-03-0.113D-02-0.381D-02 0.282D-01 0.837D-02
 Coeff-Com: -0.317D+00 0.129D+01
 Coeff:      0.147D-04-0.537D-03-0.113D-02-0.381D-02 0.282D-01 0.837D-02
 Coeff:     -0.317D+00 0.129D+01
 Gap=     0.333 Goal=   None    Shift=    0.000
 RMSDP=1.36D-06 MaxDP=2.86D-05 DE=-8.35D-07 OVMax= 1.51D-04

 Cycle   9  Pass 1  IDiag  1:
 E= -3107.47378422041     Delta-E=       -0.000000046074 Rises=F Damp=F
 DIIS: error= 3.30D-06 at cycle   9 NSaved=   9.
 NSaved= 9 IEnMin= 9 EnMin= -3107.47378422041     IErMin= 9 ErrMin= 3.30D-06
 ErrMax= 3.30D-06  0.00D+00 EMaxC= 1.00D-01 BMatC= 1.53D-09 BMatP= 1.14D-08
 IDIUse=1 WtCom= 1.00D+00 WtEn= 0.00D+00
 Coeff-Com:  0.138D-04-0.253D-04-0.300D-03-0.291D-02 0.633D-02 0.198D-01
 Coeff-Com: -0.520D-01-0.246D+00 0.128D+01
 Coeff:      0.138D-04-0.253D-04-0.300D-03-0.291D-02 0.633D-02 0.198D-01
 Coeff:     -0.520D-01-0.246D+00 0.128D+01
 Gap=     0.333 Goal=   None    Shift=    0.000
 RMSDP=5.26D-07 MaxDP=1.10D-05 DE=-4.61D-08 OVMax= 6.50D-05

 Cycle  10  Pass 1  IDiag  1:
 E= -3107.47378422760     Delta-E=       -0.000000007195 Rises=F Damp=F
 DIIS: error= 1.57D-06 at cycle  10 NSaved=  10.
 NSaved=10 IEnMin=10 EnMin= -3107.47378422760     IErMin=10 ErrMin= 1.57D-06
 ErrMax= 1.57D-06  0.00D+00 EMaxC= 1.00D-01 BMatC= 3.02D-10 BMatP= 1.53D-09
 IDIUse=1 WtCom= 1.00D+00 WtEn= 0.00D+00
 Coeff-Com: -0.407D-05 0.141D-03 0.260D-03 0.562D-03-0.635D-02 0.548D-03
 Coeff-Com:  0.602D-01-0.228D+00-0.137D+00 0.131D+01
 Coeff:     -0.407D-05 0.141D-03 0.260D-03 0.562D-03-0.635D-02 0.548D-03
 Coeff:      0.602D-01-0.228D+00-0.137D+00 0.131D+01
 Gap=     0.333 Goal=   None    Shift=    0.000
 RMSDP=2.97D-07 MaxDP=6.99D-06 DE=-7.19D-09 OVMax= 3.57D-05

 Cycle  11  Pass 1  IDiag  1:
 E= -3107.47378422916     Delta-E=       -0.000000001558 Rises=F Damp=F
 DIIS: error= 4.96D-07 at cycle  11 NSaved=  11.
 NSaved=11 IEnMin=11 EnMin= -3107.47378422916     IErMin=11 ErrMin= 4.96D-07
 ErrMax= 4.96D-07  0.00D+00 EMaxC= 1.00D-01 BMatC= 2.63D-11 BMatP= 3.02D-10
 IDIUse=1 WtCom= 1.00D+00 WtEn= 0.00D+00
 Coeff-Com: -0.151D-05-0.257D-04 0.105D-05 0.596D-03-0.345D-03-0.366D-02
 Coeff-Com:  0.216D-02 0.579D-01-0.134D+00-0.215D+00 0.129D+01
 Coeff:     -0.151D-05-0.257D-04 0.105D-05 0.596D-03-0.345D-03-0.366D-02
 Coeff:      0.216D-02 0.579D-01-0.134D+00-0.215D+00 0.129D+01
 Gap=     0.333 Goal=   None    Shift=    0.000
 RMSDP=9.03D-08 MaxDP=2.21D-06 DE=-1.56D-09 OVMax= 1.03D-05

 Cycle  12  Pass 1  IDiag  1:
 E= -3107.47378422928     Delta-E=       -0.000000000123 Rises=F Damp=F
 DIIS: error= 1.14D-07 at cycle  12 NSaved=  12.
 NSaved=12 IEnMin=12 EnMin= -3107.47378422928     IErMin=12 ErrMin= 1.14D-07
 ErrMax= 1.14D-07  0.00D+00 EMaxC= 1.00D-01 BMatC= 1.72D-12 BMatP= 2.63D-11
 IDIUse=1 WtCom= 1.00D+00 WtEn= 0.00D+00
 Coeff-Com:  0.106D-06-0.103D-04-0.199D-04-0.373D-04 0.499D-03-0.559D-04
 Coeff-Com: -0.536D-02 0.227D-01 0.527D-02-0.134D+00 0.135D+00 0.976D+00
 Coeff:      0.106D-06-0.103D-04-0.199D-04-0.373D-04 0.499D-03-0.559D-04
 Coeff:     -0.536D-02 0.227D-01 0.527D-02-0.134D+00 0.135D+00 0.976D+00
 Gap=     0.333 Goal=   None    Shift=    0.000
 RMSDP=1.57D-08 MaxDP=3.17D-07 DE=-1.23D-10 OVMax= 1.46D-06

 Cycle  13  Pass 1  IDiag  1:
 E= -3107.47378422928     Delta-E=        0.000000000008 Rises=F Damp=F
 DIIS: error= 2.38D-08 at cycle  13 NSaved=  13.
 NSaved=13 IEnMin=12 EnMin= -3107.47378422928     IErMin=13 ErrMin= 2.38D-08
 ErrMax= 2.38D-08  0.00D+00 EMaxC= 1.00D-01 BMatC= 1.12D-13 BMatP= 1.72D-12
 IDIUse=1 WtCom= 1.00D+00 WtEn= 0.00D+00
 Coeff-Com:  0.101D-06 0.206D-05 0.127D-05-0.271D-04-0.243D-04 0.149D-03
 Coeff-Com:  0.632D-03-0.649D-02 0.918D-02 0.286D-01-0.115D+00-0.694D-01
 Coeff-Com:  0.115D+01
 Coeff:      0.101D-06 0.206D-05 0.127D-05-0.271D-04-0.243D-04 0.149D-03
 Coeff:      0.632D-03-0.649D-02 0.918D-02 0.286D-01-0.115D+00-0.694D-01
 Coeff:      0.115D+01
 Gap=     0.333 Goal=   None    Shift=    0.000
 RMSDP=5.04D-09 MaxDP=9.37D-08 DE= 7.73D-12 OVMax= 4.14D-07

 SCF Done:  E(RHF) =  -3107.47378423     A.U. after   13 cycles
            NFock= 13  Conv=0.50D-08     -V/T= 2.0000
 KE= 3.107461732038D+03 PE=-7.837650825820D+03 EE= 1.425271885389D+03
 Leave Link  502 at Fri Nov  5 16:01:46 2021, MaxMem= 16106127360 cpu:              61.3 elap:               3.1
 (Enter /sw/contrib/gaussian/g16/B01/g16/l801.exe)
 ExpMin= 2.53D-02 ExpMax= 1.06D+07 ExpMxC= 1.21D+04 IAcc=3 IRadAn=         5 AccDes= 0.00D+00
 HarFok:  IExCor=  205 AccDes= 0.00D+00 IRadAn=         5 IDoV=-2 UseB2=F ITyADJ=14
 ICtDFT= 12500011 ScaDFX=  1.000000  1.000000  1.000000  1.000000
 Largest valence mixing into a core orbital is  4.48D-04
 Largest core mixing into a valence orbital is  1.59D-04
 Range of M.O.s used for correlation:    16   178
 NBasis=   178 NAE=    31 NBE=    31 NFC=    15 NFV=     0
 NROrb=    163 NOA=    16 NOB=    16 NVA=   147 NVB=   147

 **** Warning!!: The largest alpha MO coefficient is  0.20133735D+02

 Leave Link  801 at Fri Nov  5 16:01:46 2021, MaxMem= 16106127360 cpu:               6.5 elap:               0.3
 (Enter /sw/contrib/gaussian/g16/B01/g16/l906.exe)
 Frozen-core derivative calculation, NFC=  15 NFV=   0.
 FulOut=F Deriv=T AODrv=T NAtomX=     4
   MMem=         123  MDisk=          16 MDiskD=          16
  W3Min=     1147744 MinDsk=     1765480 NBas6D=         208
 NBas2D=       22240    NTT=       21736    LW2=     9911920
    MDV= 16105601343 MDiskM=      387105 NBas2p=       22156
 Fully direct method using O(ONN) memory.
 IMap=   1   2   3   4   5   6   7   8   9  10  11  12  13  14  15  16  17  18  19  20
 IMap=  21  22  23  24  25  26  27  28  29  30  31
 JobTyp=1 Pass  1:  I=  16 to  31 NPSUse= 28 ParTrn=T ParDer=T DoDerP=T.
 Spin components of T(2) and E(2):
     alpha-alpha T2 =       0.3034926741D-01 E2=     -0.9455315464D-01
     alpha-beta  T2 =       0.1609789662D+00 E2=     -0.5161285828D+00
     beta-beta   T2 =       0.3034926741D-01 E2=     -0.9455315464D-01
 The integrals were generated   1 times.
 ANorm=    0.1105295210D+01
 E2 =    -0.7052348921D+00 EUMP2 =    -0.31081790191213D+04
 Leave Link  906 at Fri Nov  5 16:02:03 2021, MaxMem= 16106127360 cpu:             452.9 elap:              16.3
 (Enter /sw/contrib/gaussian/g16/B01/g16/l1002.exe)
 Minotr:  Closed shell wavefunction.
          Computing MP2/KS-MP2 derivatives.
          Using Z-Vector for PSCF gradient.
          Skipping F1 and S1 gradient terms here.
          IDoAtm=1111
          Frozen-core window.
          Direct CPHF calculation.
          Differentiating once with respect to electric field.
                with respect to dipole field.
          Differentiating once with respect to nuclear coordinates.
          Using symmetry in CPHF.
          Requested convergence is 1.0D-10 RMS, and 1.0D-09 maximum.
          NewPWx=F KeepS1=T KeepF1=T KeepIn=T MapXYZ=F SortEE=F KeepMc=T.
 Keep R1 ints in memory in symmetry-blocked form, NReq=191184324.
 FoFCou: FMM=F IPFlag=           0 FMFlag=           0 FMFlg1=           0
         NFxFlg=           0 DoJE=F BraDBF=F KetDBF=F FulRan=T
         wScrn=  0.000000 ICntrl=       600 IOpCl=  0 I1Cent=           0 NGrid=           0
         NMat0=    1 NMatS0=  15931 NMatT0=    0 NMatD0=    1 NMtDS0=    0 NMtDT0=    0
 Petite list used in FoFCou.
          MDV=   16106127360 using IRadAn=       5.
          Solving linear equations separately, MaxMat=       0.
          There are     1 degrees of freedom in the 1st order CPHF.  IDoFFX=0 NUNeed=     1.
 LinEq1:  Iter=  0 NonCon=     1 RMS=2.66D-03 Max=4.53D-02 NDo=     1
 AX will form     1 AO Fock derivatives at one time.
 LinEq1:  Iter=  1 NonCon=     1 RMS=4.24D-04 Max=4.96D-03 NDo=     1
 LinEq1:  Iter=  2 NonCon=     1 RMS=2.04D-04 Max=4.89D-03 NDo=     1
 LinEq1:  Iter=  3 NonCon=     1 RMS=6.64D-05 Max=1.05D-03 NDo=     1
 LinEq1:  Iter=  4 NonCon=     1 RMS=2.93D-05 Max=9.99D-04 NDo=     1
 LinEq1:  Iter=  5 NonCon=     1 RMS=1.01D-05 Max=1.62D-04 NDo=     1
 LinEq1:  Iter=  6 NonCon=     1 RMS=2.08D-06 Max=2.56D-05 NDo=     1
 LinEq1:  Iter=  7 NonCon=     1 RMS=5.05D-07 Max=1.02D-05 NDo=     1
 LinEq1:  Iter=  8 NonCon=     1 RMS=1.55D-07 Max=3.40D-06 NDo=     1
 LinEq1:  Iter=  9 NonCon=     1 RMS=4.38D-08 Max=1.06D-06 NDo=     1
 LinEq1:  Iter= 10 NonCon=     1 RMS=1.17D-08 Max=2.37D-07 NDo=     1
 LinEq1:  Iter= 11 NonCon=     1 RMS=2.59D-09 Max=3.81D-08 NDo=     1
 LinEq1:  Iter= 12 NonCon=     1 RMS=4.57D-10 Max=7.10D-09 NDo=     1
 LinEq1:  Iter= 13 NonCon=     1 RMS=1.22D-10 Max=1.55D-09 NDo=     1
 LinEq1:  Iter= 14 NonCon=     0 RMS=2.73D-11 Max=3.84D-10 NDo=     1
 Linear equations converged to 1.000D-10 1.000D-09 after    14 iterations.
 End of Minotr F.D. properties file   721 does not exist.
 End of Minotr F.D. properties file   722 does not exist.
 End of Minotr F.D. properties file   788 does not exist.
 Leave Link 1002 at Fri Nov  5 16:02:06 2021, MaxMem= 16106127360 cpu:              54.3 elap:               2.9
 (Enter /sw/contrib/gaussian/g16/B01/g16/l601.exe)
 Copying SCF densities to generalized density rwf, IOpCl= 0 IROHF=0.

 **********************************************************************

            Population analysis using the MP2 Density.

 **********************************************************************

 Orbital symmetries:
       Occupied  (A') (A') (A') (A') (A") (A') (A') (A') (A') (A')
                 (A') (A") (A') (A") (A') (A') (A") (A') (A") (A')
                 (A') (A') (A') (A') (A") (A') (A') (A") (A') (A")
                 (A')
       Virtual   (A') (A') (A') (A") (A') (A') (A") (A') (A') (A")
                 (A') (A') (A') (A') (A") (A") (A') (A') (A') (A')
                 (A") (A") (A') (A') (A') (A") (A') (A') (A') (A")
                 (A') (A") (A') (A') (A") (A') (A') (A") (A') (A")
                 (A") (A') (A') (A') (A") (A') (A") (A') (A') (A")
                 (A') (A') (A") (A') (A') (A") (A") (A') (A') (A")
                 (A') (A") (A') (A') (A') (A') (A') (A") (A") (A')
                 (A") (A') (A') (A") (A') (A') (A') (A") (A") (A')
                 (A') (A') (A') (A") (A") (A') (A") (A') (A") (A')
                 (A') (A') (A") (A') (A") (A") (A') (A') (A") (A')
                 (A") (A') (A') (A') (A") (A') (A") (A") (A') (A')
                 (A') (A") (A') (A') (A") (A') (A') (A") (A') (A')
                 (A') (A") (A") (A') (A") (A') (A') (A') (A') (A')
                 (A") (A') (A') (A') (A") (A') (A") (A') (A") (A")
                 (A') (A') (A") (A') (A') (A') (A')
 The electronic state is 1-A'.
 Alpha  occ. eigenvalues -- -489.75413-104.72686 -64.89478 -58.24924 -58.24923
 Alpha  occ. eigenvalues --  -58.24922 -20.45247 -10.44628  -9.56760  -7.91341
 Alpha  occ. eigenvalues --   -7.91083  -7.91073  -7.17545  -7.17489  -7.17488
 Alpha  occ. eigenvalues --   -2.91707  -2.91680  -2.91677  -2.91630  -2.91630
 Alpha  occ. eigenvalues --   -1.22883  -0.89561  -0.73497  -0.54301  -0.43598
 Alpha  occ. eigenvalues --   -0.42737  -0.30654  -0.27819  -0.18601  -0.17652
 Alpha  occ. eigenvalues --   -0.17641
 Alpha virt. eigenvalues --    0.15671   0.18205   0.21503   0.22953   0.24134
 Alpha virt. eigenvalues --    0.24794   0.25132   0.28705   0.30388   0.31794
 Alpha virt. eigenvalues --    0.32282   0.32828   0.36337   0.43552   0.44274
 Alpha virt. eigenvalues --    0.47200   0.48767   0.49639   0.51786   0.54330
 Alpha virt. eigenvalues --    0.55031   0.57535   0.59661   0.60599   0.61241
 Alpha virt. eigenvalues --    0.61248   0.65972   0.71016   0.73601   0.74507
 Alpha virt. eigenvalues --    0.76453   0.78234   0.79314   0.84563   0.88746
 Alpha virt. eigenvalues --    0.89549   0.93056   0.94816   1.00001   1.00055
 Alpha virt. eigenvalues --    1.00773   1.01267   1.02693   1.04780   1.07757
 Alpha virt. eigenvalues --    1.08806   1.10268   1.11197   1.12886   1.15594
 Alpha virt. eigenvalues --    1.15664   1.17797   1.18656   1.22253   1.22913
 Alpha virt. eigenvalues --    1.25970   1.28937   1.32037   1.35133   1.36803
 Alpha virt. eigenvalues --    1.39642   1.40403   1.48448   1.51321   1.55709
 Alpha virt. eigenvalues --    1.59631   1.62034   1.65331   1.67650   1.72281
 Alpha virt. eigenvalues --    1.74242   1.78033   1.80908   1.82853   1.92010
 Alpha virt. eigenvalues --    1.97449   2.17537   2.38392   2.41676   2.43419
 Alpha virt. eigenvalues --    2.44047   2.48862   2.51049   2.52023   2.53485
 Alpha virt. eigenvalues --    2.53836   2.55479   2.56052   2.56309   2.56988
 Alpha virt. eigenvalues --    2.58336   2.61593   2.64305   2.66387   2.66491
 Alpha virt. eigenvalues --    2.68224   2.68289   2.71788   2.72751   2.73478
 Alpha virt. eigenvalues --    2.75575   2.76418   2.79448   2.84847   2.85754
 Alpha virt. eigenvalues --    2.88614   3.01522   3.09701   3.13883   3.17427
 Alpha virt. eigenvalues --    3.22199   3.22294   3.25742   3.32221   3.32224
 Alpha virt. eigenvalues --    3.39362   3.52932   3.54499   3.57903   3.98249
 Alpha virt. eigenvalues --    4.24741   4.35219   4.49893   4.59512   4.62550
 Alpha virt. eigenvalues --    4.80626   5.02036   5.19014   5.37312   5.51109
 Alpha virt. eigenvalues --    5.52686   5.75358   6.41227   6.58346   6.87550
 Alpha virt. eigenvalues --    6.91553   6.92111   7.02165   7.34338   7.38778
 Alpha virt. eigenvalues --    7.43577   7.47431   7.56886   7.82759   7.86029
 Alpha virt. eigenvalues --    8.45348  15.62633
          Condensed to atoms (all electrons):
               1          2          3          4
     1  O    8.671098  -0.106394  -0.122012   0.023053
     2  Cl  -0.106394  17.072936   0.002237  -0.007659
     3  Br  -0.122012   0.002237  35.944196   0.013922
     4  H    0.023053  -0.007659   0.013922   0.705477
 Mulliken charges:
               1
     1  O   -0.465745
     2  Cl   0.038880
     3  Br  -0.838342
     4  H    0.265207
 Sum of Mulliken charges =  -1.00000
 Mulliken charges with hydrogens summed into heavy atoms:
               1
     1  O   -0.200539
     2  Cl   0.038880
     3  Br  -0.838342
 Electronic spatial extent (au):  <R**2>=            748.5615
 Charge=             -1.0000 electrons
 Dipole moment (field-independent basis, Debye):
    X=              2.5943    Y=              0.8788    Z=              0.0000  Tot=              2.7391
 Quadrupole moment (field-independent basis, Debye-Ang):
   XX=            -50.7233   YY=            -49.1479   ZZ=            -43.0739
   XY=             -6.7466   XZ=              0.0000   YZ=              0.0000
 Traceless Quadrupole moment (field-independent basis, Debye-Ang):
   XX=             -3.0749   YY=             -1.4995   ZZ=              4.5744
   XY=             -6.7466   XZ=              0.0000   YZ=              0.0000
 Octapole moment (field-independent basis, Debye-Ang**2):
  XXX=            -10.8713  YYY=            -14.5437  ZZZ=              0.0000  XYY=             -7.2511
  XXY=             -4.0879  XXZ=              0.0000  XZZ=             -5.7890  YZZ=             -3.2120
  YYZ=              0.0000  XYZ=              0.0000
 Hexadecapole moment (field-independent basis, Debye-Ang**3):
 XXXX=           -620.0606 YYYY=           -298.0202 ZZZZ=            -61.5816 XXXY=           -165.2705
 XXXZ=              0.0000 YYYX=           -156.4484 YYYZ=              0.0000 ZZZX=              0.0000
 ZZZY=              0.0000 XXYY=           -159.4991 XXZZ=           -116.6647 YYZZ=            -58.6693
 XXYZ=              0.0000 YYXZ=              0.0000 ZZXY=            -50.5307
 N-N= 1.974434241641D+02 E-N=-7.836192370596D+03  KE= 3.107475176607D+03
 Symmetry A'   KE= 2.681450633507D+03
 Symmetry A"   KE= 4.260245431006D+02
 No NMR shielding tensors so no spin-rotation constants.
 Leave Link  601 at Fri Nov  5 16:02:06 2021, MaxMem= 16106127360 cpu:               4.9 elap:               0.2
 (Enter /sw/contrib/gaussian/g16/B01/g16/l701.exe)
 ... and contract with generalized density number  2.
 Compute integral first derivatives.
 Leave Link  701 at Fri Nov  5 16:02:07 2021, MaxMem= 16106127360 cpu:              12.8 elap:               0.6
 (Enter /sw/contrib/gaussian/g16/B01/g16/l702.exe)
 L702 exits ... SP integral derivatives will be done elsewhere.
 Leave Link  702 at Fri Nov  5 16:02:07 2021, MaxMem= 16106127360 cpu:               0.6 elap:               0.0
 (Enter /sw/contrib/gaussian/g16/B01/g16/l703.exe)
 Integral derivatives from FoFJK, PRISM(SPDF).
 Compute integral first derivatives, UseDBF=F ICtDFT=           0.
 Calling FoFJK, ICntrl=  10002127 FMM=F ISym2X=1 I1Cent= 0 IOpClX= 0 NMat=1 NMatS=1 NMatT=0.
 FoFJK:  IHMeth= 1 ICntrl=10002127 DoSepK=F KAlg= 0 I1Cent=           0 FoldK=F
 IRaf=         0 NMat=       1 IRICut=       1 DoRegI=T DoRafI=F ISym2E= 1 IDoP0=0 IntGTp=1.
 FoFCou: FMM=F IPFlag=           0 FMFlag=      100000 FMFlg1=         800
         NFxFlg=           0 DoJE=F BraDBF=F KetDBF=F FulRan=T
         wScrn=  0.000000 ICntrl=  10002127 IOpCl=  0 I1Cent=           0 NGrid=           0
         NMat0=    1 NMatS0=      1 NMatT0=    0 NMatD0=    1 NMtDS0=    0 NMtDT0=    0
 Petite list used in FoFCou.
 Leave Link  703 at Fri Nov  5 16:02:09 2021, MaxMem= 16106127360 cpu:              71.5 elap:               2.6
 (Enter /sw/contrib/gaussian/g16/B01/g16/l716.exe)
 Dipole        = 1.02066886D+00 3.45761836D-01 0.00000000D+00
 ***** Axes restored to original set *****
 -------------------------------------------------------------------
 Center     Atomic                   Forces (Hartrees/Bohr)
 Number     Number              X              Y              Z
 -------------------------------------------------------------------
      1        8           0.017124333    0.047702730   -0.000000000
      2       17          -0.006475133    0.001040614   -0.000000000
      3       35          -0.003989465   -0.013476139   -0.000000000
      4        1          -0.006659734   -0.035267205   -0.000000000
 -------------------------------------------------------------------
 Cartesian Forces:  Max     0.047702730 RMS     0.018478486
 -----------------------------------------------------------------------------------------------
                       Internal Coordinate Forces (Hartree/Bohr or radian)
  Cent   Atom   N1       Length/X         N2         Alpha/Y        N3         Beta/Z          J
 -----------------------------------------------------------------------------------------------
      1  O 
         X        1   0.000000(     1)
      2  Cl       1  -0.006475(     2)      2  -0.000000(     5)
      3  Br       1   0.014020(     3)      2   0.000000(     6)      3   0.005390(     8)     0
      4  H        1   0.035873(     4)      2   0.000000(     7)      3  -0.002053(     9)     0
 -----------------------------------------------------------------------------------------------
 Internal  Forces:  Max     0.035872970 RMS     0.013159797
 Force constants in Cartesian coordinates: 
                1             2             3             4             5 
      1  0.462518D+00
      2  0.621140D-01  0.598430D+00
      3  0.000000D+00  0.000000D+00  0.333069D-01
      4 -0.362536D+00  0.000000D+00  0.000000D+00  0.362536D+00
      5  0.404796D-01 -0.488302D-01  0.000000D+00  0.000000D+00  0.398677D-01
      6  0.000000D+00  0.000000D+00  0.000000D+00  0.000000D+00  0.000000D+00
      7  0.957968D-03  0.772957D-02  0.000000D+00  0.000000D+00 -0.138666D-01
      8 -0.613704D-02 -0.284717D-01  0.000000D+00  0.000000D+00  0.307017D-02
      9  0.000000D+00  0.000000D+00  0.166637D-01  0.000000D+00  0.000000D+00
     10 -0.100940D+00 -0.698435D-01  0.000000D+00  0.000000D+00 -0.266129D-01
     11 -0.964565D-01 -0.521128D+00  0.000000D+00  0.000000D+00  0.589230D-02
     12  0.000000D+00  0.000000D+00 -0.499707D-01  0.000000D+00  0.000000D+00
                6             7             8             9            10 
      6  0.100000D+01
      7  0.000000D+00  0.142225D-01
      8  0.000000D+00  0.277597D-02  0.261457D-01
      9  0.000000D+00  0.000000D+00  0.000000D+00  0.833701D-02
     10  0.000000D+00 -0.151805D-01  0.336107D-02  0.000000D+00  0.116121D+00
     11  0.000000D+00  0.336107D-02 -0.744164D-03  0.000000D+00  0.930954D-01
     12  0.000000D+00  0.000000D+00  0.000000D+00 -0.250007D-01  0.000000D+00
               11            12 
     11  0.515980D+00
     12  0.000000D+00  0.749714D-01
 Force constants in internal coordinates: 
                1             2             3             4             5 
      1  0.000000D+00
      2  0.000000D+00  0.362536D+00
      3  0.000000D+00  0.000000D+00  0.267604D-01
      4  0.000000D+00  0.000000D+00  0.000000D+00  0.536592D+00
      5  0.000000D+00  0.000000D+00  0.000000D+00  0.000000D+00  0.102840D+02
      6  0.000000D+00  0.000000D+00  0.000000D+00  0.000000D+00  0.000000D+00
      7  0.000000D+00  0.000000D+00  0.000000D+00  0.000000D+00  0.000000D+00
      8  0.000000D+00  0.000000D+00  0.000000D+00  0.000000D+00  0.000000D+00
      9  0.000000D+00  0.000000D+00  0.000000D+00  0.000000D+00  0.000000D+00
                6             7             8             9 
      6  0.251191D+00
      7 -0.251191D+00  0.251191D+00
      8  0.000000D+00  0.000000D+00  0.410000D+00
      9  0.000000D+00  0.000000D+00 -0.160000D+00  0.320000D+00
 Leave Link  716 at Fri Nov  5 16:02:10 2021, MaxMem= 16106127360 cpu:              10.0 elap:               0.4
 (Enter /sw/contrib/gaussian/g16/B01/g16/l103.exe)

 GradGradGradGradGradGradGradGradGradGradGradGradGradGradGradGradGradGrad
 Berny optimization.
 Search for a local minimum.
 Step number   1 out of a maximum of   20
 All quantities printed in internal units (Hartrees-Bohrs-Radians)
 Second derivative matrix not updated -- first step.
 The second derivative matrix:
                          r1        r2        r3        a1        OOP
           r1           0.36254
           r2           0.00000   0.02676
           r3           0.00000   0.00000   0.53659
           a1          -0.00000   0.00000   0.00000   0.41000
           OOP          0.00000   0.00000   0.00000   0.00000   0.25119
 ITU=  0
     Eigenvalues ---    0.026761000.000001000.000001000.000001000.00000
 RFO step:  Lambda=-5.99989079D-03 EMin= 2.67603664D-02
 Linear search not attempted -- first point.
 Maximum step size (   0.300) exceeded in Quadratic search.
    -- Step size scaled by   0.701
 Variable       Old X    -DE/DX   Delta X   Delta X   Delta X     New X
                                 (Linear)    (Quad)   (Total)
    r1        3.20687  -0.00648   0.00000   0.00000   0.00000   3.20687
    r2        5.48904   0.01402   0.00000   0.30000   0.30000   5.78904
    r3        1.83043   0.03587   0.00000   0.00000   0.00000   1.83043
    a1        1.78869   0.00334   0.00000   0.00000   0.00000   1.78869
   OOP        1.57080   0.00000   0.00000   0.00000   0.00000   1.57080
         Item               Value     Threshold  Converged?
 Maximum Force            0.014020     0.000450     NO 
 RMS     Force            0.014020     0.000300     NO 
 Maximum Displacement     0.300000     0.001800     NO 
 RMS     Displacement     0.134164     0.001200     NO 
 Predicted change in Energy=-3.001757D-03
 Lowest energy point so far.  Saving SCF results.
 GradGradGradGradGradGradGradGradGradGradGradGradGradGradGradGradGradGrad

 Leave Link  103 at Fri Nov  5 16:02:10 2021, MaxMem= 16106127360 cpu:               2.4 elap:               0.1
 (Enter /sw/contrib/gaussian/g16/B01/g16/l202.exe)
 ---------------------------------------------------------------------------------------------------
                            Z-MATRIX (ANGSTROMS AND DEGREES)
   CD    Cent   Atom    N1       Length/X        N2       Alpha/Y        N3        Beta/Z          J
 ---------------------------------------------------------------------------------------------------
      1      1  O 
      2         X        1  10.000000(     1)
      3      2  Cl       1   1.697002(     2)      2   90.000(     5)
      4      3  Br       1   3.063429(     3)      2   90.000(     6)      3  102.484(     8)      0
      5      4  H        1   0.968623(     4)      2   90.000(     7)      3  102.484(     9)      0
 ---------------------------------------------------------------------------------------------------
                         Z-Matrix orientation:                         
 ---------------------------------------------------------------------
 Center     Atomic      Atomic             Coordinates (Angstroms)
 Number     Number       Type             X           Y           Z
 ---------------------------------------------------------------------
      1          8           0        0.000000    0.000000    0.000000
      2         -1           0        0.000000    0.000000   10.000000
      3         17           0        1.697002    0.000000    0.000000
      4         35           0       -0.662228   -2.990995    0.000000
      5          1           0       -0.209389   -0.945721    0.000000
 ---------------------------------------------------------------------
                    Distance matrix (angstroms):
                    1          2          3          4          5
     1  O    0.000000
     2  X   10.000000   0.000000
     3  Cl   1.697002  10.142969   0.000000
     4  Br   3.063429  10.458709   3.809464   0.000000
     5  H    0.968623  10.046802   2.128077   2.094806   0.000000
 Stoichiometry    BrClHO(1-)
 Framework group  CS[SG(BrClHO)]
 Deg. of freedom     5
 Full point group                 CS      NOp   2
 RotChk:  IX=0 Diff= 9.24D-02
 Largest Abelian subgroup         CS      NOp   2
 Largest concise Abelian subgroup C1      NOp   1
                         Standard orientation:                         
 ---------------------------------------------------------------------
 Center     Atomic      Atomic             Coordinates (Angstroms)
 Number     Number       Type             X           Y           Z
 ---------------------------------------------------------------------
      1          8           0        0.531915    1.650360    0.000000
      2         17           0        2.118062    1.047075    0.000000
      3         35           0       -1.150354   -0.909829    0.000000
      4          1           0       -0.000000    0.840856    0.000000
 ---------------------------------------------------------------------
 Rotational constants (GHZ):          21.9983465           1.2964759           1.2243204
 Leave Link  202 at Fri Nov  5 16:02:10 2021, MaxMem= 16106127360 cpu:               0.4 elap:               0.0
 (Enter /sw/contrib/gaussian/g16/B01/g16/l301.exe)
 Standard basis: Aug-CC-pVTZ (5D, 7F)
 Ernie: Thresh=  0.10000D-02 Tol=  0.10000D-05 Strict=F.
 Ernie:  48 primitive shells out of 228 were deleted.
 There are   142 symmetry adapted cartesian basis functions of A'  symmetry.
 There are    66 symmetry adapted cartesian basis functions of A"  symmetry.
 There are   118 symmetry adapted basis functions of A'  symmetry.
 There are    60 symmetry adapted basis functions of A"  symmetry.
   178 basis functions,   430 primitive gaussians,   208 cartesian basis functions
    31 alpha electrons       31 beta electrons
       nuclear repulsion energy       190.8677148760 Hartrees.
 IExCor=    0 DFT=F Ex=HF Corr=None ExCW=0 ScaHFX=  1.000000
 ScaDFX=  1.000000  1.000000  1.000000  1.000000 ScalE2=  1.000000  1.000000
 IRadAn=      5 IRanWt=     -1 IRanGd=            0 ICorTp=0 IEmpDi=  4
 NAtoms=    4 NActive=    4 NUniq=    4 SFac= 1.00D+00 NAtFMM=   60 NAOKFM=F Big=F
 Integral buffers will be    131072 words long.
 Raffenetti 1 integral format.
 Two-electron integral symmetry is turned on.
 Leave Link  301 at Fri Nov  5 16:02:10 2021, MaxMem= 16106127360 cpu:               1.7 elap:               0.1
 (Enter /sw/contrib/gaussian/g16/B01/g16/l302.exe)
 NPDir=0 NMtPBC=     1 NCelOv=     1 NCel=       1 NClECP=     1 NCelD=      1
         NCelK=      1 NCelE2=     1 NClLst=     1 CellRange=     0.0.
 One-electron integrals computed using PRISM.
 One-electron integral symmetry used in STVInt
 NBasis=   178 RedAO= T EigKep=  2.23D-04  NBF=   118    60
 NBsUse=   178 1.00D-06 EigRej= -1.00D+00 NBFU=   118    60
 Leave Link  302 at Fri Nov  5 16:02:10 2021, MaxMem= 16106127360 cpu:               7.3 elap:               0.3
 (Enter /sw/contrib/gaussian/g16/B01/g16/l303.exe)
 DipDrv:  MaxL=1.
 Leave Link  303 at Fri Nov  5 16:02:10 2021, MaxMem= 16106127360 cpu:               3.5 elap:               0.2
 (Enter /sw/contrib/gaussian/g16/B01/g16/l401.exe)
 Initial guess from the checkpoint file:  "/gscratch/ilahie/mccoygrp/coire_hocl/oop_s_rOH_f/brhocl/brhocl_rOBr_opt.chk"
 B after Tr=     0.000000   -0.000000    0.000000
         Rot=    0.999220   -0.000000   -0.000000   -0.039500 Ang=  -4.53 deg.
 Guess basis will be translated and rotated to current coordinates.
 JPrj=2 DoOrth=T DoCkMO=T.
 Initial guess orbital symmetries:
       Occupied  (A') (A') (A') (A') (A") (A') (A') (A') (A') (A')
                 (A') (A") (A') (A") (A') (A') (A") (A') (A") (A')
                 (A') (A') (A') (A') (A") (A') (A') (A") (A') (A")
                 (A')
       Virtual   (A') (A') (A') (A") (A') (A') (A") (A') (A') (A")
                 (A') (A') (A') (A') (A") (A") (A') (A') (A') (A')
                 (A") (A") (A') (A') (A') (A") (A') (A') (A') (A")
                 (A') (A") (A') (A') (A") (A') (A') (A") (A') (A")
                 (A") (A') (A') (A') (A") (A') (A") (A') (A') (A")
                 (A') (A') (A") (A') (A') (A") (A") (A') (A') (A")
                 (A') (A") (A') (A') (A') (A') (A') (A") (A") (A')
                 (A") (A') (A') (A") (A') (A') (A') (A") (A") (A')
                 (A') (A') (A') (A") (A") (A') (A") (A') (A") (A')
                 (A') (A') (A") (A') (A") (A") (A') (A') (A") (A')
                 (A") (A') (A') (A') (A") (A') (A") (A") (A') (A')
                 (A') (A") (A') (A') (A") (A') (A') (A") (A') (A')
                 (A') (A") (A") (A') (A") (A') (A') (A') (A') (A')
                 (A") (A') (A') (A') (A") (A') (A") (A') (A") (A")
                 (A') (A') (A") (A') (A') (A') (A')
 The electronic state of the initial guess is 1-A'.
 Generating alternative initial guess.
 ExpMin= 2.53D-02 ExpMax= 1.06D+07 ExpMxC= 1.21D+04 IAcc=3 IRadAn=         5 AccDes= 0.00D+00
 Harris functional with IExCor=  205 and IRadAn=       5 diagonalized for initial guess.
 HarFok:  IExCor=  205 AccDes= 0.00D+00 IRadAn=         5 IDoV= 1 UseB2=F ITyADJ=14
 ICtDFT=  3500011 ScaDFX=  1.000000  1.000000  1.000000  1.000000
 FoFCou: FMM=F IPFlag=           0 FMFlag=      100000 FMFlg1=           0
         NFxFlg=           0 DoJE=T BraDBF=F KetDBF=T FulRan=T
         wScrn=  0.000000 ICntrl=       500 IOpCl=  0 I1Cent=   200000004 NGrid=           0
         NMat0=    1 NMatS0=      1 NMatT0=    0 NMatD0=    1 NMtDS0=    0 NMtDT0=    0
 Petite list used in FoFCou.
 Harris En= -3106.39174668000    
 Leave Link  401 at Fri Nov  5 16:02:11 2021, MaxMem= 16106127360 cpu:              13.2 elap:               0.5
 (Enter /sw/contrib/gaussian/g16/B01/g16/l502.exe)
 Keep R1 ints in memory in symmetry-blocked form, NReq=191183261.
 FoFCou: FMM=F IPFlag=           0 FMFlag=           0 FMFlg1=           0
         NFxFlg=           0 DoJE=F BraDBF=F KetDBF=F FulRan=T
         wScrn=  0.000000 ICntrl=       600 IOpCl=  0 I1Cent=           0 NGrid=           0
         NMat0=    1 NMatS0=  15931 NMatT0=    0 NMatD0=    1 NMtDS0=    0 NMtDT0=    0
 Petite list used in FoFCou.
 Closed shell SCF:
 Using DIIS extrapolation, IDIIS=  1040.
 NGot= 16106127360 LenX= 16041757360 LenY= 16041713655
 Requested convergence on RMS density matrix=1.00D-08 within 128 cycles.
 Requested convergence on MAX density matrix=1.00D-06.
 Requested convergence on             energy=1.00D-06.
 No special actions if energy rises.

 Cycle   1  Pass 1  IDiag  1:
 E= -3107.47799310773    
 DIIS: error= 1.96D-03 at cycle   1 NSaved=   1.
 NSaved= 1 IEnMin= 1 EnMin= -3107.47799310773     IErMin= 1 ErrMin= 1.96D-03
 ErrMax= 1.96D-03  0.00D+00 EMaxC= 1.00D-01 BMatC= 8.03D-04 BMatP= 8.03D-04
 IDIUse=3 WtCom= 9.80D-01 WtEn= 1.96D-02
 Coeff-Com:  0.100D+01
 Coeff-En:   0.100D+01
 Coeff:      0.100D+01
 Gap=     0.334 Goal=   None    Shift=    0.000
 GapD=    0.334 DampG=1.000 DampE=1.000 DampFc=1.0000 IDamp=-1.
 RMSDP=3.09D-04 MaxDP=1.21D-02              OVMax= 1.23D-02

 Cycle   2  Pass 1  IDiag  1:
 E= -3107.47890772251     Delta-E=       -0.000914614780 Rises=F Damp=F
 DIIS: error= 5.91D-04 at cycle   2 NSaved=   2.
 NSaved= 2 IEnMin= 2 EnMin= -3107.47890772251     IErMin= 2 ErrMin= 5.91D-04
 ErrMax= 5.91D-04  0.00D+00 EMaxC= 1.00D-01 BMatC= 5.81D-05 BMatP= 8.03D-04
 IDIUse=3 WtCom= 9.94D-01 WtEn= 5.91D-03
 Coeff-Com: -0.257D-01 0.103D+01
 Coeff-En:   0.000D+00 0.100D+01
 Coeff:     -0.255D-01 0.103D+01
 Gap=     0.330 Goal=   None    Shift=    0.000
 RMSDP=5.31D-05 MaxDP=2.28D-03 DE=-9.15D-04 OVMax= 3.86D-03

 Cycle   3  Pass 1  IDiag  1:
 E= -3107.47897609237     Delta-E=       -0.000068369859 Rises=F Damp=F
 DIIS: error= 3.52D-04 at cycle   3 NSaved=   3.
 NSaved= 3 IEnMin= 3 EnMin= -3107.47897609237     IErMin= 3 ErrMin= 3.52D-04
 ErrMax= 3.52D-04  0.00D+00 EMaxC= 1.00D-01 BMatC= 1.90D-05 BMatP= 5.81D-05
 IDIUse=3 WtCom= 9.96D-01 WtEn= 3.52D-03
 Coeff-Com: -0.707D-01 0.353D+00 0.717D+00
 Coeff-En:   0.000D+00 0.000D+00 0.100D+01
 Coeff:     -0.704D-01 0.352D+00 0.718D+00
 Gap=     0.329 Goal=   None    Shift=    0.000
 RMSDP=1.74D-05 MaxDP=4.50D-04 DE=-6.84D-05 OVMax= 1.42D-03

 Cycle   4  Pass 1  IDiag  1:
 E= -3107.47899434201     Delta-E=       -0.000018249637 Rises=F Damp=F
 DIIS: error= 1.02D-04 at cycle   4 NSaved=   4.
 NSaved= 4 IEnMin= 4 EnMin= -3107.47899434201     IErMin= 4 ErrMin= 1.02D-04
 ErrMax= 1.02D-04  0.00D+00 EMaxC= 1.00D-01 BMatC= 1.18D-06 BMatP= 1.90D-05
 IDIUse=3 WtCom= 9.99D-01 WtEn= 1.02D-03
 Coeff-Com:  0.488D-02-0.113D+00 0.685D-04 0.111D+01
 Coeff-En:   0.000D+00 0.000D+00 0.000D+00 0.100D+01
 Coeff:      0.488D-02-0.113D+00 0.684D-04 0.111D+01
 Gap=     0.329 Goal=   None    Shift=    0.000
 RMSDP=1.06D-05 MaxDP=2.76D-04 DE=-1.82D-05 OVMax= 7.93D-04

 Cycle   5  Pass 1  IDiag  1:
 E= -3107.47899718890     Delta-E=       -0.000002846890 Rises=F Damp=F
 DIIS: error= 3.00D-05 at cycle   5 NSaved=   5.
 NSaved= 5 IEnMin= 5 EnMin= -3107.47899718890     IErMin= 5 ErrMin= 3.00D-05
 ErrMax= 3.00D-05  0.00D+00 EMaxC= 1.00D-01 BMatC= 1.28D-07 BMatP= 1.18D-06
 IDIUse=1 WtCom= 1.00D+00 WtEn= 0.00D+00
 Coeff-Com:  0.727D-02-0.403D-01-0.730D-01-0.666D-02 0.111D+01
 Coeff:      0.727D-02-0.403D-01-0.730D-01-0.666D-02 0.111D+01
 Gap=     0.329 Goal=   None    Shift=    0.000
 RMSDP=4.04D-06 MaxDP=1.16D-04 DE=-2.85D-06 OVMax= 3.67D-04

 Cycle   6  Pass 1  IDiag  1:
 E= -3107.47899759370     Delta-E=       -0.000000404803 Rises=F Damp=F
 DIIS: error= 6.77D-06 at cycle   6 NSaved=   6.
 NSaved= 6 IEnMin= 6 EnMin= -3107.47899759370     IErMin= 6 ErrMin= 6.77D-06
 ErrMax= 6.77D-06  0.00D+00 EMaxC= 1.00D-01 BMatC= 1.43D-08 BMatP= 1.28D-07
 IDIUse=1 WtCom= 1.00D+00 WtEn= 0.00D+00
 Coeff-Com: -0.185D-03 0.118D-01 0.355D-03-0.141D+00 0.489D-01 0.108D+01
 Coeff:     -0.185D-03 0.118D-01 0.355D-03-0.141D+00 0.489D-01 0.108D+01
 Gap=     0.329 Goal=   None    Shift=    0.000
 RMSDP=1.34D-06 MaxDP=3.09D-05 DE=-4.05D-07 OVMax= 1.10D-04

 Cycle   7  Pass 1  IDiag  1:
 E= -3107.47899763424     Delta-E=       -0.000000040545 Rises=F Damp=F
 DIIS: error= 2.24D-06 at cycle   7 NSaved=   7.
 NSaved= 7 IEnMin= 7 EnMin= -3107.47899763424     IErMin= 7 ErrMin= 2.24D-06
 ErrMax= 2.24D-06  0.00D+00 EMaxC= 1.00D-01 BMatC= 8.17D-10 BMatP= 1.43D-08
 IDIUse=1 WtCom= 1.00D+00 WtEn= 0.00D+00
 Coeff-Com: -0.643D-03 0.416D-02 0.634D-02-0.100D-01-0.732D-01-0.243D-04
 Coeff-Com:  0.107D+01
 Coeff:     -0.643D-03 0.416D-02 0.634D-02-0.100D-01-0.732D-01-0.243D-04
 Coeff:      0.107D+01
 Gap=     0.329 Goal=   None    Shift=    0.000
 RMSDP=5.08D-07 MaxDP=1.80D-05 DE=-4.05D-08 OVMax= 2.64D-05

 Cycle   8  Pass 1  IDiag  1:
 E= -3107.47899763680     Delta-E=       -0.000000002557 Rises=F Damp=F
 DIIS: error= 7.15D-07 at cycle   8 NSaved=   8.
 NSaved= 8 IEnMin= 8 EnMin= -3107.47899763680     IErMin= 8 ErrMin= 7.15D-07
 ErrMax= 7.15D-07  0.00D+00 EMaxC= 1.00D-01 BMatC= 7.18D-11 BMatP= 8.17D-10
 IDIUse=1 WtCom= 1.00D+00 WtEn= 0.00D+00
 Coeff-Com:  0.126D-03-0.158D-02-0.811D-03 0.109D-01 0.850D-02-0.899D-01
 Coeff-Com: -0.854D-01 0.116D+01
 Coeff:      0.126D-03-0.158D-02-0.811D-03 0.109D-01 0.850D-02-0.899D-01
 Coeff:     -0.854D-01 0.116D+01
 Gap=     0.329 Goal=   None    Shift=    0.000
 RMSDP=1.54D-07 MaxDP=7.20D-06 DE=-2.56D-09 OVMax= 8.64D-06

 Cycle   9  Pass 1  IDiag  1:
 E= -3107.47899763703     Delta-E=       -0.000000000227 Rises=F Damp=F
 DIIS: error= 2.34D-07 at cycle   9 NSaved=   9.
 NSaved= 9 IEnMin= 9 EnMin= -3107.47899763703     IErMin= 9 ErrMin= 2.34D-07
 ErrMax= 2.34D-07  0.00D+00 EMaxC= 1.00D-01 BMatC= 9.94D-12 BMatP= 7.18D-11
 IDIUse=1 WtCom= 1.00D+00 WtEn= 0.00D+00
 Coeff-Com:  0.530D-04-0.327D-03-0.298D-03 0.293D-03 0.624D-02 0.464D-02
 Coeff-Com: -0.884D-01-0.858D-01 0.116D+01
 Coeff:      0.530D-04-0.327D-03-0.298D-03 0.293D-03 0.624D-02 0.464D-02
 Coeff:     -0.884D-01-0.858D-01 0.116D+01
 Gap=     0.329 Goal=   None    Shift=    0.000
 RMSDP=4.03D-08 MaxDP=9.12D-07 DE=-2.27D-10 OVMax= 3.28D-06

 Cycle  10  Pass 1  IDiag  1:
 E= -3107.47899763707     Delta-E=       -0.000000000040 Rises=F Damp=F
 DIIS: error= 1.08D-07 at cycle  10 NSaved=  10.
 NSaved=10 IEnMin=10 EnMin= -3107.47899763707     IErMin=10 ErrMin= 1.08D-07
 ErrMax= 1.08D-07  0.00D+00 EMaxC= 1.00D-01 BMatC= 1.52D-12 BMatP= 9.94D-12
 IDIUse=1 WtCom= 1.00D+00 WtEn= 0.00D+00
 Coeff-Com: -0.266D-04 0.278D-03 0.230D-03-0.167D-02-0.261D-02 0.112D-01
 Coeff-Com:  0.401D-01-0.164D+00-0.270D+00 0.139D+01
 Coeff:     -0.266D-04 0.278D-03 0.230D-03-0.167D-02-0.261D-02 0.112D-01
 Coeff:      0.401D-01-0.164D+00-0.270D+00 0.139D+01
 Gap=     0.329 Goal=   None    Shift=    0.000
 RMSDP=2.67D-08 MaxDP=8.40D-07 DE=-3.96D-11 OVMax= 1.98D-06

 Cycle  11  Pass 1  IDiag  1:
 E= -3107.47899763707     Delta-E=       -0.000000000000 Rises=F Damp=F
 DIIS: error= 3.75D-08 at cycle  11 NSaved=  11.
 NSaved=11 IEnMin=11 EnMin= -3107.47899763707     IErMin=11 ErrMin= 3.75D-08
 ErrMax= 3.75D-08  0.00D+00 EMaxC= 1.00D-01 BMatC= 1.67D-13 BMatP= 1.52D-12
 IDIUse=1 WtCom= 1.00D+00 WtEn= 0.00D+00
 Coeff-Com: -0.124D-05-0.173D-04 0.462D-05 0.346D-03-0.424D-03-0.349D-02
 Coeff-Com:  0.690D-02 0.376D-01-0.118D+00-0.200D+00 0.128D+01
 Coeff:     -0.124D-05-0.173D-04 0.462D-05 0.346D-03-0.424D-03-0.349D-02
 Coeff:      0.690D-02 0.376D-01-0.118D+00-0.200D+00 0.128D+01
 Gap=     0.329 Goal=   None    Shift=    0.000
 RMSDP=7.18D-09 MaxDP=2.14D-07 DE=-4.55D-13 OVMax= 7.31D-07

 SCF Done:  E(RHF) =  -3107.47899764     A.U. after   11 cycles
            NFock= 11  Conv=0.72D-08     -V/T= 2.0000
 KE= 3.107387844495D+03 PE=-7.824315232415D+03 EE= 1.418580675407D+03
 Leave Link  502 at Fri Nov  5 16:02:13 2021, MaxMem= 16106127360 cpu:              47.9 elap:               2.4
 (Enter /sw/contrib/gaussian/g16/B01/g16/l801.exe)
 ExpMin= 2.53D-02 ExpMax= 1.06D+07 ExpMxC= 1.21D+04 IAcc=3 IRadAn=         5 AccDes= 0.00D+00
 HarFok:  IExCor=  205 AccDes= 0.00D+00 IRadAn=         5 IDoV=-2 UseB2=F ITyADJ=14
 ICtDFT= 12500011 ScaDFX=  1.000000  1.000000  1.000000  1.000000
 Largest valence mixing into a core orbital is  4.48D-04
 Largest core mixing into a valence orbital is  1.60D-04
 Range of M.O.s used for correlation:    16   178
 NBasis=   178 NAE=    31 NBE=    31 NFC=    15 NFV=     0
 NROrb=    163 NOA=    16 NOB=    16 NVA=   147 NVB=   147

 **** Warning!!: The largest alpha MO coefficient is  0.20372250D+02

 Leave Link  801 at Fri Nov  5 16:02:14 2021, MaxMem= 16106127360 cpu:               3.5 elap:               0.2
 (Enter /sw/contrib/gaussian/g16/B01/g16/l906.exe)
 Frozen-core derivative calculation, NFC=  15 NFV=   0.
 FulOut=F Deriv=T AODrv=T NAtomX=     4
   MMem=         123  MDisk=          16 MDiskD=          16
  W3Min=     1147744 MinDsk=     1765480 NBas6D=         208
 NBas2D=       22240    NTT=       21736    LW2=     9911920
    MDV= 16105602310 MDiskM=      387105 NBas2p=       22141
 Fully direct method using O(ONN) memory.
 IMap=   1   2   3   4   5   6   7   8   9  10  11  12  13  14  15  16  17  18  19  20
 IMap=  21  22  23  24  25  26  27  28  29  30  31
 JobTyp=1 Pass  1:  I=  16 to  31 NPSUse= 28 ParTrn=T ParDer=T DoDerP=T.
 Spin components of T(2) and E(2):
     alpha-alpha T2 =       0.3012696478D-01 E2=     -0.9382401660D-01
     alpha-beta  T2 =       0.1608179040D+00 E2=     -0.5145217539D+00
     beta-beta   T2 =       0.3012696478D-01 E2=     -0.9382401660D-01
 The integrals were generated   1 times.
 ANorm=    0.1105021191D+01
 E2 =    -0.7021697870D+00 EUMP2 =    -0.31081811674241D+04
 Leave Link  906 at Fri Nov  5 16:02:29 2021, MaxMem= 16106127360 cpu:             446.1 elap:              16.0
 (Enter /sw/contrib/gaussian/g16/B01/g16/l1002.exe)
 Minotr:  Closed shell wavefunction.
          Computing MP2/KS-MP2 derivatives.
          Using Z-Vector for PSCF gradient.
          Skipping F1 and S1 gradient terms here.
          IDoAtm=1111
          Frozen-core window.
          Direct CPHF calculation.
          Differentiating once with respect to electric field.
                with respect to dipole field.
          Differentiating once with respect to nuclear coordinates.
          Using symmetry in CPHF.
          Requested convergence is 1.0D-10 RMS, and 1.0D-09 maximum.
          NewPWx=F KeepS1=T KeepF1=T KeepIn=T MapXYZ=F SortEE=F KeepMc=T.
 Keep R1 ints in memory in symmetry-blocked form, NReq=191184324.
 FoFCou: FMM=F IPFlag=           0 FMFlag=           0 FMFlg1=           0
         NFxFlg=           0 DoJE=F BraDBF=F KetDBF=F FulRan=T
         wScrn=  0.000000 ICntrl=       600 IOpCl=  0 I1Cent=           0 NGrid=           0
         NMat0=    1 NMatS0=  15931 NMatT0=    0 NMatD0=    1 NMtDS0=    0 NMtDT0=    0
 Petite list used in FoFCou.
          MDV=   16106127360 using IRadAn=       5.
          Solving linear equations separately, MaxMat=       0.
          There are     1 degrees of freedom in the 1st order CPHF.  IDoFFX=0 NUNeed=     1.
 LinEq1:  Iter=  0 NonCon=     1 RMS=2.62D-03 Max=4.46D-02 NDo=     1
 AX will form     1 AO Fock derivatives at one time.
 LinEq1:  Iter=  1 NonCon=     1 RMS=4.14D-04 Max=4.82D-03 NDo=     1
 LinEq1:  Iter=  2 NonCon=     1 RMS=1.98D-04 Max=4.59D-03 NDo=     1
 LinEq1:  Iter=  3 NonCon=     1 RMS=6.42D-05 Max=1.03D-03 NDo=     1
 LinEq1:  Iter=  4 NonCon=     1 RMS=2.75D-05 Max=9.61D-04 NDo=     1
 LinEq1:  Iter=  5 NonCon=     1 RMS=9.72D-06 Max=1.60D-04 NDo=     1
 LinEq1:  Iter=  6 NonCon=     1 RMS=2.01D-06 Max=2.59D-05 NDo=     1
 LinEq1:  Iter=  7 NonCon=     1 RMS=4.75D-07 Max=8.23D-06 NDo=     1
 LinEq1:  Iter=  8 NonCon=     1 RMS=1.28D-07 Max=1.91D-06 NDo=     1
 LinEq1:  Iter=  9 NonCon=     1 RMS=2.82D-08 Max=4.54D-07 NDo=     1
 LinEq1:  Iter= 10 NonCon=     1 RMS=6.85D-09 Max=1.71D-07 NDo=     1
 LinEq1:  Iter= 11 NonCon=     1 RMS=1.63D-09 Max=5.02D-08 NDo=     1
 LinEq1:  Iter= 12 NonCon=     1 RMS=3.91D-10 Max=5.73D-09 NDo=     1
 LinEq1:  Iter= 13 NonCon=     1 RMS=1.22D-10 Max=1.60D-09 NDo=     1
 LinEq1:  Iter= 14 NonCon=     0 RMS=2.67D-11 Max=4.59D-10 NDo=     1
 Linear equations converged to 1.000D-10 1.000D-09 after    14 iterations.
 End of Minotr F.D. properties file   721 does not exist.
 End of Minotr F.D. properties file   722 does not exist.
 End of Minotr F.D. properties file   788 does not exist.
 Leave Link 1002 at Fri Nov  5 16:02:32 2021, MaxMem= 16106127360 cpu:              51.2 elap:               2.9
 (Enter /sw/contrib/gaussian/g16/B01/g16/l701.exe)
 ... and contract with generalized density number  2.
 Compute integral first derivatives.
 Leave Link  701 at Fri Nov  5 16:02:33 2021, MaxMem= 16106127360 cpu:               8.9 elap:               0.4
 (Enter /sw/contrib/gaussian/g16/B01/g16/l702.exe)
 L702 exits ... SP integral derivatives will be done elsewhere.
 Leave Link  702 at Fri Nov  5 16:02:33 2021, MaxMem= 16106127360 cpu:               0.5 elap:               0.0
 (Enter /sw/contrib/gaussian/g16/B01/g16/l703.exe)
 Integral derivatives from FoFJK, PRISM(SPDF).
 Compute integral first derivatives, UseDBF=F ICtDFT=           0.
 Calling FoFJK, ICntrl=  10002127 FMM=F ISym2X=1 I1Cent= 0 IOpClX= 0 NMat=1 NMatS=1 NMatT=0.
 FoFJK:  IHMeth= 1 ICntrl=10002127 DoSepK=F KAlg= 0 I1Cent=           0 FoldK=F
 IRaf=         0 NMat=       1 IRICut=       1 DoRegI=T DoRafI=F ISym2E= 1 IDoP0=0 IntGTp=1.
 FoFCou: FMM=F IPFlag=           0 FMFlag=      100000 FMFlg1=         800
         NFxFlg=           0 DoJE=F BraDBF=F KetDBF=F FulRan=T
         wScrn=  0.000000 ICntrl=  10002127 IOpCl=  0 I1Cent=           0 NGrid=           0
         NMat0=    1 NMatS0=      1 NMatT0=    0 NMatD0=    1 NMtDS0=    0 NMtDT0=    0
 Petite list used in FoFCou.
 Leave Link  703 at Fri Nov  5 16:02:35 2021, MaxMem= 16106127360 cpu:              63.6 elap:               2.3
 (Enter /sw/contrib/gaussian/g16/B01/g16/l716.exe)
 Dipole        = 1.12835191D+00 5.51943113D-01 0.00000000D+00
 ***** Axes restored to original set *****
 -------------------------------------------------------------------
 Center     Atomic                   Forces (Hartrees/Bohr)
 Number     Number              X              Y              Z
 -------------------------------------------------------------------
      1        8           0.013519280    0.034688471   -0.000000000
      2       17          -0.005823572    0.000671462   -0.000000000
      3       35          -0.000926346   -0.001389412   -0.000000000
      4        1          -0.006769363   -0.033970521   -0.000000000
 -------------------------------------------------------------------
 Cartesian Forces:  Max     0.034688471 RMS     0.014784663
 -----------------------------------------------------------------------------------------------
                       Internal Coordinate Forces (Hartree/Bohr or radian)
  Cent   Atom   N1       Length/X         N2         Alpha/Y        N3         Beta/Z          J
 -----------------------------------------------------------------------------------------------
      1  O 
         X        1   0.000000(     1)
      2  Cl       1  -0.005824(     2)      2  -0.000000(     5)
      3  Br       1   0.001557(     3)      2   0.000000(     6)      3   0.003497(     8)     0
      4  H        1   0.034631(     4)      2   0.000000(     7)      3  -0.001344(     9)     0
 -----------------------------------------------------------------------------------------------
 Internal  Forces:  Max     0.034630645 RMS     0.011783486
 Leave Link  716 at Fri Nov  5 16:02:35 2021, MaxMem= 16106127360 cpu:               1.2 elap:               0.1
 (Enter /sw/contrib/gaussian/g16/B01/g16/l103.exe)

 GradGradGradGradGradGradGradGradGradGradGradGradGradGradGradGradGradGrad
 Berny optimization.
 Search for a local minimum.
 Step number   2 out of a maximum of   20
 All quantities printed in internal units (Hartrees-Bohrs-Radians)
 Update second derivatives using D2CorN and points    1    2
 DE= -2.15D-03 DEPred=-3.00D-03 R= 7.16D-01
 TightC=F SS=  1.41D+00  RLast= 3.00D-01 DXNew= 5.0454D-01 9.0000D-01
 Trust test= 7.16D-01 RLast= 3.00D-01 DXMaxT set to 5.05D-01
 The second derivative matrix:
                          r1        r2        r3        a1        OOP
           r1           0.36254
           r2          -0.00109   0.04154
           r3           0.00000   0.00207   0.53659
           a1          -0.00000   0.00197   0.00000   0.41000
           OOP          0.00000   0.00000   0.00000   0.00000   0.25119
 ITU=  1  0
     Eigenvalues ---    0.041541000.000001000.000001000.000001000.00000
 RFO step:  Lambda= 0.00000000D+00 EMin= 4.15436706D-02
 Quartic linear search produced a step of  0.18745.
 Variable       Old X    -DE/DX   Delta X   Delta X   Delta X     New X
                                 (Linear)    (Quad)   (Total)
    r1        3.20687  -0.00582   0.00000   0.00000   0.00000   3.20687
    r2        5.78904   0.00156   0.05624  -0.00000   0.05624   5.84528
    r3        1.83043   0.03463   0.00000   0.00000   0.00000   1.83043
    a1        1.78869   0.00215   0.00000   0.00000   0.00000   1.78869
   OOP        1.57080   0.00000   0.00000   0.00000   0.00000   1.57080
         Item               Value     Threshold  Converged?
 Maximum Force            0.001557     0.000450     NO 
 RMS     Force            0.001557     0.000300     NO 
 Maximum Displacement     0.056235     0.001800     NO 
 RMS     Displacement     0.025149     0.001200     NO 
 Predicted change in Energy=-2.185851D-05
 Lowest energy point so far.  Saving SCF results.
 GradGradGradGradGradGradGradGradGradGradGradGradGradGradGradGradGradGrad

 Leave Link  103 at Fri Nov  5 16:02:35 2021, MaxMem= 16106127360 cpu:               0.6 elap:               0.1
 (Enter /sw/contrib/gaussian/g16/B01/g16/l202.exe)
 ---------------------------------------------------------------------------------------------------
                            Z-MATRIX (ANGSTROMS AND DEGREES)
   CD    Cent   Atom    N1       Length/X        N2       Alpha/Y        N3        Beta/Z          J
 ---------------------------------------------------------------------------------------------------
      1      1  O 
      2         X        1  10.000000(     1)
      3      2  Cl       1   1.697002(     2)      2   90.000(     5)
      4      3  Br       1   3.093188(     3)      2   90.000(     6)      3  102.484(     8)      0
      5      4  H        1   0.968623(     4)      2   90.000(     7)      3  102.484(     9)      0
 ---------------------------------------------------------------------------------------------------
                         Z-Matrix orientation:                         
 ---------------------------------------------------------------------
 Center     Atomic      Atomic             Coordinates (Angstroms)
 Number     Number       Type             X           Y           Z
 ---------------------------------------------------------------------
      1          8           0        0.000000    0.000000    0.000000
      2         -1           0        0.000000    0.000000   10.000000
      3         17           0        1.697002    0.000000    0.000000
      4         35           0       -0.668661   -3.020050    0.000000
      5          1           0       -0.209389   -0.945721    0.000000
 ---------------------------------------------------------------------
                    Distance matrix (angstroms):
                    1          2          3          4          5
     1  O    0.000000
     2  X   10.000000   0.000000
     3  Cl   1.697002  10.142969   0.000000
     4  Br   3.093188  10.467464   3.836282   0.000000
     5  H    0.968623  10.046802   2.128077   2.124564   0.000000
 Stoichiometry    BrClHO(1-)
 Framework group  CS[SG(BrClHO)]
 Deg. of freedom     5
 Full point group                 CS      NOp   2
 RotChk:  IX=0 Diff= 1.55D-02
 Largest Abelian subgroup         CS      NOp   2
 Largest concise Abelian subgroup C1      NOp   1
                         Standard orientation:                         
 ---------------------------------------------------------------------
 Center     Atomic      Atomic             Coordinates (Angstroms)
 Number     Number       Type             X           Y           Z
 ---------------------------------------------------------------------
      1          8           0        0.523008    1.670465    0.000000
      2         17           0        2.115674    1.084607    0.000000
      3         35           0       -1.147158   -0.933063    0.000000
      4          1           0       -0.000000    0.855177    0.000000
 ---------------------------------------------------------------------
 Rotational constants (GHZ):          21.9081299           1.2765915           1.2063001
 Leave Link  202 at Fri Nov  5 16:02:35 2021, MaxMem= 16106127360 cpu:               0.6 elap:               0.1
 (Enter /sw/contrib/gaussian/g16/B01/g16/l301.exe)
 Standard basis: Aug-CC-pVTZ (5D, 7F)
 Ernie: Thresh=  0.10000D-02 Tol=  0.10000D-05 Strict=F.
 Ernie:  48 primitive shells out of 228 were deleted.
 There are   142 symmetry adapted cartesian basis functions of A'  symmetry.
 There are    66 symmetry adapted cartesian basis functions of A"  symmetry.
 There are   118 symmetry adapted basis functions of A'  symmetry.
 There are    60 symmetry adapted basis functions of A"  symmetry.
   178 basis functions,   430 primitive gaussians,   208 cartesian basis functions
    31 alpha electrons       31 beta electrons
       nuclear repulsion energy       189.7007536294 Hartrees.
 IExCor=    0 DFT=F Ex=HF Corr=None ExCW=0 ScaHFX=  1.000000
 ScaDFX=  1.000000  1.000000  1.000000  1.000000 ScalE2=  1.000000  1.000000
 IRadAn=      5 IRanWt=     -1 IRanGd=            0 ICorTp=0 IEmpDi=  4
 NAtoms=    4 NActive=    4 NUniq=    4 SFac= 1.00D+00 NAtFMM=   60 NAOKFM=F Big=F
 Integral buffers will be    131072 words long.
 Raffenetti 1 integral format.
 Two-electron integral symmetry is turned on.
 Leave Link  301 at Fri Nov  5 16:02:35 2021, MaxMem= 16106127360 cpu:               1.7 elap:               0.1
 (Enter /sw/contrib/gaussian/g16/B01/g16/l302.exe)
 NPDir=0 NMtPBC=     1 NCelOv=     1 NCel=       1 NClECP=     1 NCelD=      1
         NCelK=      1 NCelE2=     1 NClLst=     1 CellRange=     0.0.
 One-electron integrals computed using PRISM.
 One-electron integral symmetry used in STVInt
 NBasis=   178 RedAO= T EigKep=  2.25D-04  NBF=   118    60
 NBsUse=   178 1.00D-06 EigRej= -1.00D+00 NBFU=   118    60
 Leave Link  302 at Fri Nov  5 16:02:36 2021, MaxMem= 16106127360 cpu:               4.6 elap:               0.2
 (Enter /sw/contrib/gaussian/g16/B01/g16/l303.exe)
 DipDrv:  MaxL=1.
 Leave Link  303 at Fri Nov  5 16:02:36 2021, MaxMem= 16106127360 cpu:               0.9 elap:               0.1
 (Enter /sw/contrib/gaussian/g16/B01/g16/l401.exe)
 Initial guess from the checkpoint file:  "/gscratch/ilahie/mccoygrp/coire_hocl/oop_s_rOH_f/brhocl/brhocl_rOBr_opt.chk"
 B after Tr=    -0.000000   -0.000000    0.000000
         Rot=    0.999978   -0.000000   -0.000000   -0.006707 Ang=  -0.77 deg.
 Guess basis will be translated and rotated to current coordinates.
 JPrj=2 DoOrth=T DoCkMO=T.
 Initial guess orbital symmetries:
       Occupied  (A') (A') (A') (A') (A") (A') (A') (A') (A') (A')
                 (A') (A") (A') (A") (A') (A') (A") (A') (A") (A')
                 (A') (A') (A') (A') (A") (A') (A') (A") (A') (A")
                 (A')
       Virtual   (A') (A') (A') (A") (A') (A') (A") (A') (A') (A")
                 (A') (A') (A') (A') (A") (A") (A') (A') (A') (A')
                 (A") (A") (A') (A') (A") (A') (A') (A') (A') (A")
                 (A') (A") (A') (A') (A") (A') (A') (A") (A") (A')
                 (A") (A') (A') (A') (A") (A') (A") (A') (A') (A')
                 (A") (A') (A") (A') (A') (A") (A") (A') (A') (A")
                 (A') (A") (A') (A') (A') (A') (A') (A") (A") (A")
                 (A') (A') (A') (A") (A') (A') (A') (A") (A") (A')
                 (A') (A') (A") (A') (A") (A') (A") (A") (A') (A')
                 (A') (A') (A") (A') (A") (A") (A') (A') (A") (A')
                 (A") (A') (A') (A') (A") (A') (A") (A') (A") (A')
                 (A') (A") (A') (A') (A") (A') (A') (A") (A') (A')
                 (A') (A") (A") (A') (A") (A') (A') (A') (A') (A')
                 (A") (A') (A') (A') (A") (A') (A") (A') (A") (A")
                 (A') (A') (A") (A') (A') (A') (A')
 The electronic state of the initial guess is 1-A'.
 Generating alternative initial guess.
 ExpMin= 2.53D-02 ExpMax= 1.06D+07 ExpMxC= 1.21D+04 IAcc=3 IRadAn=         5 AccDes= 0.00D+00
 Harris functional with IExCor=  205 and IRadAn=       5 diagonalized for initial guess.
 HarFok:  IExCor=  205 AccDes= 0.00D+00 IRadAn=         5 IDoV= 1 UseB2=F ITyADJ=14
 ICtDFT=  3500011 ScaDFX=  1.000000  1.000000  1.000000  1.000000
 FoFCou: FMM=F IPFlag=           0 FMFlag=      100000 FMFlg1=           0
         NFxFlg=           0 DoJE=T BraDBF=F KetDBF=T FulRan=T
         wScrn=  0.000000 ICntrl=       500 IOpCl=  0 I1Cent=   200000004 NGrid=           0
         NMat0=    1 NMatS0=      1 NMatT0=    0 NMatD0=    1 NMtDS0=    0 NMtDT0=    0
 Petite list used in FoFCou.
 Harris En= -3106.39205535205    
 Leave Link  401 at Fri Nov  5 16:02:36 2021, MaxMem= 16106127360 cpu:               9.8 elap:               0.4
 (Enter /sw/contrib/gaussian/g16/B01/g16/l502.exe)
 Keep R1 ints in memory in symmetry-blocked form, NReq=191183261.
 FoFCou: FMM=F IPFlag=           0 FMFlag=           0 FMFlg1=           0
         NFxFlg=           0 DoJE=F BraDBF=F KetDBF=F FulRan=T
         wScrn=  0.000000 ICntrl=       600 IOpCl=  0 I1Cent=           0 NGrid=           0
         NMat0=    1 NMatS0=  15931 NMatT0=    0 NMatD0=    1 NMtDS0=    0 NMtDT0=    0
 Petite list used in FoFCou.
 Closed shell SCF:
 Using DIIS extrapolation, IDIIS=  1040.
 NGot= 16106127360 LenX= 16041757360 LenY= 16041713655
 Requested convergence on RMS density matrix=1.00D-08 within 128 cycles.
 Requested convergence on MAX density matrix=1.00D-06.
 Requested convergence on             energy=1.00D-06.
 No special actions if energy rises.

 Cycle   1  Pass 1  IDiag  1:
 E= -3107.47951028218    
 DIIS: error= 3.37D-04 at cycle   1 NSaved=   1.
 NSaved= 1 IEnMin= 1 EnMin= -3107.47951028218     IErMin= 1 ErrMin= 3.37D-04
 ErrMax= 3.37D-04  0.00D+00 EMaxC= 1.00D-01 BMatC= 2.09D-05 BMatP= 2.09D-05
 IDIUse=3 WtCom= 9.97D-01 WtEn= 3.37D-03
 Coeff-Com:  0.100D+01
 Coeff-En:   0.100D+01
 Coeff:      0.100D+01
 Gap=     0.329 Goal=   None    Shift=    0.000
 RMSDP=5.17D-05 MaxDP=2.22D-03              OVMax= 2.09D-03

 Cycle   2  Pass 1  IDiag  1:
 E= -3107.47953533783     Delta-E=       -0.000025055654 Rises=F Damp=F
 DIIS: error= 1.01D-04 at cycle   2 NSaved=   2.
 NSaved= 2 IEnMin= 2 EnMin= -3107.47953533783     IErMin= 2 ErrMin= 1.01D-04
 ErrMax= 1.01D-04  0.00D+00 EMaxC= 1.00D-01 BMatC= 1.37D-06 BMatP= 2.09D-05
 IDIUse=3 WtCom= 9.99D-01 WtEn= 1.01D-03
 Coeff-Com: -0.570D-01 0.106D+01
 Coeff-En:   0.000D+00 0.100D+01
 Coeff:     -0.569D-01 0.106D+01
 Gap=     0.328 Goal=   None    Shift=    0.000
 RMSDP=8.64D-06 MaxDP=3.79D-04 DE=-2.51D-05 OVMax= 6.76D-04

 Cycle   3  Pass 1  IDiag  1:
 E= -3107.47953734430     Delta-E=       -0.000002006471 Rises=F Damp=F
 DIIS: error= 5.07D-05 at cycle   3 NSaved=   3.
 NSaved= 3 IEnMin= 3 EnMin= -3107.47953734430     IErMin= 3 ErrMin= 5.07D-05
 ErrMax= 5.07D-05  0.00D+00 EMaxC= 1.00D-01 BMatC= 4.01D-07 BMatP= 1.37D-06
 IDIUse=1 WtCom= 1.00D+00 WtEn= 0.00D+00
 Coeff-Com: -0.694D-01 0.333D+00 0.736D+00
 Coeff:     -0.694D-01 0.333D+00 0.736D+00
 Gap=     0.328 Goal=   None    Shift=    0.000
 RMSDP=2.71D-06 MaxDP=6.97D-05 DE=-2.01D-06 OVMax= 2.27D-04

 Cycle   4  Pass 1  IDiag  1:
 E= -3107.47953777560     Delta-E=       -0.000000431301 Rises=F Damp=F
 DIIS: error= 1.86D-05 at cycle   4 NSaved=   4.
 NSaved= 4 IEnMin= 4 EnMin= -3107.47953777560     IErMin= 4 ErrMin= 1.86D-05
 ErrMax= 1.86D-05  0.00D+00 EMaxC= 1.00D-01 BMatC= 3.87D-08 BMatP= 4.01D-07
 IDIUse=1 WtCom= 1.00D+00 WtEn= 0.00D+00
 Coeff-Com:  0.614D-02-0.132D+00 0.371D-01 0.109D+01
 Coeff:      0.614D-02-0.132D+00 0.371D-01 0.109D+01
 Gap=     0.328 Goal=   None    Shift=    0.000
 RMSDP=1.88D-06 MaxDP=5.23D-05 DE=-4.31D-07 OVMax= 1.42D-04

 Cycle   5  Pass 1  IDiag  1:
 E= -3107.47953786608     Delta-E=       -0.000000090480 Rises=F Damp=F
 DIIS: error= 5.17D-06 at cycle   5 NSaved=   5.
 NSaved= 5 IEnMin= 5 EnMin= -3107.47953786608     IErMin= 5 ErrMin= 5.17D-06
 ErrMax= 5.17D-06  0.00D+00 EMaxC= 1.00D-01 BMatC= 3.62D-09 BMatP= 3.87D-08
 IDIUse=1 WtCom= 1.00D+00 WtEn= 0.00D+00
 Coeff-Com:  0.731D-02-0.375D-01-0.764D-01-0.280D-01 0.113D+01
[...]
 Leave Link  906 at Fri Nov  5 16:02:55 2021, MaxMem= 16106127360 cpu:             454.0 elap:              16.3
 (Enter /sw/contrib/gaussian/g16/B01/g16/l1002.exe)
 Minotr:  Closed shell wavefunction.
          Computing MP2/KS-MP2 derivatives.
          Using Z-Vector for PSCF gradient.
          Skipping F1 and S1 gradient terms here.
          IDoAtm=1111
          Frozen-core window.
          Direct CPHF calculation.
          Differentiating once with respect to electric field.
                with respect to dipole field.
          Differentiating once with respect to nuclear coordinates.
          Using symmetry in CPHF.
          Requested convergence is 1.0D-10 RMS, and 1.0D-09 maximum.
          NewPWx=F KeepS1=T KeepF1=T KeepIn=T MapXYZ=F SortEE=F KeepMc=T.
 Keep R1 ints in memory in symmetry-blocked form, NReq=191184324.
 FoFCou: FMM=F IPFlag=           0 FMFlag=           0 FMFlg1=           0
         NFxFlg=           0 DoJE=F BraDBF=F KetDBF=F FulRan=T
         wScrn=  0.000000 ICntrl=       600 IOpCl=  0 I1Cent=           0 NGrid=           0
         NMat0=    1 NMatS0=  15931 NMatT0=    0 NMatD0=    1 NMtDS0=    0 NMtDT0=    0
 Petite list used in FoFCou.
          MDV=   16106127360 using IRadAn=       5.
          Solving linear equations separately, MaxMat=       0.
          There are     1 degrees of freedom in the 1st order CPHF.  IDoFFX=0 NUNeed=     1.
 LinEq1:  Iter=  0 NonCon=     1 RMS=2.61D-03 Max=4.45D-02 NDo=     1
 AX will form     1 AO Fock derivatives at one time.
 LinEq1:  Iter=  1 NonCon=     1 RMS=4.12D-04 Max=4.79D-03 NDo=     1
 LinEq1:  Iter=  2 NonCon=     1 RMS=1.97D-04 Max=4.51D-03 NDo=     1
 LinEq1:  Iter=  3 NonCon=     1 RMS=6.38D-05 Max=1.03D-03 NDo=     1
 LinEq1:  Iter=  4 NonCon=     1 RMS=2.72D-05 Max=9.50D-04 NDo=     1
 LinEq1:  Iter=  5 NonCon=     1 RMS=9.67D-06 Max=1.60D-04 NDo=     1
 LinEq1:  Iter=  6 NonCon=     1 RMS=2.01D-06 Max=2.63D-05 NDo=     1
 LinEq1:  Iter=  7 NonCon=     1 RMS=4.78D-07 Max=7.81D-06 NDo=     1
 LinEq1:  Iter=  8 NonCon=     1 RMS=1.30D-07 Max=2.00D-06 NDo=     1
 LinEq1:  Iter=  9 NonCon=     1 RMS=3.02D-08 Max=7.10D-07 NDo=     1
 LinEq1:  Iter= 10 NonCon=     1 RMS=8.30D-09 Max=2.39D-07 NDo=     1
 LinEq1:  Iter= 11 NonCon=     1 RMS=2.11D-09 Max=4.78D-08 NDo=     1
 LinEq1:  Iter= 12 NonCon=     1 RMS=4.30D-10 Max=6.79D-09 NDo=     1
 LinEq1:  Iter= 13 NonCon=     1 RMS=1.25D-10 Max=1.71D-09 NDo=     1
 LinEq1:  Iter= 14 NonCon=     0 RMS=2.72D-11 Max=4.72D-10 NDo=     1
 Linear equations converged to 1.000D-10 1.000D-09 after    14 iterations.
 End of Minotr F.D. properties file   721 does not exist.
 End of Minotr F.D. properties file   722 does not exist.
 End of Minotr F.D. properties file   788 does not exist.
 Leave Link 1002 at Fri Nov  5 16:02:58 2021, MaxMem= 16106127360 cpu:              50.3 elap:               2.9
 (Enter /sw/contrib/gaussian/g16/B01/g16/l701.exe)
 ... and contract with generalized density number  2.
 Compute integral first derivatives.
 Leave Link  701 at Fri Nov  5 16:02:58 2021, MaxMem= 16106127360 cpu:               5.5 elap:               0.2
 (Enter /sw/contrib/gaussian/g16/B01/g16/l702.exe)
 L702 exits ... SP integral derivatives will be done elsewhere.
 Leave Link  702 at Fri Nov  5 16:02:58 2021, MaxMem= 16106127360 cpu:               0.6 elap:               0.0
 (Enter /sw/contrib/gaussian/g16/B01/g16/l703.exe)
 Integral derivatives from FoFJK, PRISM(SPDF).
 Compute integral first derivatives, UseDBF=F ICtDFT=           0.
 Calling FoFJK, ICntrl=  10002127 FMM=F ISym2X=1 I1Cent= 0 IOpClX= 0 NMat=1 NMatS=1 NMatT=0.
 FoFJK:  IHMeth= 1 ICntrl=10002127 DoSepK=F KAlg= 0 I1Cent=           0 FoldK=F
 IRaf=         0 NMat=       1 IRICut=       1 DoRegI=T DoRafI=F ISym2E= 1 IDoP0=0 IntGTp=1.
 FoFCou: FMM=F IPFlag=           0 FMFlag=      100000 FMFlg1=         800
         NFxFlg=           0 DoJE=F BraDBF=F KetDBF=F FulRan=T
         wScrn=  0.000000 ICntrl=  10002127 IOpCl=  0 I1Cent=           0 NGrid=           0
         NMat0=    1 NMatS0=      1 NMatT0=    0 NMatD0=    1 NMtDS0=    0 NMtDT0=    0
 Petite list used in FoFCou.
 Leave Link  703 at Fri Nov  5 16:03:01 2021, MaxMem= 16106127360 cpu:              63.6 elap:               2.3
 (Enter /sw/contrib/gaussian/g16/B01/g16/l716.exe)
 Dipole        = 1.14656381D+00 5.91283041D-01 0.00000000D+00
 ***** Axes restored to original set *****
 -------------------------------------------------------------------
 Center     Atomic                   Forces (Hartrees/Bohr)
 Number     Number              X              Y              Z
 -------------------------------------------------------------------
      1        8           0.012970366    0.032740826   -0.000000000
      2       17          -0.005707182    0.000624266   -0.000000000
      3       35          -0.000533668    0.000151806   -0.000000000
      4        1          -0.006729517   -0.033516899   -0.000000000
 -------------------------------------------------------------------
 Cartesian Forces:  Max     0.033516899 RMS     0.014265724
 -----------------------------------------------------------------------------------------------
                       Internal Coordinate Forces (Hartree/Bohr or radian)
  Cent   Atom   N1       Length/X         N2         Alpha/Y        N3         Beta/Z          J
 -----------------------------------------------------------------------------------------------
      1  O 
         X        1   0.000000(     1)
      2  Cl       1  -0.005707(     2)      2  -0.000000(     5)
      3  Br       1  -0.000033(     3)      2  -0.000000(     6)      3   0.003237(     8)     0
      4  H        1   0.034179(     4)      2   0.000000(     7)      3  -0.001236(     9)     0
 -----------------------------------------------------------------------------------------------
 Internal  Forces:  Max     0.034179134 RMS     0.011608399
 Leave Link  716 at Fri Nov  5 16:03:01 2021, MaxMem= 16106127360 cpu:               1.7 elap:               0.1
 (Enter /sw/contrib/gaussian/g16/B01/g16/l103.exe)

 GradGradGradGradGradGradGradGradGradGradGradGradGradGradGradGradGradGrad
 Berny optimization.
 Search for a local minimum.
 Step number   3 out of a maximum of   20
 All quantities printed in internal units (Hartrees-Bohrs-Radians)
 Update second derivatives using D2CorN and points    2    3
 DE= -4.19D-05 DEPred=-2.19D-05 R= 1.92D+00
 TightC=F SS=  1.41D+00  RLast= 5.62D-02 DXNew= 8.4853D-01 1.6871D-01
 Trust test= 1.92D+00 RLast= 5.62D-02 DXMaxT set to 5.05D-01
 The second derivative matrix:
                          r1        r2        r3        a1        OOP
           r1           0.36254
           r2          -0.00158   0.02827
           r3           0.00000   0.00505   0.53659
           a1          -0.00000   0.00233   0.00000   0.41000
           OOP          0.00000   0.00000   0.00000   0.00000   0.25119
 ITU=  1  1  0
     Eigenvalues ---    0.028271000.000001000.000001000.000001000.00000
 RFO step:  Lambda= 0.00000000D+00 EMin= 2.82679839D-02
 Quartic linear search produced a step of -0.02196.
 Variable       Old X    -DE/DX   Delta X   Delta X   Delta X     New X
                                 (Linear)    (Quad)   (Total)
    r1        3.20687  -0.00571   0.00000   0.00000   0.00000   3.20687
    r2        5.84528  -0.00003  -0.00124   0.00000  -0.00124   5.84404
    r3        1.83043   0.03418   0.00000   0.00000   0.00000   1.83043
    a1        1.78869   0.00200   0.00000   0.00000   0.00000   1.78869
   OOP        1.57080   0.00000   0.00000   0.00000   0.00000   1.57080
         Item               Value     Threshold  Converged?
 Maximum Force            0.000033     0.000450     YES
 RMS     Force            0.000033     0.000300     YES
 Maximum Displacement     0.001235     0.001800     YES
 RMS     Displacement     0.000552     0.001200     YES
 Predicted change in Energy=-1.901557D-08
 Optimization completed.
    -- Stationary point found.
                       ----------------------------
                       !   Optimized Parameters   !
                       ! (Angstroms and Degrees)  !
 ----------------------                            ----------------------
 !      Name          Value   Derivative information (Atomic Units)     !
 ------------------------------------------------------------------------
 !       r1          1.697    -DE/DX =   -0.0057                        !
 !       r2          3.0932   -DE/DX =    0.0                           !
 !       r3          0.9686   -DE/DX =    0.0342                        !
 !       a1        102.4843   -DE/DX =    0.002                         !
 !       OOP        90.0      -DE/DX =    0.0                           !
 ------------------------------------------------------------------------
 Lowest energy point so far.  Saving SCF results.
 Largest change from initial coordinates is atom    2       0.089 Angstoms.
 GradGradGradGradGradGradGradGradGradGradGradGradGradGradGradGradGradGrad

 Leave Link  103 at Fri Nov  5 16:03:01 2021, MaxMem= 16106127360 cpu:               0.5 elap:               0.0
 (Enter /sw/contrib/gaussian/g16/B01/g16/l202.exe)
 ---------------------------------------------------------------------------------------------------
                            Z-MATRIX (ANGSTROMS AND DEGREES)
   CD    Cent   Atom    N1       Length/X        N2       Alpha/Y        N3        Beta/Z          J
 ---------------------------------------------------------------------------------------------------
      1      1  O 
      2         X        1  10.000000(     1)
      3      2  Cl       1   1.697002(     2)      2   90.000(     5)
      4      3  Br       1   3.093188(     3)      2   90.000(     6)      3  102.484(     8)      0
      5      4  H        1   0.968623(     4)      2   90.000(     7)      3  102.484(     9)      0
 ---------------------------------------------------------------------------------------------------
                         Z-Matrix orientation:                         
 ---------------------------------------------------------------------
 Center     Atomic      Atomic             Coordinates (Angstroms)
 Number     Number       Type             X           Y           Z
 ---------------------------------------------------------------------
      1          8           0        0.000000    0.000000    0.000000
      2         -1           0        0.000000    0.000000   10.000000
      3         17           0        1.697002    0.000000    0.000000
      4         35           0       -0.668661   -3.020050    0.000000
      5          1           0       -0.209389   -0.945721    0.000000
 ---------------------------------------------------------------------
                    Distance matrix (angstroms):
                    1          2          3          4          5
     1  O    0.000000
     2  X   10.000000   0.000000
     3  Cl   1.697002  10.142969   0.000000
     4  Br   3.093188  10.467464   3.836282   0.000000
     5  H    0.968623  10.046802   2.128077   2.124564   0.000000
 Stoichiometry    BrClHO(1-)
 Framework group  CS[SG(BrClHO)]
 Deg. of freedom     5
 Full point group                 CS      NOp   2
 RotChk:  IX=0 Diff= 2.41D-16
 Largest Abelian subgroup         CS      NOp   2
 Largest concise Abelian subgroup C1      NOp   1
                         Standard orientation:                         
 ---------------------------------------------------------------------
 Center     Atomic      Atomic             Coordinates (Angstroms)
 Number     Number       Type             X           Y           Z
 ---------------------------------------------------------------------
      1          8           0        0.523008    1.670465    0.000000
      2         17           0        2.115674    1.084607    0.000000
      3         35           0       -1.147158   -0.933063    0.000000
      4          1           0       -0.000000    0.855177    0.000000
 ---------------------------------------------------------------------
 Rotational constants (GHZ):          21.9081299           1.2765915           1.2063001
 Leave Link  202 at Fri Nov  5 16:03:02 2021, MaxMem= 16106127360 cpu:              17.2 elap:               0.7
 (Enter /sw/contrib/gaussian/g16/B01/g16/l601.exe)
 Copying SCF densities to generalized density rwf, IOpCl= 0 IROHF=0.

 **********************************************************************

            Population analysis using the MP2 Density.

 **********************************************************************

 Orbital symmetries:
       Occupied  (A') (A') (A') (A') (A") (A') (A') (A') (A') (A')
                 (A') (A") (A') (A") (A') (A') (A") (A') (A") (A')
                 (A') (A') (A') (A') (A") (A') (A') (A") (A') (A")
                 (A')
       Virtual   (A') (A') (A') (A") (A') (A') (A") (A') (A') (A")
                 (A') (A') (A') (A') (A") (A") (A') (A') (A') (A")
                 (A') (A") (A') (A') (A") (A') (A') (A') (A') (A")
                 (A') (A") (A') (A') (A") (A') (A') (A") (A") (A')
                 (A") (A') (A') (A') (A") (A') (A") (A') (A') (A')
                 (A") (A') (A") (A') (A') (A") (A") (A') (A') (A")
                 (A') (A") (A') (A') (A') (A') (A') (A") (A") (A")
                 (A') (A') (A') (A") (A') (A') (A') (A") (A") (A')
                 (A') (A') (A") (A') (A") (A') (A") (A") (A') (A')
                 (A') (A') (A") (A') (A") (A") (A') (A') (A") (A')
                 (A") (A') (A') (A') (A") (A') (A") (A') (A") (A')
                 (A') (A") (A') (A') (A") (A') (A') (A") (A') (A')
                 (A') (A") (A") (A') (A") (A') (A') (A') (A') (A')
                 (A") (A') (A') (A') (A") (A') (A") (A') (A") (A")
                 (A') (A') (A") (A') (A') (A') (A')
 The electronic state is 1-A'.
 Alpha  occ. eigenvalues -- -489.75218-104.73586 -64.89253 -58.24703 -58.24700
 Alpha  occ. eigenvalues --  -58.24699 -20.46674 -10.45524  -9.56506  -7.92237
 Alpha  occ. eigenvalues --   -7.91972  -7.91963  -7.17279  -7.17235  -7.17233
 Alpha  occ. eigenvalues --   -2.91447  -2.91427  -2.91425  -2.91377  -2.91377
 Alpha  occ. eigenvalues --   -1.23925  -0.90397  -0.72690  -0.55196  -0.44636
 Alpha  occ. eigenvalues --   -0.43743  -0.31408  -0.28743  -0.18239  -0.17280
 Alpha  occ. eigenvalues --   -0.17273
 Alpha virt. eigenvalues --    0.15548   0.17917   0.21604   0.22765   0.24153
 Alpha virt. eigenvalues --    0.24697   0.25038   0.28021   0.30192   0.31494
 Alpha virt. eigenvalues --    0.32220   0.32551   0.35772   0.43289   0.43640
 Alpha virt. eigenvalues --    0.47056   0.48153   0.48676   0.50672   0.54171
 Alpha virt. eigenvalues --    0.54219   0.56721   0.59129   0.59941   0.60685
 Alpha virt. eigenvalues --    0.60719   0.65156   0.70561   0.73866   0.74710
 Alpha virt. eigenvalues --    0.75401   0.77441   0.78688   0.85141   0.88647
 Alpha virt. eigenvalues --    0.89292   0.91903   0.94258   0.99663   1.00460
 Alpha virt. eigenvalues --    1.00605   1.00820   1.02217   1.03525   1.06833
 Alpha virt. eigenvalues --    1.07244   1.09075   1.10221   1.11256   1.12708
 Alpha virt. eigenvalues --    1.14553   1.17831   1.18430   1.20212   1.21478
 Alpha virt. eigenvalues --    1.23272   1.27550   1.29057   1.32873   1.33353
 Alpha virt. eigenvalues --    1.37041   1.38289   1.46664   1.50507   1.52247
 Alpha virt. eigenvalues --    1.56147   1.57938   1.63114   1.65831   1.69556
 Alpha virt. eigenvalues --    1.70508   1.75459   1.78878   1.81289   1.90167
 Alpha virt. eigenvalues --    1.96673   2.14368   2.37128   2.40706   2.41972
 Alpha virt. eigenvalues --    2.42827   2.47215   2.50024   2.50550   2.52795
 Alpha virt. eigenvalues --    2.53515   2.55102   2.55442   2.55566   2.56939
 Alpha virt. eigenvalues --    2.57072   2.60592   2.63586   2.65369   2.65801
 Alpha virt. eigenvalues --    2.67836   2.68010   2.70331   2.71545   2.72848
 Alpha virt. eigenvalues --    2.73554   2.75602   2.78236   2.79934   2.80258
 Alpha virt. eigenvalues --    2.87556   3.01655   3.06630   3.08905   3.16104
 Alpha virt. eigenvalues --    3.19027   3.21259   3.24809   3.27806   3.30802
 Alpha virt. eigenvalues --    3.32762   3.51639   3.53450   3.56617   3.95250
 Alpha virt. eigenvalues --    4.19921   4.34049   4.45995   4.57574   4.60220
 Alpha virt. eigenvalues --    4.78177   4.95521   5.03311   5.25214   5.45022
 Alpha virt. eigenvalues --    5.50363   5.73641   6.39207   6.56863   6.85129
 Alpha virt. eigenvalues --    6.90350   6.90876   6.99486   7.32847   7.37219
 Alpha virt. eigenvalues --    7.42361   7.45422   7.53733   7.80309   7.82180
 Alpha virt. eigenvalues --    8.41671  15.53564
          Condensed to atoms (all electrons):
               1          2          3          4
     1  O    8.629321  -0.101121  -0.085559   0.021838
     2  Cl  -0.101121  17.047166   0.002078  -0.005091
     3  Br  -0.085559   0.002078  35.907382   0.048604
     4  H    0.021838  -0.005091   0.048604   0.654634
 Mulliken charges:
               1
     1  O   -0.464479
     2  Cl   0.056968
     3  Br  -0.872505
     4  H    0.280015
 Sum of Mulliken charges =  -1.00000
 Mulliken charges with hydrogens summed into heavy atoms:
               1
     1  O   -0.184464
     2  Cl   0.056968
     3  Br  -0.872505
 Electronic spatial extent (au):  <R**2>=            813.8596
 Charge=             -1.0000 electrons
 Dipole moment (field-independent basis, Debye):
    X=              2.9143    Y=              1.5029    Z=              0.0000  Tot=              3.2790
 Quadrupole moment (field-independent basis, Debye-Ang):
   XX=            -50.0945   YY=            -50.9702   ZZ=            -43.2179
   XY=             -7.3917   XZ=              0.0000   YZ=              0.0000
 Traceless Quadrupole moment (field-independent basis, Debye-Ang):
   XX=             -2.0003   YY=             -2.8760   ZZ=              4.8763
   XY=             -7.3917   XZ=              0.0000   YZ=              0.0000
 Octapole moment (field-independent basis, Debye-Ang**2):
  XXX=             -8.0034  YYY=            -16.2399  ZZZ=              0.0000  XYY=             -6.3597
  XXY=             -3.2287  XXZ=              0.0000  XZZ=             -5.3495  YZZ=             -3.6927
  YYZ=              0.0000  XYZ=              0.0000
 Hexadecapole moment (field-independent basis, Debye-Ang**3):
 XXXX=           -601.0920 YYYY=           -393.0206 ZZZZ=            -62.2854 XXXY=           -194.9377
 XXXZ=              0.0000 YYYX=           -190.8163 YYYZ=              0.0000 ZZZX=              0.0000
 ZZZY=              0.0000 XXYY=           -175.2607 XXZZ=           -114.5476 YYZZ=            -74.0093
 XXYZ=              0.0000 YYXZ=              0.0000 ZZXY=            -61.1881
 N-N= 1.897007536294D+02 E-N=-7.820526660260D+03  KE= 3.107400448088D+03
 Symmetry A'   KE= 2.681355786925D+03
 Symmetry A"   KE= 4.260446611629D+02
 No NMR shielding tensors so no spin-rotation constants.
 Leave Link  601 at Fri Nov  5 16:03:02 2021, MaxMem= 16106127360 cpu:               4.0 elap:               0.2
 (Enter /sw/contrib/gaussian/g16/B01/g16/l9999.exe)
 1\1\GINC-N2181\POpt\RMP2-FC\Aug-CC-pVTZ\Br1Cl1H1O1(1-)\CGAVINH\05-Nov-
 2021\1\\#p opt=(z-matrix) mp2/aug-cc-pvtz density=current\\title\\-1,1
 \O\X,1,10.\Cl,1,r1,2,90.\Br,1,r2,2,90.,3,a1,0\H,1,r3,2,OOP,3,a1,0\\r2=
 3.09318778\r1=1.69700154\r3=0.96862334\a1=102.48429983\OOP=90.\\Versio
 n=ES64L-G16RevB.01\State=1-A'\HF=-3107.4795379\MP2=-3108.1812094\RMSD=
 5.838e-09\RMSF=1.427e-02\Dipole=1.1465638,0.591283,0.\Quadrupole=-1.48
 71947,-2.1382205,3.6254153,-5.4955303,0.,0.\PG=CS [SG(Br1Cl1H1O1)]\\@


 WHEN HAVING A MEETING OF THE MINDS,
 MAKE SURE YOU HAVE THE EQUIPMENT FOR IT.
 Job cpu time:       0 days  0 hours 33 minutes 43.7 seconds.
 Elapsed time:       0 days  0 hours  1 minutes 19.6 seconds.
 File lengths (MBytes):  RWF=     20 Int=      0 D2E=      0 Chk=      8 Scr=      1
 Normal termination of Gaussian 16 at Fri Nov  5 16:03:02 2021.
