 Entering Gaussian System, Link 0=g16
 Input=clhocl_75_opt.gjf
 Output=clhocl_75_opt.log
 Initial command:
 /sw/contrib/gaussian/g16/B01/g16/l1.exe "/scr/Gau-3656.inp" -scrdir="/scr/"
 Entering Link 1 = /sw/contrib/gaussian/g16/B01/g16/l1.exe PID=      3657.
  
 Copyright (c) 1988-2017, Gaussian, Inc.  All Rights Reserved.
  
 This is part of the Gaussian(R) 16 program.  It is based on
 the Gaussian(R) 09 system (copyright 2009, Gaussian, Inc.),
 the Gaussian(R) 03 system (copyright 2003, Gaussian, Inc.),
 the Gaussian(R) 98 system (copyright 1998, Gaussian, Inc.),
 the Gaussian(R) 94 system (copyright 1995, Gaussian, Inc.),
 the Gaussian 92(TM) system (copyright 1992, Gaussian, Inc.),
 the Gaussian 90(TM) system (copyright 1990, Gaussian, Inc.),
 the Gaussian 88(TM) system (copyright 1988, Gaussian, Inc.),
 the Gaussian 86(TM) system (copyright 1986, Carnegie Mellon
 University), and the Gaussian 82(TM) system (copyright 1983,
 Carnegie Mellon University). Gaussian is a federally registered
 trademark of Gaussian, Inc.
  
 This software contains proprietary and confidential information,
 including trade secrets, belonging to Gaussian, Inc.
  
 This software is provided under written license and may be
 used, copied, transmitted, or stored only in accord with that
 written license.
  
 The following legend is applicable only to US Government
 contracts under FAR:
  
                    RESTRICTED RIGHTS LEGEND
  
 Use, reproduction and disclosure by the US Government is
 subject to restrictions as set forth in subparagraphs (a)
 and (c) of the Commercial Computer Software - Restricted
 Rights clause in FAR 52.227-19.
  
 Gaussian, Inc.
 340 Quinnipiac St., Bldg. 40, Wallingford CT 06492
  
  
 ---------------------------------------------------------------
 Warning -- This program may not be used in any manner that
 competes with the business of Gaussian, Inc. or will provide
 assistance to any competitor of Gaussian, Inc.  The licensee
 of this program is prohibited from giving any competitor of
 Gaussian, Inc. access to this program.  By using this program,
 the user acknowledges that Gaussian, Inc. is engaged in the
 business of creating and licensing software in the field of
 computational chemistry and represents and warrants to the
 licensee that it is not a competitor of Gaussian, Inc. and that
 it will not use this program in any manner prohibited above.
 ---------------------------------------------------------------
  

 Cite this work as:
 Gaussian 16, Revision B.01,
 M. J. Frisch, G. W. Trucks, H. B. Schlegel, G. E. Scuseria, 
 M. A. Robb, J. R. Cheeseman, G. Scalmani, V. Barone, 
 G. A. Petersson, H. Nakatsuji, X. Li, M. Caricato, A. V. Marenich, 
 J. Bloino, B. G. Janesko, R. Gomperts, B. Mennucci, H. P. Hratchian, 
 J. V. Ortiz, A. F. Izmaylov, J. L. Sonnenberg, D. Williams-Young, 
 F. Ding, F. Lipparini, F. Egidi, J. Goings, B. Peng, A. Petrone, 
 T. Henderson, D. Ranasinghe, V. G. Zakrzewski, J. Gao, N. Rega, 
 G. Zheng, W. Liang, M. Hada, M. Ehara, K. Toyota, R. Fukuda, 
 J. Hasegawa, M. Ishida, T. Nakajima, Y. Honda, O. Kitao, H. Nakai, 
 T. Vreven, K. Throssell, J. A. Montgomery, Jr., J. E. Peralta, 
 F. Ogliaro, M. J. Bearpark, J. J. Heyd, E. N. Brothers, K. N. Kudin, 
 V. N. Staroverov, T. A. Keith, R. Kobayashi, J. Normand, 
 K. Raghavachari, A. P. Rendell, J. C. Burant, S. S. Iyengar, 
 J. Tomasi, M. Cossi, J. M. Millam, M. Klene, C. Adamo, R. Cammi, 
 J. W. Ochterski, R. L. Martin, K. Morokuma, O. Farkas, 
 J. B. Foresman, and D. J. Fox, Gaussian, Inc., Wallingford CT, 2016.
 
 ******************************************
 Gaussian 16:  ES64L-G16RevB.01 20-Dec-2017
                16-Sep-2021 
 ******************************************
 %nproc=28
 Will use up to   28 processors via shared memory.
 %mem=120GB
 %chk=/gscratch/ilahie/mccoygrp/coire_hocl/clhocl/clhocl_75_opt.chk
 -------------------------------------------------
 #p opt=(z-matrix) mp2/aug-cc-pvtz density=current
 -------------------------------------------------
 1/10=7,18=40,38=1/1,3;
 2/12=2,17=6,18=5,29=3,40=1/2;
 3/5=16,6=1,7=10,11=9,25=1,30=1,71=1/1,2,3;
 4//1;
 5/5=2,38=5/2;
 8/6=4,10=1/1;
 9/15=2,16=-3/6;
 10/5=1/2;
 6/7=2,8=2,9=2,10=2,22=-1/1;
 7/12=2,29=1/1,2,3,16;
 1/10=7,18=40/3(2);
 2/29=3/2;
 99//99;
 2/29=3/2;
 3/5=16,6=1,7=10,11=9,25=1,30=1,71=1/1,2,3;
 4/5=5,16=3,69=1/1;
 5/5=2,38=5/2;
 8/6=4,10=1/1;
 9/15=2,16=-3/6;
 10/5=1/2;
 7/12=2/1,2,3,16;
 1/18=40/3(-8);
 2/29=3/2;
 6/7=2,8=2,9=2,10=2,22=-1/1;
 99/9=10/99;
 Leave Link    1 at Thu Sep 16 14:57:23 2021, MaxMem= 16106127360 cpu:               2.4 elap:               0.1
 (Enter /sw/contrib/gaussian/g16/B01/g16/l101.exe)
 -----
 title
 -----
 Symbolic Z-matrix:
 Charge = -1 Multiplicity = 1
 O
 X                    1     10. 
 Cl                   1    r1       2     90. 
 Cl                   1    r2       2     90.      3    a1       0
 H                    1    r3       2    oop      3    a1       0
       Variables:
  r1                    1.68275 -1        0.     
  r2                    2.90468 -1        0.     
  r3                    1.02843                  
  a1                  103.53016 -1        0.     
  OOP                  15.      -1        0.     
 
 ITRead=  0  0  0  0
 MicOpt= -1 -1 -1 -1
 NAtoms=      4 NQM=        4 NQMF=       0 NMMI=      0 NMMIF=      0
                NMic=       0 NMicF=      0.
                    Isotopes and Nuclear Properties:
 (Nuclear quadrupole moments (NQMom) in fm**2, nuclear magnetic moments (NMagM)
  in nuclear magnetons)

  Atom         1           2           3           4
 IAtWgt=          16          35          35           1
 AtmWgt=  15.9949146  34.9688527  34.9688527   1.0078250
 NucSpn=           0           3           3           1
 AtZEff=  -0.0000000  -0.0000000  -0.0000000  -0.0000000
 NQMom=    0.0000000  -8.1650000  -8.1650000   0.0000000
 NMagM=    0.0000000   0.8218740   0.8218740   2.7928460
 AtZNuc=   8.0000000  17.0000000  17.0000000   1.0000000
 Leave Link  101 at Thu Sep 16 14:57:23 2021, MaxMem= 16106127360 cpu:               2.6 elap:               0.1
 (Enter /sw/contrib/gaussian/g16/B01/g16/l103.exe)

 GradGradGradGradGradGradGradGradGradGradGradGradGradGradGradGradGradGrad
 Berny optimization.
 Initialization pass.
                       ----------------------------
                       !    Initial Parameters    !
                       ! (Angstroms and Degrees)  !
 ----------------------                            ----------------------
 !      Name          Value   Derivative information (Atomic Units)     !
 ------------------------------------------------------------------------
 !       r1          1.6827   Frozen                                    !
 !       r2          2.9047   Frozen                                    !
 !       r3          1.0284   estimate D2E/DX2                          !
 !       a1        103.5302   Frozen                                    !
 !       OOP        15.0      Frozen                                    !
 ------------------------------------------------------------------------
 Trust Radius=3.00D-01 FncErr=1.00D-07 GrdErr=1.00D-07 EigMax=2.50D+02 EigMin=1.00D-04
 Number of steps in this run=     20 maximum allowed number of steps=    100.
 GradGradGradGradGradGradGradGradGradGradGradGradGradGradGradGradGradGrad

 Leave Link  103 at Thu Sep 16 14:57:23 2021, MaxMem= 16106127360 cpu:               1.2 elap:               0.1
 (Enter /sw/contrib/gaussian/g16/B01/g16/l202.exe)
 ---------------------------------------------------------------------------------------------------
                            Z-MATRIX (ANGSTROMS AND DEGREES)
   CD    Cent   Atom    N1       Length/X        N2       Alpha/Y        N3        Beta/Z          J
 ---------------------------------------------------------------------------------------------------
      1      1  O 
      2         X        1  10.000000(     1)
      3      2  Cl       1   1.682749(     2)      2   90.000(     5)
      4      3  Cl       1   2.904676(     3)      2   90.000(     6)      3  103.530(     8)      0
      5      4  H        1   1.028426(     4)      2   15.000(     7)      3  103.530(     9)      0
 ---------------------------------------------------------------------------------------------------
                         Z-Matrix orientation:                         
 ---------------------------------------------------------------------
 Center     Atomic      Atomic             Coordinates (Angstroms)
 Number     Number       Type             X           Y           Z
 ---------------------------------------------------------------------
      1          8           0        0.000000    0.000000    0.000000
      2         -1           0        0.000000    0.000000   10.000000
      3         17           0        1.682749    0.000000    0.000000
      4         17           0       -0.679570   -2.824062    0.000000
      5          1           0       -0.062274   -0.258789    0.993383
 ---------------------------------------------------------------------
                    Distance matrix (angstroms):
                    1          2          3          4          5
     1  O    0.000000
     2  X   10.000000   0.000000
     3  Cl   1.682749  10.140594   0.000000
     4  Cl   2.904676  10.413316   3.681831   0.000000
     5  H    1.028426   9.010549   2.024571   2.819307   0.000000
 Stoichiometry    Cl2HO(1-)
 Framework group  C1[X(Cl2HO)]
 Deg. of freedom     6
 Full point group                 C1      NOp   1
 Largest Abelian subgroup         C1      NOp   1
 Largest concise Abelian subgroup C1      NOp   1
                         Standard orientation:                         
 ---------------------------------------------------------------------
 Center     Atomic      Atomic             Coordinates (Angstroms)
 Number     Number       Type             X           Y           Z
 ---------------------------------------------------------------------
      1          8           0        0.669691    0.977990   -0.108434
      2         17           0        1.667198   -0.372689    0.002441
      3         17           0       -2.007516   -0.143956   -0.003824
      4          1           0        0.427892    0.959041    0.890982
 ---------------------------------------------------------------------
 Rotational constants (GHZ):          22.2050619           2.0508492           1.8907026
 Leave Link  202 at Thu Sep 16 14:57:23 2021, MaxMem= 16106127360 cpu:               0.4 elap:               0.0
 (Enter /sw/contrib/gaussian/g16/B01/g16/l301.exe)
 Standard basis: Aug-CC-pVTZ (5D, 7F)
 Ernie: Thresh=  0.10000D-02 Tol=  0.10000D-05 Strict=F.
 Ernie:  29 primitive shells out of 169 were deleted.
 There are   198 symmetry adapted cartesian basis functions of A   symmetry.
 There are   169 symmetry adapted basis functions of A   symmetry.
   169 basis functions,   327 primitive gaussians,   198 cartesian basis functions
    22 alpha electrons       22 beta electrons
       nuclear repulsion energy       120.8324800097 Hartrees.
 IExCor=    0 DFT=F Ex=HF Corr=None ExCW=0 ScaHFX=  1.000000
 ScaDFX=  1.000000  1.000000  1.000000  1.000000 ScalE2=  1.000000  1.000000
 IRadAn=      5 IRanWt=     -1 IRanGd=            0 ICorTp=0 IEmpDi=  4
 NAtoms=    4 NActive=    4 NUniq=    4 SFac= 1.00D+00 NAtFMM=   60 NAOKFM=F Big=F
 Integral buffers will be    131072 words long.
 Raffenetti 1 integral format.
 Two-electron integral symmetry is turned on.
 Leave Link  301 at Thu Sep 16 14:57:23 2021, MaxMem= 16106127360 cpu:               1.3 elap:               0.1
 (Enter /sw/contrib/gaussian/g16/B01/g16/l302.exe)
 NPDir=0 NMtPBC=     1 NCelOv=     1 NCel=       1 NClECP=     1 NCelD=      1
         NCelK=      1 NCelE2=     1 NClLst=     1 CellRange=     0.0.
 One-electron integrals computed using PRISM.
 One-electron integral symmetry used in STVInt
 NBasis=   169 RedAO= T EigKep=  3.51D-04  NBF=   169
 NBsUse=   169 1.00D-06 EigRej= -1.00D+00 NBFU=   169
 Leave Link  302 at Thu Sep 16 14:57:23 2021, MaxMem= 16106127360 cpu:               4.4 elap:               0.2
 (Enter /sw/contrib/gaussian/g16/B01/g16/l303.exe)
 DipDrv:  MaxL=1.
 Leave Link  303 at Thu Sep 16 14:57:24 2021, MaxMem= 16106127360 cpu:               1.5 elap:               0.1
 (Enter /sw/contrib/gaussian/g16/B01/g16/l401.exe)
 ExpMin= 2.53D-02 ExpMax= 4.56D+05 ExpMxC= 1.44D+03 IAcc=3 IRadAn=         5 AccDes= 0.00D+00
 Harris functional with IExCor=  205 and IRadAn=       5 diagonalized for initial guess.
 HarFok:  IExCor=  205 AccDes= 0.00D+00 IRadAn=         5 IDoV= 1 UseB2=F ITyADJ=14
 ICtDFT=  3500011 ScaDFX=  1.000000  1.000000  1.000000  1.000000
 FoFCou: FMM=F IPFlag=           0 FMFlag=      100000 FMFlg1=           0
         NFxFlg=           0 DoJE=T BraDBF=F KetDBF=T FulRan=T
         wScrn=  0.000000 ICntrl=       500 IOpCl=  0 I1Cent=   200000004 NGrid=           0
         NMat0=    1 NMatS0=      1 NMatT0=    0 NMatD0=    1 NMtDS0=    0 NMtDT0=    0
 Petite list used in FoFCou.
 Harris En= -993.797955917328    
 JPrj=0 DoOrth=F DoCkMO=F.
 Leave Link  401 at Thu Sep 16 14:57:24 2021, MaxMem= 16106127360 cpu:               8.8 elap:               0.4
 (Enter /sw/contrib/gaussian/g16/B01/g16/l502.exe)
 Keep R1 ints in memory in canonical form, NReq=117118099.
 FoFCou: FMM=F IPFlag=           0 FMFlag=           0 FMFlg1=           0
         NFxFlg=           0 DoJE=F BraDBF=F KetDBF=F FulRan=T
         wScrn=  0.000000 ICntrl=       600 IOpCl=  0 I1Cent=           0 NGrid=           0
         NMat0=    1 NMatS0=  14365 NMatT0=    0 NMatD0=    1 NMtDS0=    0 NMtDT0=    0
 Symmetry not used in FoFCou.
 Two-electron integral symmetry not used.
 Closed shell SCF:
 Using DIIS extrapolation, IDIIS=  1040.
 NGot= 16106127360 LenX= 16002857927 LenY= 16002818282
 Requested convergence on RMS density matrix=1.00D-08 within 128 cycles.
 Requested convergence on MAX density matrix=1.00D-06.
 Requested convergence on             energy=1.00D-06.
 No special actions if energy rises.

 Cycle   1  Pass 1  IDiag  1:
 E= -994.346989788287    
 DIIS: error= 2.95D-02 at cycle   1 NSaved=   1.
 NSaved= 1 IEnMin= 1 EnMin= -994.346989788287     IErMin= 1 ErrMin= 2.95D-02
 ErrMax= 2.95D-02  0.00D+00 EMaxC= 1.00D-01 BMatC= 4.18D-01 BMatP= 4.18D-01
 IDIUse=3 WtCom= 7.05D-01 WtEn= 2.95D-01
 Coeff-Com:  0.100D+01
 Coeff-En:   0.100D+01
 Coeff:      0.100D+01
 Gap=     0.516 Goal=   None    Shift=    0.000
 GapD=    0.516 DampG=2.000 DampE=0.500 DampFc=1.0000 IDamp=-1.
 RMSDP=2.16D-03 MaxDP=7.09D-02              OVMax= 1.25D-01

 Cycle   2  Pass 1  IDiag  1:
 E= -994.448080031731     Delta-E=       -0.101090243443 Rises=F Damp=F
 DIIS: error= 1.22D-02 at cycle   2 NSaved=   2.
 NSaved= 2 IEnMin= 2 EnMin= -994.448080031731     IErMin= 2 ErrMin= 1.22D-02
 ErrMax= 1.22D-02  0.00D+00 EMaxC= 1.00D-01 BMatC= 4.85D-02 BMatP= 4.18D-01
 IDIUse=3 WtCom= 8.78D-01 WtEn= 1.22D-01
 Coeff-Com:  0.165D+00 0.835D+00
 Coeff-En:   0.000D+00 0.100D+01
 Coeff:      0.145D+00 0.855D+00
 Gap=     0.317 Goal=   None    Shift=    0.000
 RMSDP=1.02D-03 MaxDP=4.09D-02 DE=-1.01D-01 OVMax= 7.72D-02

 Cycle   3  Pass 1  IDiag  1:
 E= -994.473690660025     Delta-E=       -0.025610628295 Rises=F Damp=F
 DIIS: error= 6.08D-03 at cycle   3 NSaved=   3.
 NSaved= 3 IEnMin= 3 EnMin= -994.473690660025     IErMin= 3 ErrMin= 6.08D-03
 ErrMax= 6.08D-03  0.00D+00 EMaxC= 1.00D-01 BMatC= 1.33D-02 BMatP= 4.85D-02
 IDIUse=3 WtCom= 9.39D-01 WtEn= 6.08D-02
 Coeff-Com: -0.137D-01 0.334D+00 0.680D+00
 Coeff-En:   0.000D+00 0.107D+00 0.893D+00
 Coeff:     -0.129D-01 0.320D+00 0.693D+00
 Gap=     0.303 Goal=   None    Shift=    0.000
 RMSDP=3.56D-04 MaxDP=1.44D-02 DE=-2.56D-02 OVMax= 3.46D-02

 Cycle   4  Pass 1  IDiag  1:
 E= -994.482876785701     Delta-E=       -0.009186125676 Rises=F Damp=F
 DIIS: error= 9.58D-04 at cycle   4 NSaved=   4.
 NSaved= 4 IEnMin= 4 EnMin= -994.482876785701     IErMin= 4 ErrMin= 9.58D-04
 ErrMax= 9.58D-04  0.00D+00 EMaxC= 1.00D-01 BMatC= 1.89D-04 BMatP= 1.33D-02
 IDIUse=3 WtCom= 9.90D-01 WtEn= 9.58D-03
 Coeff-Com: -0.485D-02 0.422D-01 0.145D+00 0.818D+00
 Coeff-En:   0.000D+00 0.000D+00 0.000D+00 0.100D+01
 Coeff:     -0.481D-02 0.418D-01 0.143D+00 0.820D+00
 Gap=     0.296 Goal=   None    Shift=    0.000
 RMSDP=5.53D-05 MaxDP=1.25D-03 DE=-9.19D-03 OVMax= 3.15D-03

 Cycle   5  Pass 1  IDiag  1:
 E= -994.483054710916     Delta-E=       -0.000177925215 Rises=F Damp=F
 DIIS: error= 2.44D-04 at cycle   5 NSaved=   5.
 NSaved= 5 IEnMin= 5 EnMin= -994.483054710916     IErMin= 5 ErrMin= 2.44D-04
 ErrMax= 2.44D-04  0.00D+00 EMaxC= 1.00D-01 BMatC= 1.42D-05 BMatP= 1.89D-04
 IDIUse=3 WtCom= 9.98D-01 WtEn= 2.44D-03
 Coeff-Com:  0.706D-03-0.368D-01-0.695D-01-0.247D-01 0.113D+01
 Coeff-En:   0.000D+00 0.000D+00 0.000D+00 0.000D+00 0.100D+01
 Coeff:      0.704D-03-0.367D-01-0.693D-01-0.246D-01 0.113D+01
 Gap=     0.298 Goal=   None    Shift=    0.000
 RMSDP=3.19D-05 MaxDP=7.25D-04 DE=-1.78D-04 OVMax= 2.91D-03

 Cycle   6  Pass 1  IDiag  1:
 E= -994.483089509541     Delta-E=       -0.000034798626 Rises=F Damp=F
 DIIS: error= 1.01D-04 at cycle   6 NSaved=   6.
 NSaved= 6 IEnMin= 6 EnMin= -994.483089509541     IErMin= 6 ErrMin= 1.01D-04
 ErrMax= 1.01D-04  0.00D+00 EMaxC= 1.00D-01 BMatC= 1.60D-06 BMatP= 1.42D-05
 IDIUse=3 WtCom= 9.99D-01 WtEn= 1.01D-03
 Coeff-Com:  0.358D-03 0.551D-02 0.114D-01-0.555D-01-0.345D+00 0.138D+01
 Coeff-En:   0.000D+00 0.000D+00 0.000D+00 0.000D+00 0.000D+00 0.100D+01
 Coeff:      0.357D-03 0.551D-02 0.113D-01-0.555D-01-0.345D+00 0.138D+01
 Gap=     0.298 Goal=   None    Shift=    0.000
 RMSDP=1.37D-05 MaxDP=3.53D-04 DE=-3.48D-05 OVMax= 1.27D-03

 Cycle   7  Pass 1  IDiag  1:
 E= -994.483094585071     Delta-E=       -0.000005075530 Rises=F Damp=F
 DIIS: error= 1.93D-05 at cycle   7 NSaved=   7.
 NSaved= 7 IEnMin= 7 EnMin= -994.483094585071     IErMin= 7 ErrMin= 1.93D-05
 ErrMax= 1.93D-05  0.00D+00 EMaxC= 1.00D-01 BMatC= 1.02D-07 BMatP= 1.60D-06
 IDIUse=1 WtCom= 1.00D+00 WtEn= 0.00D+00
 Coeff-Com: -0.181D-03 0.786D-03 0.190D-02 0.169D-01 0.300D-01-0.446D+00
 Coeff-Com:  0.140D+01
 Coeff:     -0.181D-03 0.786D-03 0.190D-02 0.169D-01 0.300D-01-0.446D+00
 Coeff:      0.140D+01
 Gap=     0.298 Goal=   None    Shift=    0.000
 RMSDP=4.07D-06 MaxDP=1.03D-04 DE=-5.08D-06 OVMax= 4.23D-04

 Cycle   8  Pass 1  IDiag  1:
 E= -994.483094997016     Delta-E=       -0.000000411945 Rises=F Damp=F
 DIIS: error= 5.91D-06 at cycle   8 NSaved=   8.
 NSaved= 8 IEnMin= 8 EnMin= -994.483094997016     IErMin= 8 ErrMin= 5.91D-06
 ErrMax= 5.91D-06  0.00D+00 EMaxC= 1.00D-01 BMatC= 8.38D-09 BMatP= 1.02D-07
 IDIUse=1 WtCom= 1.00D+00 WtEn= 0.00D+00
 Coeff-Com: -0.196D-04-0.770D-03-0.141D-02 0.502D-02 0.391D-01-0.142D+00
 Coeff-Com:  0.240D-01 0.108D+01
 Coeff:     -0.196D-04-0.770D-03-0.141D-02 0.502D-02 0.391D-01-0.142D+00
 Coeff:      0.240D-01 0.108D+01
 Gap=     0.298 Goal=   None    Shift=    0.000
 RMSDP=9.19D-07 MaxDP=1.92D-05 DE=-4.12D-07 OVMax= 8.83D-05

 Cycle   9  Pass 1  IDiag  1:
 E= -994.483095021921     Delta-E=       -0.000000024905 Rises=F Damp=F
 DIIS: error= 1.83D-06 at cycle   9 NSaved=   9.
 NSaved= 9 IEnMin= 9 EnMin= -994.483095021921     IErMin= 9 ErrMin= 1.83D-06
 ErrMax= 1.83D-06  0.00D+00 EMaxC= 1.00D-01 BMatC= 8.38D-10 BMatP= 8.38D-09
 IDIUse=1 WtCom= 1.00D+00 WtEn= 0.00D+00
 Coeff-Com:  0.186D-04 0.680D-04 0.197D-03-0.245D-02-0.118D-01 0.720D-01
 Coeff-Com: -0.140D+00-0.194D+00 0.128D+01
 Coeff:      0.186D-04 0.680D-04 0.197D-03-0.245D-02-0.118D-01 0.720D-01
 Coeff:     -0.140D+00-0.194D+00 0.128D+01
 Gap=     0.298 Goal=   None    Shift=    0.000
 RMSDP=3.57D-07 MaxDP=6.45D-06 DE=-2.49D-08 OVMax= 3.35D-05

 Cycle  10  Pass 1  IDiag  1:
 E= -994.483095024958     Delta-E=       -0.000000003037 Rises=F Damp=F
 DIIS: error= 5.77D-07 at cycle  10 NSaved=  10.
 NSaved=10 IEnMin=10 EnMin= -994.483095024958     IErMin=10 ErrMin= 5.77D-07
 ErrMax= 5.77D-07  0.00D+00 EMaxC= 1.00D-01 BMatC= 8.64D-11 BMatP= 8.38D-10
 IDIUse=1 WtCom= 1.00D+00 WtEn= 0.00D+00
 Coeff-Com:  0.784D-06 0.495D-04 0.589D-04-0.139D-03-0.150D-02 0.274D-02
 Coeff-Com:  0.148D-01-0.632D-01-0.195D+00 0.124D+01
 Coeff:      0.784D-06 0.495D-04 0.589D-04-0.139D-03-0.150D-02 0.274D-02
 Coeff:      0.148D-01-0.632D-01-0.195D+00 0.124D+01
 Gap=     0.298 Goal=   None    Shift=    0.000
 RMSDP=1.31D-07 MaxDP=2.36D-06 DE=-3.04D-09 OVMax= 1.39D-05

 Cycle  11  Pass 1  IDiag  1:
 E= -994.483095025333     Delta-E=       -0.000000000375 Rises=F Damp=F
 DIIS: error= 2.89D-07 at cycle  11 NSaved=  11.
 NSaved=11 IEnMin=11 EnMin= -994.483095025333     IErMin=11 ErrMin= 2.89D-07
 ErrMax= 2.89D-07  0.00D+00 EMaxC= 1.00D-01 BMatC= 1.28D-11 BMatP= 8.64D-11
 IDIUse=1 WtCom= 1.00D+00 WtEn= 0.00D+00
 Coeff-Com: -0.283D-05-0.133D-04-0.286D-04 0.338D-03 0.168D-02-0.928D-02
 Coeff-Com:  0.150D-01 0.358D-01-0.121D+00-0.273D+00 0.135D+01
 Coeff:     -0.283D-05-0.133D-04-0.286D-04 0.338D-03 0.168D-02-0.928D-02
 Coeff:      0.150D-01 0.358D-01-0.121D+00-0.273D+00 0.135D+01
 Gap=     0.298 Goal=   None    Shift=    0.000
 RMSDP=6.05D-08 MaxDP=1.22D-06 DE=-3.75D-10 OVMax= 7.03D-06

 Cycle  12  Pass 1  IDiag  1:
 E= -994.483095025396     Delta-E=       -0.000000000063 Rises=F Damp=F
 DIIS: error= 1.02D-07 at cycle  12 NSaved=  12.
 NSaved=12 IEnMin=12 EnMin= -994.483095025396     IErMin=12 ErrMin= 1.02D-07
 ErrMax= 1.02D-07  0.00D+00 EMaxC= 1.00D-01 BMatC= 1.55D-12 BMatP= 1.28D-11
 IDIUse=1 WtCom= 1.00D+00 WtEn= 0.00D+00
 Coeff-Com:  0.504D-06-0.404D-05-0.182D-05-0.552D-04-0.168D-03 0.155D-02
 Coeff-Com: -0.489D-02 0.485D-04 0.476D-01-0.101D+00-0.264D+00 0.132D+01
 Coeff:      0.504D-06-0.404D-05-0.182D-05-0.552D-04-0.168D-03 0.155D-02
 Coeff:     -0.489D-02 0.485D-04 0.476D-01-0.101D+00-0.264D+00 0.132D+01
 Gap=     0.298 Goal=   None    Shift=    0.000
 RMSDP=2.30D-08 MaxDP=4.75D-07 DE=-6.30D-11 OVMax= 2.65D-06

 Cycle  13  Pass 1  IDiag  1:
 E= -994.483095025405     Delta-E=       -0.000000000009 Rises=F Damp=F
 DIIS: error= 2.84D-08 at cycle  13 NSaved=  13.
 NSaved=13 IEnMin=13 EnMin= -994.483095025405     IErMin=13 ErrMin= 2.84D-08
 ErrMax= 2.84D-08  0.00D+00 EMaxC= 1.00D-01 BMatC= 1.79D-13 BMatP= 1.55D-12
 IDIUse=1 WtCom= 1.00D+00 WtEn= 0.00D+00
 Coeff-Com:  0.235D-06 0.215D-05 0.254D-05-0.272D-04-0.146D-03 0.717D-03
 Coeff-Com: -0.600D-03-0.426D-02 0.251D-02 0.668D-01-0.129D+00-0.280D+00
 Coeff-Com:  0.134D+01
 Coeff:      0.235D-06 0.215D-05 0.254D-05-0.272D-04-0.146D-03 0.717D-03
 Coeff:     -0.600D-03-0.426D-02 0.251D-02 0.668D-01-0.129D+00-0.280D+00
 Coeff:      0.134D+01
 Gap=     0.298 Goal=   None    Shift=    0.000
 RMSDP=7.87D-09 MaxDP=1.44D-07 DE=-9.09D-12 OVMax= 7.75D-07

 SCF Done:  E(RHF) =  -994.483095025     A.U. after   13 cycles
            NFock= 13  Conv=0.79D-08     -V/T= 2.0002
 KE= 9.943133339649D+02 PE=-2.619415078889D+03 EE= 5.097861698890D+02
 Leave Link  502 at Thu Sep 16 14:57:27 2021, MaxMem= 16106127360 cpu:              26.7 elap:               3.3
 (Enter /sw/contrib/gaussian/g16/B01/g16/l801.exe)
 ExpMin= 2.53D-02 ExpMax= 4.56D+05 ExpMxC= 1.44D+03 IAcc=3 IRadAn=         5 AccDes= 0.00D+00
 HarFok:  IExCor=  205 AccDes= 0.00D+00 IRadAn=         5 IDoV=-2 UseB2=F ITyADJ=14
 ICtDFT= 12500011 ScaDFX=  1.000000  1.000000  1.000000  1.000000
 Largest valence mixing into a core orbital is  4.47D-04
 Largest core mixing into a valence orbital is  1.76D-04
 Range of M.O.s used for correlation:    12   169
 NBasis=   169 NAE=    22 NBE=    22 NFC=    11 NFV=     0
 NROrb=    158 NOA=    11 NOB=    11 NVA=   147 NVB=   147

 **** Warning!!: The largest alpha MO coefficient is  0.13887748D+02

 Leave Link  801 at Thu Sep 16 14:57:27 2021, MaxMem= 16106127360 cpu:               2.3 elap:               0.1
 (Enter /sw/contrib/gaussian/g16/B01/g16/l906.exe)
 Frozen-core derivative calculation, NFC=  11 NFV=   0.
 FulOut=F Deriv=T AODrv=T NAtomX=     4
   MMem=         143  MDisk=          11 MDiskD=          11
  W3Min=      736164 MinDsk=     1250177 NBas6D=         198
 NBas2D=       20187    NTT=       19701    LW2=     3500000
    MDV= 16105748906 MDiskM=      406660 NBas2p=       20117
 Fully direct method using O(ONN) memory.
 IMap=   1   2   3   4   5   6   7   8   9  10  11  12  13  14  15  16  17  18  19  20
 IMap=  21  22
 JobTyp=1 Pass  1:  I=  12 to  22 NPSUse= 28 ParTrn=T ParDer=T DoDerP=T.
 Spin components of T(2) and E(2):
     alpha-alpha T2 =       0.2938903871D-01 E2=     -0.8369939101D-01
     alpha-beta  T2 =       0.1615795529D+00 E2=     -0.4992547787D+00
     beta-beta   T2 =       0.2938903871D-01 E2=     -0.8369939101D-01
 The integrals were generated   1 times.
 ANorm=    0.1104697982D+01
 E2 =    -0.6666535608D+00 EUMP2 =    -0.99514974858617D+03
 Leave Link  906 at Thu Sep 16 14:57:38 2021, MaxMem= 16106127360 cpu:             303.7 elap:              10.9
 (Enter /sw/contrib/gaussian/g16/B01/g16/l1002.exe)
 Minotr:  Closed shell wavefunction.
          Computing MP2/KS-MP2 derivatives.
          Using Z-Vector for PSCF gradient.
          Skipping F1 and S1 gradient terms here.
          IDoAtm=1111
          Frozen-core window.
          Direct CPHF calculation.
          Differentiating once with respect to electric field.
                with respect to dipole field.
          Differentiating once with respect to nuclear coordinates.
          Requested convergence is 1.0D-10 RMS, and 1.0D-09 maximum.
          NewPWx=F KeepS1=T KeepF1=T KeepIn=T MapXYZ=F SortEE=F KeepMc=T.
 Keep R1 ints in memory in canonical form, NReq=117123051.
 FoFCou: FMM=F IPFlag=           0 FMFlag=           0 FMFlg1=           0
         NFxFlg=           0 DoJE=F BraDBF=F KetDBF=F FulRan=T
         wScrn=  0.000000 ICntrl=       600 IOpCl=  0 I1Cent=           0 NGrid=           0
         NMat0=    1 NMatS0=  14365 NMatT0=    0 NMatD0=    1 NMtDS0=    0 NMtDT0=    0
 Symmetry not used in FoFCou.
 Two-electron integral symmetry not used.
          MDV=   16106127360 using IRadAn=       5.
          Solving linear equations separately, MaxMat=       0.
          There are     1 degrees of freedom in the 1st order CPHF.  IDoFFX=0 NUNeed=     1.
 LinEq1:  Iter=  0 NonCon=     1 RMS=3.16D-03 Max=4.66D-02 NDo=     1
 AX will form     1 AO Fock derivatives at one time.
 LinEq1:  Iter=  1 NonCon=     1 RMS=4.28D-04 Max=5.22D-03 NDo=     1
 LinEq1:  Iter=  2 NonCon=     1 RMS=1.65D-04 Max=2.17D-03 NDo=     1
 LinEq1:  Iter=  3 NonCon=     1 RMS=6.72D-05 Max=1.00D-03 NDo=     1
 LinEq1:  Iter=  4 NonCon=     1 RMS=3.15D-05 Max=3.83D-04 NDo=     1
 LinEq1:  Iter=  5 NonCon=     1 RMS=9.71D-06 Max=1.48D-04 NDo=     1
 LinEq1:  Iter=  6 NonCon=     1 RMS=2.94D-06 Max=4.01D-05 NDo=     1
 LinEq1:  Iter=  7 NonCon=     1 RMS=8.53D-07 Max=8.91D-06 NDo=     1
 LinEq1:  Iter=  8 NonCon=     1 RMS=1.95D-07 Max=3.00D-06 NDo=     1
 LinEq1:  Iter=  9 NonCon=     1 RMS=5.71D-08 Max=7.37D-07 NDo=     1
 LinEq1:  Iter= 10 NonCon=     1 RMS=1.61D-08 Max=1.80D-07 NDo=     1
 LinEq1:  Iter= 11 NonCon=     1 RMS=4.07D-09 Max=4.20D-08 NDo=     1
 LinEq1:  Iter= 12 NonCon=     1 RMS=1.19D-09 Max=1.20D-08 NDo=     1
 LinEq1:  Iter= 13 NonCon=     1 RMS=3.11D-10 Max=2.61D-09 NDo=     1
 LinEq1:  Iter= 14 NonCon=     0 RMS=6.59D-11 Max=8.02D-10 NDo=     1
 Linear equations converged to 1.000D-10 1.000D-09 after    14 iterations.
 End of Minotr F.D. properties file   721 does not exist.
 End of Minotr F.D. properties file   722 does not exist.
 End of Minotr F.D. properties file   788 does not exist.
 Leave Link 1002 at Thu Sep 16 14:57:42 2021, MaxMem= 16106127360 cpu:              27.8 elap:               3.9
 (Enter /sw/contrib/gaussian/g16/B01/g16/l601.exe)
 Copying SCF densities to generalized density rwf, IOpCl= 0 IROHF=0.

 **********************************************************************

            Population analysis using the MP2 Density.

 **********************************************************************

 Orbital symmetries:
       Occupied  (A) (A) (A) (A) (A) (A) (A) (A) (A) (A) (A) (A)
                 (A) (A) (A) (A) (A) (A) (A) (A) (A) (A)
       Virtual   (A) (A) (A) (A) (A) (A) (A) (A) (A) (A) (A) (A)
                 (A) (A) (A) (A) (A) (A) (A) (A) (A) (A) (A) (A)
                 (A) (A) (A) (A) (A) (A) (A) (A) (A) (A) (A) (A)
                 (A) (A) (A) (A) (A) (A) (A) (A) (A) (A) (A) (A)
                 (A) (A) (A) (A) (A) (A) (A) (A) (A) (A) (A) (A)
                 (A) (A) (A) (A) (A) (A) (A) (A) (A) (A) (A) (A)
                 (A) (A) (A) (A) (A) (A) (A) (A) (A) (A) (A) (A)
                 (A) (A) (A) (A) (A) (A) (A) (A) (A) (A) (A) (A)
                 (A) (A) (A) (A) (A) (A) (A) (A) (A) (A) (A) (A)
                 (A) (A) (A) (A) (A) (A) (A) (A) (A) (A) (A) (A)
                 (A) (A) (A) (A) (A) (A) (A) (A) (A) (A) (A) (A)
                 (A) (A) (A) (A) (A) (A) (A) (A) (A) (A) (A) (A)
                 (A) (A) (A)
 The electronic state is 1-A.
 Alpha  occ. eigenvalues -- -104.74115-104.51015 -20.49290 -10.46113 -10.23449
 Alpha  occ. eigenvalues --   -7.92833  -7.92557  -7.92536  -7.70055  -7.70050
 Alpha  occ. eigenvalues --   -7.70047  -1.25181  -0.90328  -0.74207  -0.55251
 Alpha  occ. eigenvalues --   -0.46072  -0.45061  -0.31887  -0.29311  -0.15882
 Alpha  occ. eigenvalues --   -0.15766  -0.15465
 Alpha virt. eigenvalues --    0.14338   0.17622   0.21971   0.23259   0.26559
 Alpha virt. eigenvalues --    0.27028   0.28074   0.29323   0.29751   0.30364
 Alpha virt. eigenvalues --    0.31807   0.35512   0.39189   0.41767   0.44249
 Alpha virt. eigenvalues --    0.46053   0.52832   0.53389   0.54707   0.55932
 Alpha virt. eigenvalues --    0.56358   0.58448   0.60016   0.61561   0.64361
 Alpha virt. eigenvalues --    0.66168   0.66673   0.67822   0.75546   0.80460
 Alpha virt. eigenvalues --    0.84695   0.85402   0.86470   0.89684   0.90677
 Alpha virt. eigenvalues --    0.91769   0.94196   0.96734   1.02878   1.04933
 Alpha virt. eigenvalues --    1.06891   1.08574   1.09822   1.11979   1.14817
 Alpha virt. eigenvalues --    1.15824   1.16916   1.19107   1.20109   1.22190
 Alpha virt. eigenvalues --    1.22651   1.23035   1.25374   1.25675   1.26269
 Alpha virt. eigenvalues --    1.28532   1.31236   1.37925   1.38924   1.43393
 Alpha virt. eigenvalues --    1.45572   1.46748   1.47320   1.50516   1.51539
 Alpha virt. eigenvalues --    1.53341   1.60582   1.63574   1.64752   1.68977
 Alpha virt. eigenvalues --    1.70240   1.72104   1.75625   1.85879   1.93148
 Alpha virt. eigenvalues --    2.01039   2.08601   2.27064   2.42589   2.45342
 Alpha virt. eigenvalues --    2.47310   2.53017   2.55705   2.60129   2.62873
 Alpha virt. eigenvalues --    2.66108   2.69035   2.69995   2.71743   2.75603
 Alpha virt. eigenvalues --    2.78175   2.82084   2.82936   2.83647   2.86063
 Alpha virt. eigenvalues --    2.88033   2.89807   2.93319   2.98803   2.99968
 Alpha virt. eigenvalues --    3.01428   3.09577   3.14259   3.17733   3.21197
 Alpha virt. eigenvalues --    3.23166   3.24069   3.29208   3.30356   3.36753
 Alpha virt. eigenvalues --    3.37095   3.40034   3.40960   3.42392   3.50435
 Alpha virt. eigenvalues --    3.52144   3.56625   3.58268   3.65037   3.85731
 Alpha virt. eigenvalues --    3.92518   4.28808   4.37549   4.49015   4.59319
 Alpha virt. eigenvalues --    4.73025   4.80903   4.97797   5.24850   5.30905
 Alpha virt. eigenvalues --    5.57826   5.79192   6.43237   6.60225   6.79898
 Alpha virt. eigenvalues --    6.89307   6.92134   6.98682   7.23431   7.26839
 Alpha virt. eigenvalues --    7.35988   7.41094   7.47317   7.62741   7.64548
 Alpha virt. eigenvalues --    8.29922  13.95414
          Condensed to atoms (all electrons):
               1          2          3          4
     1  O    8.488651  -0.139723  -0.092878   0.121760
     2  Cl  -0.139723  17.068558   0.003209  -0.003183
     3  Cl  -0.092878   0.003209  18.043368   0.022305
     4  H    0.121760  -0.003183   0.022305   0.576444
 Mulliken charges:
               1
     1  O   -0.377809
     2  Cl   0.071139
     3  Cl  -0.976003
     4  H    0.282674
 Sum of Mulliken charges =  -1.00000
 Mulliken charges with hydrogens summed into heavy atoms:
               1
     1  O   -0.095135
     2  Cl   0.071139
     3  Cl  -0.976003
 Electronic spatial extent (au):  <R**2>=            567.6787
 Charge=             -1.0000 electrons
 Dipole moment (field-independent basis, Debye):
    X=              8.0675    Y=              0.7208    Z=              1.1991  Tot=              8.1880
 Quadrupole moment (field-independent basis, Debye-Ang):
   XX=            -59.1055   YY=            -36.6381   ZZ=            -35.1802
   XY=             -2.5507   XZ=              0.7159   YZ=              1.5967
 Traceless Quadrupole moment (field-independent basis, Debye-Ang):
   XX=            -15.4642   YY=              7.0032   ZZ=              8.4610
   XY=             -2.5507   XZ=              0.7159   YZ=              1.5967
 Octapole moment (field-independent basis, Debye-Ang**2):
  XXX=             60.7626  YYY=              2.0114  ZZZ=              0.7778  XYY=              9.5390
  XXY=              1.0896  XXZ=             -1.2882  XZZ=              9.3002  YZZ=              3.2603
  YYZ=              1.4398  XYZ=              0.4388
 Hexadecapole moment (field-independent basis, Debye-Ang**3):
 XXXX=           -805.4698 YYYY=           -100.9228 ZZZZ=            -53.6949 XXXY=            -15.5889
 XXXZ=              1.5666 YYYX=             -8.5806 YYYZ=              1.7015 ZZZX=              1.1514
 ZZZY=              1.7889 XXYY=           -133.3785 XXZZ=           -129.8378 YYZZ=            -24.6637
 XXYZ=             -0.0224 YYXZ=              1.0093 ZZXY=              0.2436
 N-N= 1.208324800097D+02 E-N=-2.619458332855D+03  KE= 9.949891112342D+02
 No NMR shielding tensors so no spin-rotation constants.
 Leave Link  601 at Thu Sep 16 14:57:42 2021, MaxMem= 16106127360 cpu:               4.7 elap:               0.2
 (Enter /sw/contrib/gaussian/g16/B01/g16/l701.exe)
 ... and contract with generalized density number  2.
 Compute integral first derivatives.
 Leave Link  701 at Thu Sep 16 14:57:43 2021, MaxMem= 16106127360 cpu:               5.4 elap:               0.2
 (Enter /sw/contrib/gaussian/g16/B01/g16/l702.exe)
 L702 exits ... SP integral derivatives will be done elsewhere.
 Leave Link  702 at Thu Sep 16 14:57:43 2021, MaxMem= 16106127360 cpu:               1.1 elap:               0.1
 (Enter /sw/contrib/gaussian/g16/B01/g16/l703.exe)
 Integral derivatives from FoFJK, PRISM(SPDF).
 Compute integral first derivatives, UseDBF=F ICtDFT=           0.
 Calling FoFJK, ICntrl=  10002127 FMM=F ISym2X=0 I1Cent= 0 IOpClX= 0 NMat=1 NMatS=1 NMatT=0.
 FoFJK:  IHMeth= 1 ICntrl=10002127 DoSepK=F KAlg= 0 I1Cent=           0 FoldK=F
 IRaf=         0 NMat=       1 IRICut=       1 DoRegI=T DoRafI=F ISym2E= 0 IDoP0=0 IntGTp=1.
 FoFCou: FMM=F IPFlag=           0 FMFlag=      100000 FMFlg1=         800
         NFxFlg=           0 DoJE=F BraDBF=F KetDBF=F FulRan=T
         wScrn=  0.000000 ICntrl=  10002127 IOpCl=  0 I1Cent=           0 NGrid=           0
         NMat0=    1 NMatS0=      1 NMatT0=    0 NMatD0=    1 NMtDS0=    0 NMtDT0=    0
 Symmetry not used in FoFCou.
 Leave Link  703 at Thu Sep 16 14:57:45 2021, MaxMem= 16106127360 cpu:              46.9 elap:               1.8
 (Enter /sw/contrib/gaussian/g16/B01/g16/l716.exe)
 Dipole        = 3.17401715D+00 2.83568630D-01 4.71751107D-01
 ***** Axes restored to original set *****
 -------------------------------------------------------------------
 Center     Atomic                   Forces (Hartrees/Bohr)
 Number     Number              X              Y              Z
 -------------------------------------------------------------------
      1        8           0.001754748    0.003020350    0.053495435
      2       17           0.016168929    0.003254198   -0.009406927
      3       17          -0.002027927   -0.006437632    0.004384565
      4        1          -0.015895750    0.000163084   -0.048473072
 -------------------------------------------------------------------
 Cartesian Forces:  Max     0.053495435 RMS     0.022176560
 -----------------------------------------------------------------------------------------------
                       Internal Coordinate Forces (Hartree/Bohr or radian)
  Cent   Atom   N1       Length/X         N2         Alpha/Y        N3         Beta/Z          J
 -----------------------------------------------------------------------------------------------
      1  O 
         X        1   0.000000(     1)
      2  Cl       1   0.016169(     2)      2   0.029913(     5)
      3  Cl       1   0.006733(     3)      2  -0.024067(     6)      3   0.002555(     8)     0
      4  H        1  -0.045900(     4)      2   0.031066(     7)      3   0.007793(     9)     0
 -----------------------------------------------------------------------------------------------
 Internal  Forces:  Max     0.045899902 RMS     0.023380753
 Force constants in Cartesian coordinates: 
                1             2             3             4             5 
      1  0.435807D+00
      2 -0.111153D-02  0.123951D+00
      3  0.141333D-02 -0.113020D+00  0.419672D+00
      4 -0.380493D+00  0.000000D+00  0.000000D+00  0.380493D+00
      5  0.204408D-01 -0.291797D-01  0.424305D-02  0.000000D+00  0.257289D-01
      6 -0.250091D-01  0.424339D-02 -0.162862D-01  0.000000D+00 -0.386043D-02
      7 -0.936414D-02  0.949519D-02  0.000000D+00  0.000000D+00 -0.139253D-01
      8 -0.443022D-02 -0.300595D-01  0.000000D+00  0.000000D+00  0.335093D-02
      9  0.338872D-02  0.140859D-01 -0.142897D-02  0.000000D+00  0.000000D+00
     10 -0.459499D-01 -0.838367D-02 -0.141295D-02  0.000000D+00 -0.651545D-02
     11 -0.148991D-01 -0.647119D-01  0.108776D+00  0.000000D+00  0.998764D-04
     12  0.202071D-01  0.946902D-01 -0.401956D+00  0.000000D+00 -0.382426D-03
                6             7             8             9            10 
      6  0.148179D-01
      7  0.000000D+00  0.936369D-02
      8  0.000000D+00  0.443033D-02  0.267086D-01
      9  0.000000D+00  0.000000D+00  0.000000D+00  0.531058D-02
     10  0.250089D-01  0.000000D+00  0.000000D+00 -0.338886D-02  0.459495D-01
     11 -0.382897D-03  0.000000D+00  0.000000D+00 -0.140857D-01  0.148992D-01
     12  0.146802D-02  0.000000D+00  0.000000D+00 -0.388195D-02 -0.202070D-01
               11            12 
     11  0.646120D-01
     12 -0.943078D-01  0.404370D+00
 Force constants in internal coordinates: 
                1             2             3             4             5 
      1  0.000000D+00
      2  0.000000D+00  0.380493D+00
      3  0.000000D+00  0.000000D+00  0.277747D-01
      4  0.000000D+00  0.000000D+00  0.000000D+00  0.430205D+00
      5  0.000000D+00  0.000000D+00  0.000000D+00  0.000000D+00  0.149838D+00
      6  0.000000D+00  0.000000D+00  0.000000D+00  0.000000D+00  0.611720D-05
      7  0.000000D+00  0.000000D+00  0.000000D+00  0.000000D+00  0.350531D-01
      8  0.000000D+00  0.000000D+00  0.000000D+00  0.000000D+00  0.464318D-05
      9  0.000000D+00  0.000000D+00  0.000000D+00  0.000000D+00  0.390350D-01
                6             7             8             9 
      6  0.160006D+00
      7 -0.160001D+00  0.168201D+00
      8  0.420962D-05  0.000000D+00  0.250003D+00
      9  0.178513D-05  0.913174D-02  0.135498D-05  0.101692D-01
 Leave Link  716 at Thu Sep 16 14:57:45 2021, MaxMem= 16106127360 cpu:               2.7 elap:               0.1
 (Enter /sw/contrib/gaussian/g16/B01/g16/l103.exe)

 GradGradGradGradGradGradGradGradGradGradGradGradGradGradGradGradGradGrad
 Berny optimization.
 Search for a local minimum.
 Step number   1 out of a maximum of   20
 All quantities printed in internal units (Hartrees-Bohrs-Radians)
 Second derivative matrix not updated -- first step.
 The second derivative matrix:
                          r1        r2        r3        a1        OOP
           r1           0.38049
           r2           0.00000   0.02777
           r3           0.00000   0.00000   0.43021
           a1           0.00000   0.00000  -0.00000   0.26018
           OOP          0.00000   0.00000  -0.00000   0.00913   0.16820
 ITU=  0
     Eigenvalues ---    0.430211000.000001000.000001000.000001000.00000
 RFO step:  Lambda=-4.84269111D-03 EMin= 4.30205488D-01
 Linear search not attempted -- first point.
 Variable       Old X    -DE/DX   Delta X   Delta X   Delta X     New X
                                 (Linear)    (Quad)   (Total)
    r1        3.17994   0.01617   0.00000   0.00000   0.00000   3.17994
    r2        5.48904   0.00673   0.00000   0.00000   0.00000   5.48904
    r3        1.94344  -0.04590   0.00000  -0.10551  -0.10551   1.83794
    a1        1.80694   0.01035   0.00000   0.00000   0.00000   1.80694
   OOP        0.26180   0.03107   0.00000   0.00000   0.00000   0.26180
         Item               Value     Threshold  Converged?
 Maximum Force            0.045900     0.000450     NO 
 RMS     Force            0.045900     0.000300     NO 
 Maximum Displacement     0.105505     0.001800     NO 
 RMS     Displacement     0.047183     0.001200     NO 
 Predicted change in Energy=-2.448295D-03
 Lowest energy point so far.  Saving SCF results.
 GradGradGradGradGradGradGradGradGradGradGradGradGradGradGradGradGradGrad

 Leave Link  103 at Thu Sep 16 14:57:45 2021, MaxMem= 16106127360 cpu:               0.5 elap:               0.0
 (Enter /sw/contrib/gaussian/g16/B01/g16/l202.exe)
 ---------------------------------------------------------------------------------------------------
                            Z-MATRIX (ANGSTROMS AND DEGREES)
   CD    Cent   Atom    N1       Length/X        N2       Alpha/Y        N3        Beta/Z          J
 ---------------------------------------------------------------------------------------------------
      1      1  O 
      2         X        1  10.000000(     1)
      3      2  Cl       1   1.682749(     2)      2   90.000(     5)
      4      3  Cl       1   2.904676(     3)      2   90.000(     6)      3  103.530(     8)      0
      5      4  H        1   0.972595(     4)      2   15.000(     7)      3  103.530(     9)      0
 ---------------------------------------------------------------------------------------------------
                         Z-Matrix orientation:                         
 ---------------------------------------------------------------------
 Center     Atomic      Atomic             Coordinates (Angstroms)
 Number     Number       Type             X           Y           Z
 ---------------------------------------------------------------------
      1          8           0        0.000000    0.000000    0.000000
      2         -1           0        0.000000    0.000000   10.000000
      3         17           0        1.682749    0.000000    0.000000
      4         17           0       -0.679570   -2.824062    0.000000
      5          1           0       -0.058893   -0.244740    0.939454
 ---------------------------------------------------------------------
                    Distance matrix (angstroms):
                    1          2          3          4          5
     1  O    0.000000
     2  X   10.000000   0.000000
     3  Cl   1.682749  10.140594   0.000000
     4  Cl   2.904676  10.413316   3.681831   0.000000
     5  H    0.972595   9.064042   1.993938   2.814377   0.000000
 Stoichiometry    Cl2HO(1-)
 Framework group  C1[X(Cl2HO)]
 Deg. of freedom     6
 Full point group                 C1      NOp   1
 RotChk:  IX=0 Diff= 6.90D-03
 Largest Abelian subgroup         C1      NOp   1
 Largest concise Abelian subgroup C1      NOp   1
                         Standard orientation:                         
 ---------------------------------------------------------------------
 Center     Atomic      Atomic             Coordinates (Angstroms)
 Number     Number       Type             X           Y           Z
 ---------------------------------------------------------------------
      1          8           0        0.669514    0.978396   -0.102333
      2         17           0        1.666847   -0.372928    0.002056
      3         17           0       -2.007839   -0.143723   -0.003470
      4          1           0        0.440743    0.955894    0.842705
 ---------------------------------------------------------------------
 Rotational constants (GHZ):          22.2967046           2.0515841           1.8905748
 Leave Link  202 at Thu Sep 16 14:57:45 2021, MaxMem= 16106127360 cpu:               0.4 elap:               0.0
 (Enter /sw/contrib/gaussian/g16/B01/g16/l301.exe)
 Standard basis: Aug-CC-pVTZ (5D, 7F)
 Ernie: Thresh=  0.10000D-02 Tol=  0.10000D-05 Strict=F.
 Ernie:  29 primitive shells out of 169 were deleted.
 There are   198 symmetry adapted cartesian basis functions of A   symmetry.
 There are   169 symmetry adapted basis functions of A   symmetry.
   169 basis functions,   327 primitive gaussians,   198 cartesian basis functions
    22 alpha electrons       22 beta electrons
       nuclear repulsion energy       121.1426315559 Hartrees.
 IExCor=    0 DFT=F Ex=HF Corr=None ExCW=0 ScaHFX=  1.000000
 ScaDFX=  1.000000  1.000000  1.000000  1.000000 ScalE2=  1.000000  1.000000
 IRadAn=      5 IRanWt=     -1 IRanGd=            0 ICorTp=0 IEmpDi=  4
 NAtoms=    4 NActive=    4 NUniq=    4 SFac= 1.00D+00 NAtFMM=   60 NAOKFM=F Big=F
 Integral buffers will be    131072 words long.
 Raffenetti 1 integral format.
 Two-electron integral symmetry is turned on.
 Leave Link  301 at Thu Sep 16 14:57:45 2021, MaxMem= 16106127360 cpu:               1.5 elap:               0.1
 (Enter /sw/contrib/gaussian/g16/B01/g16/l302.exe)
 NPDir=0 NMtPBC=     1 NCelOv=     1 NCel=       1 NClECP=     1 NCelD=      1
         NCelK=      1 NCelE2=     1 NClLst=     1 CellRange=     0.0.
 One-electron integrals computed using PRISM.
 One-electron integral symmetry used in STVInt
 NBasis=   169 RedAO= T EigKep=  3.14D-04  NBF=   169
 NBsUse=   169 1.00D-06 EigRej= -1.00D+00 NBFU=   169
 Leave Link  302 at Thu Sep 16 14:57:45 2021, MaxMem= 16106127360 cpu:               4.3 elap:               0.2
 (Enter /sw/contrib/gaussian/g16/B01/g16/l303.exe)
 DipDrv:  MaxL=1.
 Leave Link  303 at Thu Sep 16 14:57:45 2021, MaxMem= 16106127360 cpu:               1.5 elap:               0.1
 (Enter /sw/contrib/gaussian/g16/B01/g16/l401.exe)
 Initial guess from the checkpoint file:  "/gscratch/ilahie/mccoygrp/coire_hocl/clhocl/clhocl_75_opt.chk"
 B after Tr=    -0.000000   -0.000000    0.000000
         Rot=    1.000000   -0.000255   -0.000094    0.000107 Ang=  -0.03 deg.
 Guess basis will be translated and rotated to current coordinates.
 JPrj=2 DoOrth=T DoCkMO=T.
 Generating alternative initial guess.
 ExpMin= 2.53D-02 ExpMax= 4.56D+05 ExpMxC= 1.44D+03 IAcc=3 IRadAn=         5 AccDes= 0.00D+00
 Harris functional with IExCor=  205 and IRadAn=       5 diagonalized for initial guess.
 HarFok:  IExCor=  205 AccDes= 0.00D+00 IRadAn=         5 IDoV= 1 UseB2=F ITyADJ=14
 ICtDFT=  3500011 ScaDFX=  1.000000  1.000000  1.000000  1.000000
 FoFCou: FMM=F IPFlag=           0 FMFlag=      100000 FMFlg1=           0
         NFxFlg=           0 DoJE=T BraDBF=F KetDBF=T FulRan=T
         wScrn=  0.000000 ICntrl=       500 IOpCl=  0 I1Cent=   200000004 NGrid=           0
         NMat0=    1 NMatS0=      1 NMatT0=    0 NMatD0=    1 NMtDS0=    0 NMtDT0=    0
 Petite list used in FoFCou.
 Harris En= -993.801589307214    
 Leave Link  401 at Thu Sep 16 14:57:46 2021, MaxMem= 16106127360 cpu:               8.9 elap:               0.4
 (Enter /sw/contrib/gaussian/g16/B01/g16/l502.exe)
 Keep R1 ints in memory in canonical form, NReq=117118143.
 FoFCou: FMM=F IPFlag=           0 FMFlag=           0 FMFlg1=           0
         NFxFlg=           0 DoJE=F BraDBF=F KetDBF=F FulRan=T
         wScrn=  0.000000 ICntrl=       600 IOpCl=  0 I1Cent=           0 NGrid=           0
         NMat0=    1 NMatS0=  14365 NMatT0=    0 NMatD0=    1 NMtDS0=    0 NMtDT0=    0
 Symmetry not used in FoFCou.
 Two-electron integral symmetry not used.
 Closed shell SCF:
 Using DIIS extrapolation, IDIIS=  1040.
 NGot= 16106127360 LenX= 16002857927 LenY= 16002818282
 Requested convergence on RMS density matrix=1.00D-08 within 128 cycles.
 Requested convergence on MAX density matrix=1.00D-06.
 Requested convergence on             energy=1.00D-06.
 No special actions if energy rises.

 Cycle   1  Pass 1  IDiag  1:
 E= -994.487841690031    
 DIIS: error= 3.84D-03 at cycle   1 NSaved=   1.
 NSaved= 1 IEnMin= 1 EnMin= -994.487841690031     IErMin= 1 ErrMin= 3.84D-03
 ErrMax= 3.84D-03  0.00D+00 EMaxC= 1.00D-01 BMatC= 1.14D-03 BMatP= 1.14D-03
 IDIUse=3 WtCom= 9.62D-01 WtEn= 3.84D-02
 Coeff-Com:  0.100D+01
 Coeff-En:   0.100D+01
 Coeff:      0.100D+01
 Gap=     0.685 Goal=   None    Shift=    0.000
 GapD=    0.685 DampG=2.000 DampE=1.000 DampFc=2.0000 IDamp=-1.
 RMSDP=2.73D-04 MaxDP=1.33D-02              OVMax= 9.16D-03

 Cycle   2  Pass 1  IDiag  1:
 E= -994.488624258548     Delta-E=       -0.000782568517 Rises=F Damp=F
 DIIS: error= 5.04D-04 at cycle   2 NSaved=   2.
 NSaved= 2 IEnMin= 2 EnMin= -994.488624258548     IErMin= 2 ErrMin= 5.04D-04
 ErrMax= 5.04D-04  0.00D+00 EMaxC= 1.00D-01 BMatC= 6.87D-05 BMatP= 1.14D-03
 IDIUse=3 WtCom= 9.95D-01 WtEn= 5.04D-03
 Coeff-Com:  0.127D-01 0.987D+00
 Coeff-En:   0.000D+00 0.100D+01
 Coeff:      0.127D-01 0.987D+00
 Gap=     0.298 Goal=   None    Shift=    0.000
 RMSDP=4.26D-05 MaxDP=1.81D-03 DE=-7.83D-04 OVMax= 2.81D-03

 Cycle   3  Pass 1  IDiag  1:
 E= -994.488671205869     Delta-E=       -0.000046947321 Rises=F Damp=F
 DIIS: error= 3.13D-04 at cycle   3 NSaved=   3.
 NSaved= 3 IEnMin= 3 EnMin= -994.488671205869     IErMin= 3 ErrMin= 3.13D-04
 ErrMax= 3.13D-04  0.00D+00 EMaxC= 1.00D-01 BMatC= 2.10D-05 BMatP= 6.87D-05
 IDIUse=3 WtCom= 9.97D-01 WtEn= 3.13D-03
 Coeff-Com: -0.477D-01 0.326D+00 0.722D+00
 Coeff-En:   0.000D+00 0.000D+00 0.100D+01
 Coeff:     -0.475D-01 0.325D+00 0.722D+00
 Gap=     0.299 Goal=   None    Shift=    0.000
 RMSDP=1.82D-05 MaxDP=6.97D-04 DE=-4.69D-05 OVMax= 1.33D-03

 Cycle   4  Pass 1  IDiag  1:
 E= -994.488688005508     Delta-E=       -0.000016799638 Rises=F Damp=F
 DIIS: error= 6.60D-05 at cycle   4 NSaved=   4.
 NSaved= 4 IEnMin= 4 EnMin= -994.488688005508     IErMin= 4 ErrMin= 6.60D-05
 ErrMax= 6.60D-05  0.00D+00 EMaxC= 1.00D-01 BMatC= 1.11D-06 BMatP= 2.10D-05
 IDIUse=1 WtCom= 1.00D+00 WtEn= 0.00D+00
 Coeff-Com: -0.433D-02-0.652D-01 0.792D-01 0.990D+00
 Coeff:     -0.433D-02-0.652D-01 0.792D-01 0.990D+00
 Gap=     0.299 Goal=   None    Shift=    0.000
 RMSDP=6.40D-06 MaxDP=1.79D-04 DE=-1.68D-05 OVMax= 6.10D-04

 Cycle   5  Pass 1  IDiag  1:
 E= -994.488689832817     Delta-E=       -0.000001827310 Rises=F Damp=F
 DIIS: error= 2.52D-05 at cycle   5 NSaved=   5.
 NSaved= 5 IEnMin= 5 EnMin= -994.488689832817     IErMin= 5 ErrMin= 2.52D-05
 ErrMax= 2.52D-05  0.00D+00 EMaxC= 1.00D-01 BMatC= 9.32D-08 BMatP= 1.11D-06
 IDIUse=1 WtCom= 1.00D+00 WtEn= 0.00D+00
 Coeff-Com:  0.453D-02-0.252D-01-0.745D-01-0.107D+00 0.120D+01
 Coeff:      0.453D-02-0.252D-01-0.745D-01-0.107D+00 0.120D+01
 Gap=     0.299 Goal=   None    Shift=    0.000
 RMSDP=3.72D-06 MaxDP=1.44D-04 DE=-1.83D-06 OVMax= 3.15D-04

 Cycle   6  Pass 1  IDiag  1:
 E= -994.488690123339     Delta-E=       -0.000000290522 Rises=F Damp=F
 DIIS: error= 6.92D-06 at cycle   6 NSaved=   6.
 NSaved= 6 IEnMin= 6 EnMin= -994.488690123339     IErMin= 6 ErrMin= 6.92D-06
 ErrMax= 6.92D-06  0.00D+00 EMaxC= 1.00D-01 BMatC= 8.94D-09 BMatP= 9.32D-08
 IDIUse=1 WtCom= 1.00D+00 WtEn= 0.00D+00
 Coeff-Com: -0.494D-03 0.810D-02 0.593D-02-0.445D-01-0.249D+00 0.128D+01
 Coeff:     -0.494D-03 0.810D-02 0.593D-02-0.445D-01-0.249D+00 0.128D+01
 Gap=     0.299 Goal=   None    Shift=    0.000
 RMSDP=1.28D-06 MaxDP=3.85D-05 DE=-2.91D-07 OVMax= 1.34D-04

 Cycle   7  Pass 1  IDiag  1:
 E= -994.488690161096     Delta-E=       -0.000000037757 Rises=F Damp=F
 DIIS: error= 2.34D-06 at cycle   7 NSaved=   7.
 NSaved= 7 IEnMin= 7 EnMin= -994.488690161096     IErMin= 7 ErrMin= 2.34D-06
 ErrMax= 2.34D-06  0.00D+00 EMaxC= 1.00D-01 BMatC= 1.39D-09 BMatP= 8.94D-09
 IDIUse=1 WtCom= 1.00D+00 WtEn= 0.00D+00
 Coeff-Com: -0.543D-03 0.181D-02 0.103D-01 0.313D-01-0.151D+00-0.155D+00
 Coeff-Com:  0.126D+01
 Coeff:     -0.543D-03 0.181D-02 0.103D-01 0.313D-01-0.151D+00-0.155D+00
 Coeff:      0.126D+01
 Gap=     0.299 Goal=   None    Shift=    0.000
 RMSDP=5.34D-07 MaxDP=1.07D-05 DE=-3.78D-08 OVMax= 6.21D-05

 Cycle   8  Pass 1  IDiag  1:
 E= -994.488690167170     Delta-E=       -0.000000006074 Rises=F Damp=F
 DIIS: error= 8.42D-07 at cycle   8 NSaved=   8.
 NSaved= 8 IEnMin= 8 EnMin= -994.488690167170     IErMin= 8 ErrMin= 8.42D-07
 ErrMax= 8.42D-07  0.00D+00 EMaxC= 1.00D-01 BMatC= 1.56D-10 BMatP= 1.39D-09
 IDIUse=1 WtCom= 1.00D+00 WtEn= 0.00D+00
 Coeff-Com:  0.204D-03-0.145D-02-0.349D-02-0.421D-02 0.651D-01-0.506D-01
 Coeff-Com: -0.501D+00 0.150D+01
 Coeff:      0.204D-03-0.145D-02-0.349D-02-0.421D-02 0.651D-01-0.506D-01
 Coeff:     -0.501D+00 0.150D+01
 Gap=     0.299 Goal=   None    Shift=    0.000
 RMSDP=2.33D-07 MaxDP=5.55D-06 DE=-6.07D-09 OVMax= 2.90D-05

 Cycle   9  Pass 1  IDiag  1:
 E= -994.488690168029     Delta-E=       -0.000000000858 Rises=F Damp=F
 DIIS: error= 2.69D-07 at cycle   9 NSaved=   9.
 NSaved= 9 IEnMin= 9 EnMin= -994.488690168029     IErMin= 9 ErrMin= 2.69D-07
 ErrMax= 2.69D-07  0.00D+00 EMaxC= 1.00D-01 BMatC= 1.40D-11 BMatP= 1.56D-10
 IDIUse=1 WtCom= 1.00D+00 WtEn= 0.00D+00
 Coeff-Com:  0.336D-04-0.105D-03-0.491D-03-0.209D-02 0.538D-02 0.298D-01
 Coeff-Com: -0.949D-01-0.127D+00 0.119D+01
 Coeff:      0.336D-04-0.105D-03-0.491D-03-0.209D-02 0.538D-02 0.298D-01
 Coeff:     -0.949D-01-0.127D+00 0.119D+01
 Gap=     0.299 Goal=   None    Shift=    0.000
 RMSDP=6.11D-08 MaxDP=1.51D-06 DE=-8.58D-10 OVMax= 7.73D-06

 Cycle  10  Pass 1  IDiag  1:
 E= -994.488690168097     Delta-E=       -0.000000000068 Rises=F Damp=F
 DIIS: error= 8.49D-08 at cycle  10 NSaved=  10.
 NSaved=10 IEnMin=10 EnMin= -994.488690168097     IErMin=10 ErrMin= 8.49D-08
 ErrMax= 8.49D-08  0.00D+00 EMaxC= 1.00D-01 BMatC= 1.52D-12 BMatP= 1.40D-11
 IDIUse=1 WtCom= 1.00D+00 WtEn= 0.00D+00
 Coeff-Com: -0.281D-04 0.140D-03 0.547D-03 0.126D-02-0.936D-02 0.111D-02
 Coeff-Com:  0.702D-01-0.138D+00-0.258D+00 0.133D+01
 Coeff:     -0.281D-04 0.140D-03 0.547D-03 0.126D-02-0.936D-02 0.111D-02
 Coeff:      0.702D-01-0.138D+00-0.258D+00 0.133D+01
 Gap=     0.299 Goal=   None    Shift=    0.000
 RMSDP=2.15D-08 MaxDP=4.74D-07 DE=-6.84D-11 OVMax= 2.50D-06

 Cycle  11  Pass 1  IDiag  1:
 E= -994.488690168101     Delta-E=       -0.000000000004 Rises=F Damp=F
 DIIS: error= 2.33D-08 at cycle  11 NSaved=  11.
 NSaved=11 IEnMin=11 EnMin= -994.488690168101     IErMin=11 ErrMin= 2.33D-08
 ErrMax= 2.33D-08  0.00D+00 EMaxC= 1.00D-01 BMatC= 1.44D-13 BMatP= 1.52D-12
 IDIUse=1 WtCom= 1.00D+00 WtEn= 0.00D+00
 Coeff-Com:  0.775D-05-0.489D-04-0.145D-03-0.320D-03 0.303D-02-0.260D-02
 Coeff-Com: -0.198D-01 0.648D-01-0.251D-04-0.498D+00 0.145D+01
 Coeff:      0.775D-05-0.489D-04-0.145D-03-0.320D-03 0.303D-02-0.260D-02
 Coeff:     -0.198D-01 0.648D-01-0.251D-04-0.498D+00 0.145D+01
 Gap=     0.299 Goal=   None    Shift=    0.000
 RMSDP=5.81D-09 MaxDP=1.41D-07 DE=-3.64D-12 OVMax= 5.82D-07

 SCF Done:  E(RHF) =  -994.488690168     A.U. after   11 cycles
            NFock= 11  Conv=0.58D-08     -V/T= 2.0001
 KE= 9.944062257510D+02 PE=-2.620050261621D+03 EE= 5.100127141461D+02
 Leave Link  502 at Thu Sep 16 14:57:48 2021, MaxMem= 16106127360 cpu:              25.0 elap:               2.8
 (Enter /sw/contrib/gaussian/g16/B01/g16/l801.exe)
 ExpMin= 2.53D-02 ExpMax= 4.56D+05 ExpMxC= 1.44D+03 IAcc=3 IRadAn=         5 AccDes= 0.00D+00
 HarFok:  IExCor=  205 AccDes= 0.00D+00 IRadAn=         5 IDoV=-2 UseB2=F ITyADJ=14
 ICtDFT= 12500011 ScaDFX=  1.000000  1.000000  1.000000  1.000000
 Largest valence mixing into a core orbital is  4.47D-04
 Largest core mixing into a valence orbital is  1.76D-04
 Range of M.O.s used for correlation:    12   169
 NBasis=   169 NAE=    22 NBE=    22 NFC=    11 NFV=     0
 NROrb=    158 NOA=    11 NOB=    11 NVA=   147 NVB=   147

 **** Warning!!: The largest alpha MO coefficient is  0.14919124D+02

 Leave Link  801 at Thu Sep 16 14:57:48 2021, MaxMem= 16106127360 cpu:               2.2 elap:               0.1
 (Enter /sw/contrib/gaussian/g16/B01/g16/l906.exe)
 Frozen-core derivative calculation, NFC=  11 NFV=   0.
 FulOut=F Deriv=T AODrv=T NAtomX=     4
   MMem=         143  MDisk=          11 MDiskD=          11
  W3Min=      736164 MinDsk=     1250177 NBas6D=         198
 NBas2D=       20187    NTT=       19701    LW2=     3500000
    MDV= 16105748892 MDiskM=      406660 NBas2p=       20117
 Fully direct method using O(ONN) memory.
 IMap=   1   2   3   4   5   6   7   8   9  10  11  12  13  14  15  16  17  18  19  20
 IMap=  21  22
 JobTyp=1 Pass  1:  I=  12 to  22 NPSUse= 28 ParTrn=T ParDer=T DoDerP=T.
 Spin components of T(2) and E(2):
     alpha-alpha T2 =       0.2906069542D-01 E2=     -0.8328917375D-01
     alpha-beta  T2 =       0.1597685076D+00 E2=     -0.4971811259D+00
     beta-beta   T2 =       0.2906069542D-01 E2=     -0.8328917375D-01
 The integrals were generated   1 times.
 ANorm=    0.1103580490D+01
 E2 =    -0.6637594734D+00 EUMP2 =    -0.99515244964152D+03
 Leave Link  906 at Thu Sep 16 14:57:59 2021, MaxMem= 16106127360 cpu:             305.1 elap:              10.9
 (Enter /sw/contrib/gaussian/g16/B01/g16/l1002.exe)
 Minotr:  Closed shell wavefunction.
          Computing MP2/KS-MP2 derivatives.
          Using Z-Vector for PSCF gradient.
          Skipping F1 and S1 gradient terms here.
          IDoAtm=1111
          Frozen-core window.
          Direct CPHF calculation.
          Differentiating once with respect to electric field.
                with respect to dipole field.
          Differentiating once with respect to nuclear coordinates.
          Requested convergence is 1.0D-10 RMS, and 1.0D-09 maximum.
          NewPWx=F KeepS1=T KeepF1=T KeepIn=T MapXYZ=F SortEE=F KeepMc=T.
 Keep R1 ints in memory in canonical form, NReq=117123183.
 FoFCou: FMM=F IPFlag=           0 FMFlag=           0 FMFlg1=           0
         NFxFlg=           0 DoJE=F BraDBF=F KetDBF=F FulRan=T
         wScrn=  0.000000 ICntrl=       600 IOpCl=  0 I1Cent=           0 NGrid=           0
         NMat0=    1 NMatS0=  14365 NMatT0=    0 NMatD0=    1 NMtDS0=    0 NMtDT0=    0
 Symmetry not used in FoFCou.
 Two-electron integral symmetry not used.
          MDV=   16106127360 using IRadAn=       5.
          Solving linear equations separately, MaxMat=       0.
          There are     1 degrees of freedom in the 1st order CPHF.  IDoFFX=0 NUNeed=     1.
 LinEq1:  Iter=  0 NonCon=     1 RMS=3.09D-03 Max=4.62D-02 NDo=     1
 AX will form     1 AO Fock derivatives at one time.
 LinEq1:  Iter=  1 NonCon=     1 RMS=4.14D-04 Max=4.52D-03 NDo=     1
 LinEq1:  Iter=  2 NonCon=     1 RMS=1.59D-04 Max=1.93D-03 NDo=     1
 LinEq1:  Iter=  3 NonCon=     1 RMS=6.17D-05 Max=9.81D-04 NDo=     1
 LinEq1:  Iter=  4 NonCon=     1 RMS=2.91D-05 Max=3.99D-04 NDo=     1
 LinEq1:  Iter=  5 NonCon=     1 RMS=9.12D-06 Max=1.40D-04 NDo=     1
 LinEq1:  Iter=  6 NonCon=     1 RMS=2.81D-06 Max=3.57D-05 NDo=     1
 LinEq1:  Iter=  7 NonCon=     1 RMS=8.03D-07 Max=8.41D-06 NDo=     1
 LinEq1:  Iter=  8 NonCon=     1 RMS=1.79D-07 Max=3.02D-06 NDo=     1
 LinEq1:  Iter=  9 NonCon=     1 RMS=5.36D-08 Max=7.04D-07 NDo=     1
 LinEq1:  Iter= 10 NonCon=     1 RMS=1.51D-08 Max=1.75D-07 NDo=     1
 LinEq1:  Iter= 11 NonCon=     1 RMS=3.84D-09 Max=3.39D-08 NDo=     1
 LinEq1:  Iter= 12 NonCon=     1 RMS=1.11D-09 Max=1.09D-08 NDo=     1
 LinEq1:  Iter= 13 NonCon=     1 RMS=2.86D-10 Max=2.18D-09 NDo=     1
 LinEq1:  Iter= 14 NonCon=     0 RMS=6.00D-11 Max=7.91D-10 NDo=     1
 Linear equations converged to 1.000D-10 1.000D-09 after    14 iterations.
 End of Minotr F.D. properties file   721 does not exist.
 End of Minotr F.D. properties file   722 does not exist.
 End of Minotr F.D. properties file   788 does not exist.
 Leave Link 1002 at Thu Sep 16 14:58:04 2021, MaxMem= 16106127360 cpu:              41.2 elap:               4.4
 (Enter /sw/contrib/gaussian/g16/B01/g16/l701.exe)
 ... and contract with generalized density number  2.
 Compute integral first derivatives.
 Leave Link  701 at Thu Sep 16 14:58:04 2021, MaxMem= 16106127360 cpu:               5.1 elap:               0.2
 (Enter /sw/contrib/gaussian/g16/B01/g16/l702.exe)
 L702 exits ... SP integral derivatives will be done elsewhere.
 Leave Link  702 at Thu Sep 16 14:58:04 2021, MaxMem= 16106127360 cpu:               0.6 elap:               0.0
 (Enter /sw/contrib/gaussian/g16/B01/g16/l703.exe)
 Integral derivatives from FoFJK, PRISM(SPDF).
 Compute integral first derivatives, UseDBF=F ICtDFT=           0.
 Calling FoFJK, ICntrl=  10002127 FMM=F ISym2X=0 I1Cent= 0 IOpClX= 0 NMat=1 NMatS=1 NMatT=0.
 FoFJK:  IHMeth= 1 ICntrl=10002127 DoSepK=F KAlg= 0 I1Cent=           0 FoldK=F
 IRaf=         0 NMat=       1 IRICut=       1 DoRegI=T DoRafI=F ISym2E= 0 IDoP0=0 IntGTp=1.
 FoFCou: FMM=F IPFlag=           0 FMFlag=      100000 FMFlg1=         800
         NFxFlg=           0 DoJE=F BraDBF=F KetDBF=F FulRan=T
         wScrn=  0.000000 ICntrl=  10002127 IOpCl=  0 I1Cent=           0 NGrid=           0
         NMat0=    1 NMatS0=      1 NMatT0=    0 NMatD0=    1 NMtDS0=    0 NMtDT0=    0
 Symmetry not used in FoFCou.
 Leave Link  703 at Thu Sep 16 14:58:06 2021, MaxMem= 16106127360 cpu:              40.6 elap:               1.5
 (Enter /sw/contrib/gaussian/g16/B01/g16/l716.exe)
 Dipole        = 3.19318863D+00 2.74228712D-01 4.51172296D-01
 ***** Axes restored to original set *****
 -------------------------------------------------------------------
 Center     Atomic                   Forces (Hartrees/Bohr)
 Number     Number              X              Y              Z
 -------------------------------------------------------------------
      1        8           0.006831920    0.013978422    0.012224103
      2       17           0.015320508    0.003339986   -0.009776961
      3       17          -0.002007472   -0.006378826    0.004216671
      4        1          -0.020144956   -0.010939582   -0.006663813
 -------------------------------------------------------------------
 Cartesian Forces:  Max     0.020144956 RMS     0.010666780
 -----------------------------------------------------------------------------------------------
                       Internal Coordinate Forces (Hartree/Bohr or radian)
  Cent   Atom   N1       Length/X         N2         Alpha/Y        N3         Beta/Z          J
 -----------------------------------------------------------------------------------------------
      1  O 
         X        1   0.000000(     1)
      2  Cl       1   0.015321(     2)      2   0.031090(     5)
      3  Cl       1   0.006671(     3)      2  -0.023145(     6)      3   0.002522(     8)     0
      4  H        1  -0.002464(     4)      2   0.030419(     7)      3   0.008099(     9)     0
 -----------------------------------------------------------------------------------------------
 Internal  Forces:  Max     0.031090106 RMS     0.017590701
 Leave Link  716 at Thu Sep 16 14:58:06 2021, MaxMem= 16106127360 cpu:               1.6 elap:               0.1
 (Enter /sw/contrib/gaussian/g16/B01/g16/l103.exe)

 GradGradGradGradGradGradGradGradGradGradGradGradGradGradGradGradGradGrad
 Berny optimization.
 Search for a local minimum.
 Step number   2 out of a maximum of   20
 All quantities printed in internal units (Hartrees-Bohrs-Radians)
 Update second derivatives using D2CorN and points    1    2
 DE= -2.70D-03 DEPred=-2.45D-03 R= 1.10D+00
 TightC=F SS=  1.41D+00  RLast= 1.06D-01 DXNew= 5.0454D-01 3.1652D-01
 Trust test= 1.10D+00 RLast= 1.06D-01 DXMaxT set to 3.17D-01
 The second derivative matrix:
                          r1        r2        r3        a1        OOP
           r1           0.38049
           r2           0.00000   0.02777
           r3          -0.00402  -0.00029   0.41169
           a1           0.00000   0.00000   0.00129   0.26018
           OOP          0.00000   0.00000  -0.00306   0.00913   0.16820
 ITU=  1  0
     Eigenvalues ---    0.411691000.000001000.000001000.000001000.00000
 RFO step:  Lambda= 0.00000000D+00 EMin= 4.11692698D-01
 Quartic linear search produced a step of  0.04679.
 Variable       Old X    -DE/DX   Delta X   Delta X   Delta X     New X
                                 (Linear)    (Quad)   (Total)
    r1        3.17994   0.01532   0.00000   0.00000   0.00000   3.17994
    r2        5.48904   0.00667   0.00000   0.00000   0.00000   5.48904
    r3        1.83794  -0.00246  -0.00494   0.00000  -0.00494   1.83300
    a1        1.80694   0.01062   0.00000   0.00000   0.00000   1.80694
   OOP        0.26180   0.03042   0.00000   0.00000   0.00000   0.26180
         Item               Value     Threshold  Converged?
 Maximum Force            0.002464     0.000450     NO 
 RMS     Force            0.002464     0.000300     NO 
 Maximum Displacement     0.004936     0.001800     NO 
 RMS     Displacement     0.002208     0.001200     NO 
 Predicted change in Energy=-7.147740D-06
 Lowest energy point so far.  Saving SCF results.
 GradGradGradGradGradGradGradGradGradGradGradGradGradGradGradGradGradGrad

 Leave Link  103 at Thu Sep 16 14:58:06 2021, MaxMem= 16106127360 cpu:               1.2 elap:               0.1
 (Enter /sw/contrib/gaussian/g16/B01/g16/l202.exe)
 ---------------------------------------------------------------------------------------------------
                            Z-MATRIX (ANGSTROMS AND DEGREES)
   CD    Cent   Atom    N1       Length/X        N2       Alpha/Y        N3        Beta/Z          J
 ---------------------------------------------------------------------------------------------------
      1      1  O 
      2         X        1  10.000000(     1)
      3      2  Cl       1   1.682749(     2)      2   90.000(     5)
      4      3  Cl       1   2.904676(     3)      2   90.000(     6)      3  103.530(     8)      0
      5      4  H        1   0.969983(     4)      2   15.000(     7)      3  103.530(     9)      0
 ---------------------------------------------------------------------------------------------------
                         Z-Matrix orientation:                         
 ---------------------------------------------------------------------
 Center     Atomic      Atomic             Coordinates (Angstroms)
 Number     Number       Type             X           Y           Z
 ---------------------------------------------------------------------
      1          8           0        0.000000    0.000000    0.000000
      2         -1           0        0.000000    0.000000   10.000000
      3         17           0        1.682749    0.000000    0.000000
      4         17           0       -0.679570   -2.824062    0.000000
      5          1           0       -0.058735   -0.244083    0.936931
 ---------------------------------------------------------------------
                    Distance matrix (angstroms):
                    1          2          3          4          5
     1  O    0.000000
     2  X   10.000000   0.000000
     3  Cl   1.682749  10.140594   0.000000
     4  Cl   2.904676  10.413316   3.681831   0.000000
     5  H    0.969983   9.066545   1.992532   2.814173   0.000000
 Stoichiometry    Cl2HO(1-)
 Framework group  C1[X(Cl2HO)]
 Deg. of freedom     6
 Full point group                 C1      NOp   1
 RotChk:  IX=0 Diff= 3.20D-04
 Largest Abelian subgroup         C1      NOp   1
 Largest concise Abelian subgroup C1      NOp   1
                         Standard orientation:                         
 ---------------------------------------------------------------------
 Center     Atomic      Atomic             Coordinates (Angstroms)
 Number     Number       Type             X           Y           Z
 ---------------------------------------------------------------------
      1          8           0        0.669506    0.978414   -0.102050
      2         17           0        1.666831   -0.372939    0.002039
      3         17           0       -2.007854   -0.143712   -0.003454
      4          1           0        0.441344    0.955760    0.840444
 ---------------------------------------------------------------------
 Rotational constants (GHZ):          22.3008695           2.0516173           1.8905687
 Leave Link  202 at Thu Sep 16 14:58:06 2021, MaxMem= 16106127360 cpu:               1.0 elap:               0.1
 (Enter /sw/contrib/gaussian/g16/B01/g16/l301.exe)
 Standard basis: Aug-CC-pVTZ (5D, 7F)
 Ernie: Thresh=  0.10000D-02 Tol=  0.10000D-05 Strict=F.
 Ernie:  29 primitive shells out of 169 were deleted.
 There are   198 symmetry adapted cartesian basis functions of A   symmetry.
 There are   169 symmetry adapted basis functions of A   symmetry.
   169 basis functions,   327 primitive gaussians,   198 cartesian basis functions
    22 alpha electrons       22 beta electrons
       nuclear repulsion energy       121.1577689854 Hartrees.
 IExCor=    0 DFT=F Ex=HF Corr=None ExCW=0 ScaHFX=  1.000000
 ScaDFX=  1.000000  1.000000  1.000000  1.000000 ScalE2=  1.000000  1.000000
 IRadAn=      5 IRanWt=     -1 IRanGd=            0 ICorTp=0 IEmpDi=  4
 NAtoms=    4 NActive=    4 NUniq=    4 SFac= 1.00D+00 NAtFMM=   60 NAOKFM=F Big=F
 Integral buffers will be    131072 words long.
 Raffenetti 1 integral format.
 Two-electron integral symmetry is turned on.
 Leave Link  301 at Thu Sep 16 14:58:06 2021, MaxMem= 16106127360 cpu:               2.8 elap:               0.1
 (Enter /sw/contrib/gaussian/g16/B01/g16/l302.exe)
 NPDir=0 NMtPBC=     1 NCelOv=     1 NCel=       1 NClECP=     1 NCelD=      1
         NCelK=      1 NCelE2=     1 NClLst=     1 CellRange=     0.0.
 One-electron integrals computed using PRISM.
 One-electron integral symmetry used in STVInt
 NBasis=   169 RedAO= T EigKep=  3.12D-04  NBF=   169
 NBsUse=   169 1.00D-06 EigRej= -1.00D+00 NBFU=   169
 Leave Link  302 at Thu Sep 16 14:58:06 2021, MaxMem= 16106127360 cpu:               4.0 elap:               0.2
 (Enter /sw/contrib/gaussian/g16/B01/g16/l303.exe)
 DipDrv:  MaxL=1.
 Leave Link  303 at Thu Sep 16 14:58:06 2021, MaxMem= 16106127360 cpu:               0.9 elap:               0.1
 (Enter /sw/contrib/gaussian/g16/B01/g16/l401.exe)
 Initial guess from the checkpoint file:  "/gscratch/ilahie/mccoygrp/coire_hocl/clhocl/clhocl_75_opt.chk"
 B after Tr=     0.000000    0.000000   -0.000000
         Rot=    1.000000   -0.000011   -0.000004    0.000005 Ang=  -0.00 deg.
 Guess basis will be translated and rotated to current coordinates.
 JPrj=2 DoOrth=T DoCkMO=T.
 Leave Link  401 at Thu Sep 16 14:58:06 2021, MaxMem= 16106127360 cpu:               3.1 elap:               0.1
 (Enter /sw/contrib/gaussian/g16/B01/g16/l502.exe)
 Keep R1 ints in memory in canonical form, NReq=117118143.
 FoFCou: FMM=F IPFlag=           0 FMFlag=           0 FMFlg1=           0
         NFxFlg=           0 DoJE=F BraDBF=F KetDBF=F FulRan=T
         wScrn=  0.000000 ICntrl=       600 IOpCl=  0 I1Cent=           0 NGrid=           0
         NMat0=    1 NMatS0=  14365 NMatT0=    0 NMatD0=    1 NMtDS0=    0 NMtDT0=    0
 Symmetry not used in FoFCou.
 Two-electron integral symmetry not used.
 Closed shell SCF:
 Using DIIS extrapolation, IDIIS=  1040.
 NGot= 16106127360 LenX= 16002857927 LenY= 16002818282
 Requested convergence on RMS density matrix=1.00D-08 within 128 cycles.
 Requested convergence on MAX density matrix=1.00D-06.
 Requested convergence on             energy=1.00D-06.
 No special actions if energy rises.

 Cycle   1  Pass 1  IDiag  1:
 E= -994.488828189596    
 DIIS: error= 1.64D-04 at cycle   1 NSaved=   1.
 NSaved= 1 IEnMin= 1 EnMin= -994.488828189596     IErMin= 1 ErrMin= 1.64D-04
 ErrMax= 1.64D-04  0.00D+00 EMaxC= 1.00D-01 BMatC= 2.92D-06 BMatP= 2.92D-06
 IDIUse=3 WtCom= 9.98D-01 WtEn= 1.64D-03
 Coeff-Com:  0.100D+01
 Coeff-En:   0.100D+01
 Coeff:      0.100D+01
 Gap=     0.689 Goal=   None    Shift=    0.000
 RMSDP=1.42D-05 MaxDP=7.40D-04              OVMax= 4.37D-04

 Cycle   2  Pass 1  IDiag  1:
 E= -994.488830127424     Delta-E=       -0.000001937828 Rises=F Damp=F
 DIIS: error= 2.21D-05 at cycle   2 NSaved=   2.
 NSaved= 2 IEnMin= 2 EnMin= -994.488830127424     IErMin= 2 ErrMin= 2.21D-05
 ErrMax= 2.21D-05  0.00D+00 EMaxC= 1.00D-01 BMatC= 1.42D-07 BMatP= 2.92D-06
 IDIUse=1 WtCom= 1.00D+00 WtEn= 0.00D+00
 Coeff-Com: -0.746D-02 0.101D+01
 Coeff:     -0.746D-02 0.101D+01
 Gap=     0.299 Goal=   None    Shift=    0.000
 RMSDP=2.02D-06 MaxDP=9.26D-05 DE=-1.94D-06 OVMax= 1.21D-04

 Cycle   3  Pass 1  IDiag  1:
 E= -994.488830226567     Delta-E=       -0.000000099143 Rises=F Damp=F
 DIIS: error= 1.37D-05 at cycle   3 NSaved=   3.
 NSaved= 3 IEnMin= 3 EnMin= -994.488830226567     IErMin= 3 ErrMin= 1.37D-05
 ErrMax= 1.37D-05  0.00D+00 EMaxC= 1.00D-01 BMatC= 4.02D-08 BMatP= 1.42D-07
 IDIUse=1 WtCom= 1.00D+00 WtEn= 0.00D+00
 Coeff-Com: -0.441D-01 0.316D+00 0.729D+00
 Coeff:     -0.441D-01 0.316D+00 0.729D+00
 Gap=     0.299 Goal=   None    Shift=    0.000
 RMSDP=8.03D-07 MaxDP=3.01D-05 DE=-9.91D-08 OVMax= 5.77D-05

 Cycle   4  Pass 1  IDiag  1:
 E= -994.488830258408     Delta-E=       -0.000000031841 Rises=F Damp=F
 DIIS: error= 3.21D-06 at cycle   4 NSaved=   4.
 NSaved= 4 IEnMin= 4 EnMin= -994.488830258408     IErMin= 4 ErrMin= 3.21D-06
 ErrMax= 3.21D-06  0.00D+00 EMaxC= 1.00D-01 BMatC= 2.63D-09 BMatP= 4.02D-08
 IDIUse=1 WtCom= 1.00D+00 WtEn= 0.00D+00
 Coeff-Com: -0.410D-02-0.577D-01 0.115D+00 0.947D+00
 Coeff:     -0.410D-02-0.577D-01 0.115D+00 0.947D+00
 Gap=     0.299 Goal=   None    Shift=    0.000
 RMSDP=2.78D-07 MaxDP=7.37D-06 DE=-3.18D-08 OVMax= 2.68D-05

 Cycle   5  Pass 1  IDiag  1:
 E= -994.488830262209     Delta-E=       -0.000000003801 Rises=F Damp=F
 DIIS: error= 1.19D-06 at cycle   5 NSaved=   5.
 NSaved= 5 IEnMin= 5 EnMin= -994.488830262209     IErMin= 5 ErrMin= 1.19D-06
 ErrMax= 1.19D-06  0.00D+00 EMaxC= 1.00D-01 BMatC= 2.04D-10 BMatP= 2.63D-09
 IDIUse=1 WtCom= 1.00D+00 WtEn= 0.00D+00
 Coeff-Com:  0.418D-02-0.270D-01-0.748D-01-0.805D-01 0.118D+01
 Coeff:      0.418D-02-0.270D-01-0.748D-01-0.805D-01 0.118D+01
 Gap=     0.299 Goal=   None    Shift=    0.000
 RMSDP=1.68D-07 MaxDP=6.49D-06 DE=-3.80D-09 OVMax= 1.44D-05

 Cycle   6  Pass 1  IDiag  1:
 E= -994.488830262833     Delta-E=       -0.000000000624 Rises=F Damp=F
 DIIS: error= 3.48D-07 at cycle   6 NSaved=   6.
 NSaved= 6 IEnMin= 6 EnMin= -994.488830262833     IErMin= 6 ErrMin= 3.48D-07
 ErrMax= 3.48D-07  0.00D+00 EMaxC= 1.00D-01 BMatC= 2.13D-11 BMatP= 2.04D-10
 IDIUse=1 WtCom= 1.00D+00 WtEn= 0.00D+00
 Coeff-Com: -0.428D-03 0.786D-02 0.377D-02-0.486D-01-0.257D+00 0.129D+01
 Coeff:     -0.428D-03 0.786D-02 0.377D-02-0.486D-01-0.257D+00 0.129D+01
 Gap=     0.299 Goal=   None    Shift=    0.000
 RMSDP=6.37D-08 MaxDP=2.02D-06 DE=-6.24D-10 OVMax= 6.54D-06

 Cycle   7  Pass 1  IDiag  1:
 E= -994.488830262923     Delta-E=       -0.000000000090 Rises=F Damp=F
 DIIS: error= 1.17D-07 at cycle   7 NSaved=   7.
 NSaved= 7 IEnMin= 7 EnMin= -994.488830262923     IErMin= 7 ErrMin= 1.17D-07
 ErrMax= 1.17D-07  0.00D+00 EMaxC= 1.00D-01 BMatC= 3.25D-12 BMatP= 2.13D-11
 IDIUse=1 WtCom= 1.00D+00 WtEn= 0.00D+00
 Coeff-Com: -0.521D-03 0.208D-02 0.116D-01 0.292D-01-0.150D+00-0.170D+00
 Coeff-Com:  0.128D+01
 Coeff:     -0.521D-03 0.208D-02 0.116D-01 0.292D-01-0.150D+00-0.170D+00
 Coeff:      0.128D+01
 Gap=     0.299 Goal=   None    Shift=    0.000
 RMSDP=2.65D-08 MaxDP=5.27D-07 DE=-9.00D-11 OVMax= 3.08D-06

 Cycle   8  Pass 1  IDiag  1:
 E= -994.488830262940     Delta-E=       -0.000000000017 Rises=F Damp=F
 DIIS: error= 3.95D-08 at cycle   8 NSaved=   8.
 NSaved= 8 IEnMin= 8 EnMin= -994.488830262940     IErMin= 8 ErrMin= 3.95D-08
 ErrMax= 3.95D-08  0.00D+00 EMaxC= 1.00D-01 BMatC= 3.50D-13 BMatP= 3.25D-12
 IDIUse=1 WtCom= 1.00D+00 WtEn= 0.00D+00
 Coeff-Com:  0.190D-03-0.147D-02-0.352D-02-0.353D-02 0.645D-01-0.440D-01
 Coeff-Com: -0.495D+00 0.148D+01
 Coeff:      0.190D-03-0.147D-02-0.352D-02-0.353D-02 0.645D-01-0.440D-01
 Coeff:     -0.495D+00 0.148D+01
 Gap=     0.299 Goal=   None    Shift=    0.000
 RMSDP=1.09D-08 MaxDP=2.62D-07 DE=-1.66D-11 OVMax= 1.37D-06

 Cycle   9  Pass 1  IDiag  1:
 E= -994.488830262945     Delta-E=       -0.000000000005 Rises=F Damp=F
 DIIS: error= 1.28D-08 at cycle   9 NSaved=   9.
 NSaved= 9 IEnMin= 9 EnMin= -994.488830262945     IErMin= 9 ErrMin= 1.28D-08
 ErrMax= 1.28D-08  0.00D+00 EMaxC= 1.00D-01 BMatC= 3.20D-14 BMatP= 3.50D-13
 IDIUse=1 WtCom= 1.00D+00 WtEn= 0.00D+00
 Coeff-Com:  0.327D-04-0.112D-03-0.602D-03-0.213D-02 0.526D-02 0.315D-01
 Coeff-Com: -0.978D-01-0.131D+00 0.119D+01
 Coeff:      0.327D-04-0.112D-03-0.602D-03-0.213D-02 0.526D-02 0.315D-01
 Coeff:     -0.978D-01-0.131D+00 0.119D+01
 Gap=     0.299 Goal=   None    Shift=    0.000
 RMSDP=2.94D-09 MaxDP=7.38D-08 DE=-5.23D-12 OVMax= 3.73D-07

 SCF Done:  E(RHF) =  -994.488830263     A.U. after    9 cycles
            NFock=  9  Conv=0.29D-08     -V/T= 2.0001
 KE= 9.944110499221D+02 PE=-2.620081338765D+03 EE= 5.100236895948D+02
 Leave Link  502 at Thu Sep 16 14:58:09 2021, MaxMem= 16106127360 cpu:              24.2 elap:               2.5
 (Enter /sw/contrib/gaussian/g16/B01/g16/l801.exe)
 ExpMin= 2.53D-02 ExpMax= 4.56D+05 ExpMxC= 1.44D+03 IAcc=3 IRadAn=         5 AccDes= 0.00D+00
 HarFok:  IExCor=  205 AccDes= 0.00D+00 IRadAn=         5 IDoV=-2 UseB2=F ITyADJ=14
 ICtDFT= 12500011 ScaDFX=  1.000000  1.000000  1.000000  1.000000
 Largest valence mixing into a core orbital is  4.47D-04
 Largest core mixing into a valence orbital is  1.76D-04
 Range of M.O.s used for correlation:    12   169
 NBasis=   169 NAE=    22 NBE=    22 NFC=    11 NFV=     0
 NROrb=    158 NOA=    11 NOB=    11 NVA=   147 NVB=   147

 **** Warning!!: The largest alpha MO coefficient is  0.14923586D+02

 Leave Link  801 at Thu Sep 16 14:58:09 2021, MaxMem= 16106127360 cpu:               2.4 elap:               0.1
 (Enter /sw/contrib/gaussian/g16/B01/g16/l906.exe)
 Frozen-core derivative calculation, NFC=  11 NFV=   0.
 FulOut=F Deriv=T AODrv=T NAtomX=     4
   MMem=         143  MDisk=          11 MDiskD=          11
  W3Min=      736164 MinDsk=     1250177 NBas6D=         198
 NBas2D=       20187    NTT=       19701    LW2=     3500000
    MDV= 16105748878 MDiskM=      406660 NBas2p=       20117
 Fully direct method using O(ONN) memory.
 IMap=   1   2   3   4   5   6   7   8   9  10  11  12  13  14  15  16  17  18  19  20
 IMap=  21  22
 JobTyp=1 Pass  1:  I=  12 to  22 NPSUse= 28 ParTrn=T ParDer=T DoDerP=T.
 Spin components of T(2) and E(2):
     alpha-alpha T2 =       0.2904553480D-01 E2=     -0.8326990771D-01
     alpha-beta  T2 =       0.1596869591D+00 E2=     -0.4970856392D+00
     beta-beta   T2 =       0.2904553480D-01 E2=     -0.8326990771D-01
 The integrals were generated   1 times.
 ANorm=    0.1103529804D+01
 E2 =    -0.6636254546D+00 EUMP2 =    -0.99515245571754D+03
 Leave Link  906 at Thu Sep 16 14:58:20 2021, MaxMem= 16106127360 cpu:             304.4 elap:              10.9
 (Enter /sw/contrib/gaussian/g16/B01/g16/l1002.exe)
 Minotr:  Closed shell wavefunction.
          Computing MP2/KS-MP2 derivatives.
          Using Z-Vector for PSCF gradient.
          Skipping F1 and S1 gradient terms here.
          IDoAtm=1111
          Frozen-core window.
          Direct CPHF calculation.
          Differentiating once with respect to electric field.
                with respect to dipole field.
          Differentiating once with respect to nuclear coordinates.
          Requested convergence is 1.0D-10 RMS, and 1.0D-09 maximum.
          NewPWx=F KeepS1=T KeepF1=T KeepIn=T MapXYZ=F SortEE=F KeepMc=T.
 Keep R1 ints in memory in canonical form, NReq=117123183.
 FoFCou: FMM=F IPFlag=           0 FMFlag=           0 FMFlg1=           0
         NFxFlg=           0 DoJE=F BraDBF=F KetDBF=F FulRan=T
         wScrn=  0.000000 ICntrl=       600 IOpCl=  0 I1Cent=           0 NGrid=           0
         NMat0=    1 NMatS0=  14365 NMatT0=    0 NMatD0=    1 NMtDS0=    0 NMtDT0=    0
 Symmetry not used in FoFCou.
 Two-electron integral symmetry not used.
          MDV=   16106127360 using IRadAn=       5.
          Solving linear equations separately, MaxMat=       0.
          There are     1 degrees of freedom in the 1st order CPHF.  IDoFFX=0 NUNeed=     1.
 LinEq1:  Iter=  0 NonCon=     1 RMS=3.08D-03 Max=4.62D-02 NDo=     1
 AX will form     1 AO Fock derivatives at one time.
 LinEq1:  Iter=  1 NonCon=     1 RMS=4.14D-04 Max=4.52D-03 NDo=     1
 LinEq1:  Iter=  2 NonCon=     1 RMS=1.59D-04 Max=1.92D-03 NDo=     1
 LinEq1:  Iter=  3 NonCon=     1 RMS=6.14D-05 Max=9.79D-04 NDo=     1
 LinEq1:  Iter=  4 NonCon=     1 RMS=2.89D-05 Max=3.99D-04 NDo=     1
 LinEq1:  Iter=  5 NonCon=     1 RMS=9.09D-06 Max=1.40D-04 NDo=     1
 LinEq1:  Iter=  6 NonCon=     1 RMS=2.80D-06 Max=3.55D-05 NDo=     1
 LinEq1:  Iter=  7 NonCon=     1 RMS=8.00D-07 Max=8.38D-06 NDo=     1
 LinEq1:  Iter=  8 NonCon=     1 RMS=1.78D-07 Max=3.02D-06 NDo=     1
 LinEq1:  Iter=  9 NonCon=     1 RMS=5.34D-08 Max=7.07D-07 NDo=     1
 LinEq1:  Iter= 10 NonCon=     1 RMS=1.51D-08 Max=1.74D-07 NDo=     1
 LinEq1:  Iter= 11 NonCon=     1 RMS=3.83D-09 Max=3.35D-08 NDo=     1
 LinEq1:  Iter= 12 NonCon=     1 RMS=1.10D-09 Max=1.09D-08 NDo=     1
 LinEq1:  Iter= 13 NonCon=     1 RMS=2.85D-10 Max=2.18D-09 NDo=     1
 LinEq1:  Iter= 14 NonCon=     0 RMS=5.97D-11 Max=7.90D-10 NDo=     1
 Linear equations converged to 1.000D-10 1.000D-09 after    14 iterations.
 End of Minotr F.D. properties file   721 does not exist.
 End of Minotr F.D. properties file   722 does not exist.
 End of Minotr F.D. properties file   788 does not exist.
 Leave Link 1002 at Thu Sep 16 14:58:24 2021, MaxMem= 16106127360 cpu:              28.4 elap:               3.8
 (Enter /sw/contrib/gaussian/g16/B01/g16/l701.exe)
 ... and contract with generalized density number  2.
 Compute integral first derivatives.
 Leave Link  701 at Thu Sep 16 14:58:24 2021, MaxMem= 16106127360 cpu:               5.2 elap:               0.2
 (Enter /sw/contrib/gaussian/g16/B01/g16/l702.exe)
 L702 exits ... SP integral derivatives will be done elsewhere.
 Leave Link  702 at Thu Sep 16 14:58:24 2021, MaxMem= 16106127360 cpu:               2.0 elap:               0.2
 (Enter /sw/contrib/gaussian/g16/B01/g16/l703.exe)
 Integral derivatives from FoFJK, PRISM(SPDF).
 Compute integral first derivatives, UseDBF=F ICtDFT=           0.
 Calling FoFJK, ICntrl=  10002127 FMM=F ISym2X=0 I1Cent= 0 IOpClX= 0 NMat=1 NMatS=1 NMatT=0.
 FoFJK:  IHMeth= 1 ICntrl=10002127 DoSepK=F KAlg= 0 I1Cent=           0 FoldK=F
 IRaf=         0 NMat=       1 IRICut=       1 DoRegI=T DoRafI=F ISym2E= 0 IDoP0=0 IntGTp=1.
 FoFCou: FMM=F IPFlag=           0 FMFlag=      100000 FMFlg1=         800
         NFxFlg=           0 DoJE=F BraDBF=F KetDBF=F FulRan=T
         wScrn=  0.000000 ICntrl=  10002127 IOpCl=  0 I1Cent=           0 NGrid=           0
         NMat0=    1 NMatS0=      1 NMatT0=    0 NMatD0=    1 NMtDS0=    0 NMtDT0=    0
 Symmetry not used in FoFCou.
 Leave Link  703 at Thu Sep 16 14:58:26 2021, MaxMem= 16106127360 cpu:              40.5 elap:               1.5
 (Enter /sw/contrib/gaussian/g16/B01/g16/l716.exe)
 Dipole        = 3.19408565D+00 2.73762372D-01 4.50202714D-01
 ***** Axes restored to original set *****
 -------------------------------------------------------------------
 Center     Atomic                   Forces (Hartrees/Bohr)
 Number     Number              X              Y              Z
 -------------------------------------------------------------------
      1        8           0.007104343    0.014604105    0.009864233
      2       17           0.015277158    0.003343770   -0.009794169
      3       17          -0.002006291   -0.006375662    0.004209128
      4        1          -0.020375209   -0.011572213   -0.004279192
 -------------------------------------------------------------------
 Cartesian Forces:  Max     0.020375209 RMS     0.010532966
 -----------------------------------------------------------------------------------------------
                       Internal Coordinate Forces (Hartree/Bohr or radian)
  Cent   Atom   N1       Length/X         N2         Alpha/Y        N3         Beta/Z          J
 -----------------------------------------------------------------------------------------------
      1  O 
         X        1   0.000000(     1)
      2  Cl       1   0.015277(     2)      2   0.031145(     5)
      3  Cl       1   0.006668(     3)      2  -0.023104(     6)      3   0.002519(     8)     0
      4  H        1   0.000012(     4)      2   0.030391(     7)      3   0.008114(     9)     0
 -----------------------------------------------------------------------------------------------
 Internal  Forces:  Max     0.031144827 RMS     0.017567086
 Leave Link  716 at Thu Sep 16 14:58:26 2021, MaxMem= 16106127360 cpu:               1.3 elap:               0.1
 (Enter /sw/contrib/gaussian/g16/B01/g16/l103.exe)

 GradGradGradGradGradGradGradGradGradGradGradGradGradGradGradGradGradGrad
 Berny optimization.
 Search for a local minimum.
 Step number   3 out of a maximum of   20
 All quantities printed in internal units (Hartrees-Bohrs-Radians)
 Update second derivatives using D2CorN and points    2    3
 DE= -6.08D-06 DEPred=-7.15D-06 R= 8.50D-01
 TightC=F SS=  1.41D+00  RLast= 4.94D-03 DXNew= 5.3231D-01 1.4808D-02
 Trust test= 8.50D-01 RLast= 4.94D-03 DXMaxT set to 3.17D-01
 The second derivative matrix:
                          r1        r2        r3        a1        OOP
           r1           0.38049
           r2           0.00000   0.02777
           r3          -0.00640  -0.00049   0.50171
           a1           0.00000   0.00000   0.00186   0.26018
           OOP          0.00000   0.00000  -0.00443   0.00913   0.16820
 ITU=  1  1  0
     Eigenvalues ---    0.501711000.000001000.000001000.000001000.00000
 RFO step:  Lambda= 0.00000000D+00 EMin= 5.01707239D-01
 Quartic linear search produced a step of -0.00494.
 Variable       Old X    -DE/DX   Delta X   Delta X   Delta X     New X
                                 (Linear)    (Quad)   (Total)
    r1        3.17994   0.01528   0.00000   0.00000   0.00000   3.17994
    r2        5.48904   0.00667   0.00000   0.00000   0.00000   5.48904
    r3        1.83300   0.00001   0.00002   0.00000   0.00002   1.83303
    a1        1.80694   0.01063   0.00000   0.00000   0.00000   1.80694
   OOP        0.26180   0.03039   0.00000   0.00000   0.00000   0.26180
         Item               Value     Threshold  Converged?
 Maximum Force            0.000012     0.000450     YES
 RMS     Force            0.000012     0.000300     YES
 Maximum Displacement     0.000024     0.001800     YES
 RMS     Displacement     0.000011     0.001200     YES
 Predicted change in Energy=-1.525909D-10
 Optimization completed.
    -- Stationary point found.
                       ----------------------------
                       !   Optimized Parameters   !
                       ! (Angstroms and Degrees)  !
 ----------------------                            ----------------------
 !      Name          Value   Derivative information (Atomic Units)     !
 ------------------------------------------------------------------------
 !       r1          1.6827   -DE/DX =    0.0153                        !
 !       r2          2.9047   -DE/DX =    0.0067                        !
 !       r3          0.97     -DE/DX =    0.0                           !
 !       a1        103.5302   -DE/DX =    0.0106                        !
 !       OOP        15.0      -DE/DX =    0.0304                        !
 ------------------------------------------------------------------------
 Lowest energy point so far.  Saving SCF results.
 Largest change from initial coordinates is atom    4       0.052 Angstoms.
 GradGradGradGradGradGradGradGradGradGradGradGradGradGradGradGradGradGrad

 Leave Link  103 at Thu Sep 16 14:58:26 2021, MaxMem= 16106127360 cpu:               0.5 elap:               0.0
 (Enter /sw/contrib/gaussian/g16/B01/g16/l202.exe)
 ---------------------------------------------------------------------------------------------------
                            Z-MATRIX (ANGSTROMS AND DEGREES)
   CD    Cent   Atom    N1       Length/X        N2       Alpha/Y        N3        Beta/Z          J
 ---------------------------------------------------------------------------------------------------
      1      1  O 
      2         X        1  10.000000(     1)
      3      2  Cl       1   1.682749(     2)      2   90.000(     5)
      4      3  Cl       1   2.904676(     3)      2   90.000(     6)      3  103.530(     8)      0
      5      4  H        1   0.969983(     4)      2   15.000(     7)      3  103.530(     9)      0
 ---------------------------------------------------------------------------------------------------
                         Z-Matrix orientation:                         
 ---------------------------------------------------------------------
 Center     Atomic      Atomic             Coordinates (Angstroms)
 Number     Number       Type             X           Y           Z
 ---------------------------------------------------------------------
      1          8           0        0.000000    0.000000    0.000000
      2         -1           0        0.000000    0.000000   10.000000
      3         17           0        1.682749    0.000000    0.000000
      4         17           0       -0.679570   -2.824062    0.000000
      5          1           0       -0.058735   -0.244083    0.936931
 ---------------------------------------------------------------------
                    Distance matrix (angstroms):
                    1          2          3          4          5
     1  O    0.000000
     2  X   10.000000   0.000000
     3  Cl   1.682749  10.140594   0.000000
     4  Cl   2.904676  10.413316   3.681831   0.000000
     5  H    0.969983   9.066545   1.992532   2.814173   0.000000
 Stoichiometry    Cl2HO(1-)
 Framework group  C1[X(Cl2HO)]
 Deg. of freedom     6
 Full point group                 C1      NOp   1
 RotChk:  IX=0 Diff= 3.14D-16
 Largest Abelian subgroup         C1      NOp   1
 Largest concise Abelian subgroup C1      NOp   1
                         Standard orientation:                         
 ---------------------------------------------------------------------
 Center     Atomic      Atomic             Coordinates (Angstroms)
 Number     Number       Type             X           Y           Z
 ---------------------------------------------------------------------
      1          8           0        0.669506    0.978414   -0.102050
      2         17           0        1.666831   -0.372939    0.002039
      3         17           0       -2.007854   -0.143712   -0.003454
      4          1           0        0.441344    0.955760    0.840444
 ---------------------------------------------------------------------
 Rotational constants (GHZ):          22.3008695           2.0516173           1.8905687
 Leave Link  202 at Thu Sep 16 14:58:26 2021, MaxMem= 16106127360 cpu:               0.4 elap:               0.0
 (Enter /sw/contrib/gaussian/g16/B01/g16/l601.exe)
 Copying SCF densities to generalized density rwf, IOpCl= 0 IROHF=0.

 **********************************************************************

            Population analysis using the MP2 Density.

 **********************************************************************

 Orbital symmetries:
       Occupied  (A) (A) (A) (A) (A) (A) (A) (A) (A) (A) (A) (A)
                 (A) (A) (A) (A) (A) (A) (A) (A) (A) (A)
       Virtual   (A) (A) (A) (A) (A) (A) (A) (A) (A) (A) (A) (A)
                 (A) (A) (A) (A) (A) (A) (A) (A) (A) (A) (A) (A)
                 (A) (A) (A) (A) (A) (A) (A) (A) (A) (A) (A) (A)
                 (A) (A) (A) (A) (A) (A) (A) (A) (A) (A) (A) (A)
                 (A) (A) (A) (A) (A) (A) (A) (A) (A) (A) (A) (A)
                 (A) (A) (A) (A) (A) (A) (A) (A) (A) (A) (A) (A)
                 (A) (A) (A) (A) (A) (A) (A) (A) (A) (A) (A) (A)
                 (A) (A) (A) (A) (A) (A) (A) (A) (A) (A) (A) (A)
                 (A) (A) (A) (A) (A) (A) (A) (A) (A) (A) (A) (A)
                 (A) (A) (A) (A) (A) (A) (A) (A) (A) (A) (A) (A)
                 (A) (A) (A) (A) (A) (A) (A) (A) (A) (A) (A) (A)
                 (A) (A) (A) (A) (A) (A) (A) (A) (A) (A) (A) (A)
                 (A) (A) (A)
 The electronic state is 1-A.
 Alpha  occ. eigenvalues -- -104.74279-104.51003 -20.48920 -10.46275 -10.23437
 Alpha  occ. eigenvalues --   -7.92996  -7.92719  -7.92697  -7.70043  -7.70039
 Alpha  occ. eigenvalues --   -7.70036  -1.26462  -0.90867  -0.74199  -0.56711
 Alpha  occ. eigenvalues --   -0.46306  -0.45328  -0.32242  -0.29488  -0.15873
 Alpha  occ. eigenvalues --   -0.15758  -0.15470
 Alpha virt. eigenvalues --    0.14390   0.17586   0.21964   0.23233   0.26615
 Alpha virt. eigenvalues --    0.27024   0.28098   0.29310   0.29740   0.30616
 Alpha virt. eigenvalues --    0.31792   0.35461   0.39388   0.41884   0.44260
 Alpha virt. eigenvalues --    0.46326   0.52858   0.53450   0.55004   0.55862
 Alpha virt. eigenvalues --    0.57244   0.58594   0.60132   0.61580   0.64356
 Alpha virt. eigenvalues --    0.66109   0.66709   0.67961   0.75574   0.80416
 Alpha virt. eigenvalues --    0.84625   0.85390   0.86346   0.89487   0.90514
 Alpha virt. eigenvalues --    0.91674   0.94246   0.96912   1.02726   1.05586
 Alpha virt. eigenvalues --    1.07111   1.08545   1.10231   1.13038   1.15197
 Alpha virt. eigenvalues --    1.16289   1.17068   1.19225   1.19998   1.21645
 Alpha virt. eigenvalues --    1.22672   1.23075   1.25357   1.25779   1.26140
 Alpha virt. eigenvalues --    1.28687   1.31537   1.38462   1.39108   1.43938
 Alpha virt. eigenvalues --    1.45703   1.47148   1.48189   1.50689   1.51786
 Alpha virt. eigenvalues --    1.54240   1.60326   1.64193   1.64993   1.69205
 Alpha virt. eigenvalues --    1.71497   1.73340   1.75346   1.86477   1.93074
 Alpha virt. eigenvalues --    2.00537   2.11325   2.29378   2.42952   2.45948
 Alpha virt. eigenvalues --    2.47994   2.52866   2.56481   2.59832   2.63216
 Alpha virt. eigenvalues --    2.66829   2.68905   2.69708   2.71565   2.75197
 Alpha virt. eigenvalues --    2.77527   2.80293   2.82992   2.83346   2.87265
 Alpha virt. eigenvalues --    2.88290   2.90192   2.94311   2.99215   2.99914
 Alpha virt. eigenvalues --    3.02029   3.09526   3.14735   3.17577   3.21021
 Alpha virt. eigenvalues --    3.23031   3.23601   3.29163   3.30499   3.36718
 Alpha virt. eigenvalues --    3.37102   3.40093   3.40876   3.42432   3.50299
 Alpha virt. eigenvalues --    3.52279   3.56773   3.58495   3.64948   3.92621
 Alpha virt. eigenvalues --    3.94842   4.33472   4.42515   4.52610   4.59355
 Alpha virt. eigenvalues --    4.76724   4.91529   5.03875   5.39107   5.46422
 Alpha virt. eigenvalues --    5.67292   5.80013   6.38703   6.62301   6.81292
 Alpha virt. eigenvalues --    6.90052   6.92801   6.98697   7.35224   7.36412
 Alpha virt. eigenvalues --    7.39379   7.41607   7.48250   7.64412   7.68233
 Alpha virt. eigenvalues --    8.41779  14.87731
          Condensed to atoms (all electrons):
               1          2          3          4
     1  O    8.471701  -0.138002  -0.088314   0.096435
     2  Cl  -0.138002  17.062338   0.002657   0.001810
     3  Cl  -0.088314   0.002657  18.043578   0.019254
     4  H    0.096435   0.001810   0.019254   0.634702
 Mulliken charges:
               1
     1  O   -0.341820
     2  Cl   0.071196
     3  Cl  -0.977174
     4  H    0.247798
 Sum of Mulliken charges =  -1.00000
 Mulliken charges with hydrogens summed into heavy atoms:
               1
     1  O   -0.094022
     2  Cl   0.071196
     3  Cl  -0.977174
 Electronic spatial extent (au):  <R**2>=            567.2950
 Charge=             -1.0000 electrons
 Dipole moment (field-independent basis, Debye):
    X=              8.1186    Y=              0.6958    Z=              1.1443  Tot=              8.2283
 Quadrupole moment (field-independent basis, Debye-Ang):
   XX=            -58.9628   YY=            -36.5663   ZZ=            -35.2823
   XY=             -2.5636   XZ=              0.6949   YZ=              1.5418
 Traceless Quadrupole moment (field-independent basis, Debye-Ang):
   XX=            -15.3590   YY=              7.0375   ZZ=              8.3215
   XY=             -2.5636   XZ=              0.6949   YZ=              1.5418
 Octapole moment (field-independent basis, Debye-Ang**2):
  XXX=             61.1168  YYY=              2.1376  ZZZ=              0.6307  XYY=              9.6514
  XXY=              1.1044  XXZ=             -1.2299  XZZ=              9.3123  YZZ=              3.1387
  YYZ=              1.4267  XYZ=              0.4377
 Hexadecapole moment (field-independent basis, Debye-Ang**3):
 XXXX=           -804.6613 YYYY=           -100.4039 ZZZZ=            -53.4412 XXXY=            -15.6149
 XXXZ=              1.5064 YYYX=             -8.5060 YYYZ=              1.7457 ZZZX=              1.0614
 ZZZY=              1.6339 XXYY=           -133.1426 XXZZ=           -129.6505 YYZZ=            -24.6344
 XXYZ=              0.0112 YYXZ=              1.0047 ZZXY=              0.2021
 N-N= 1.211577689854D+02 E-N=-2.620120357500D+03  KE= 9.950770378900D+02
 No NMR shielding tensors so no spin-rotation constants.
 Leave Link  601 at Thu Sep 16 14:58:26 2021, MaxMem= 16106127360 cpu:               4.1 elap:               0.2
 (Enter /sw/contrib/gaussian/g16/B01/g16/l9999.exe)
 1\1\GINC-N2114\POpt\RMP2-FC\Aug-CC-pVTZ\Cl2H1O1(1-)\CGAVINH\16-Sep-202
 1\1\\#p opt=(z-matrix) mp2/aug-cc-pvtz density=current\\title\\-1,1\O\
 X,1,10.\Cl,1,r1,2,90.\Cl,1,r2,2,90.,3,a1,0\H,1,r3,2,OOP,3,a1,0\\r3=0.9
 6998256\r1=1.68274942\r2=2.9046761\a1=103.53015674\OOP=15.\\Version=ES
 64L-G16RevB.01\State=1-A\HF=-994.4888303\MP2=-995.1524557\RMSD=2.938e-
 09\RMSF=1.053e-02\Dipole=3.1940857,0.2737624,0.4502027\Quadrupole=-11.
 4190657,5.2322003,6.1868654,-1.9059745,0.5166198,1.1462921\PG=C01 [X(C
 l2H1O1)]\\@


 WE ARE REACHING THE STAGE WHERE THE PROBLEMS WE MUST SOLVE ARE 
 GOING TO BECOME INSOLUBLE WITHOUT COMPUTERS.
 I DO NOT FEAR COMPUTERS.  I FEAR THE LACK OF THEM.

                                   -- ISSAC ASIMOV
 Job cpu time:       0 days  0 hours 21 minutes 50.2 seconds.
 Elapsed time:       0 days  0 hours  1 minutes  3.0 seconds.
 File lengths (MBytes):  RWF=     19 Int=      0 D2E=      0 Chk=      8 Scr=      1
 Normal termination of Gaussian 16 at Thu Sep 16 14:58:26 2021.
