 Entering Gaussian System, Link 0=g16
 Input=clhod_oop_30_sp.gjf
 Output=clhod_oop_30_sp.log
 Initial command:
 /sw/contrib/gaussian/g16/B01/g16/l1.exe "/scr/Gau-3452.inp" -scrdir="/scr/"
 Entering Link 1 = /sw/contrib/gaussian/g16/B01/g16/l1.exe PID=      3453.
  
 Copyright (c) 1988-2017, Gaussian, Inc.  All Rights Reserved.
  
 This is part of the Gaussian(R) 16 program.  It is based on
 the Gaussian(R) 09 system (copyright 2009, Gaussian, Inc.),
 the Gaussian(R) 03 system (copyright 2003, Gaussian, Inc.),
 the Gaussian(R) 98 system (copyright 1998, Gaussian, Inc.),
 the Gaussian(R) 94 system (copyright 1995, Gaussian, Inc.),
 the Gaussian 92(TM) system (copyright 1992, Gaussian, Inc.),
 the Gaussian 90(TM) system (copyright 1990, Gaussian, Inc.),
 the Gaussian 88(TM) system (copyright 1988, Gaussian, Inc.),
 the Gaussian 86(TM) system (copyright 1986, Carnegie Mellon
 University), and the Gaussian 82(TM) system (copyright 1983,
 Carnegie Mellon University). Gaussian is a federally registered
 trademark of Gaussian, Inc.
  
 This software contains proprietary and confidential information,
 including trade secrets, belonging to Gaussian, Inc.
  
 This software is provided under written license and may be
 used, copied, transmitted, or stored only in accord with that
 written license.
  
 The following legend is applicable only to US Government
 contracts under FAR:
  
                    RESTRICTED RIGHTS LEGEND
  
 Use, reproduction and disclosure by the US Government is
 subject to restrictions as set forth in subparagraphs (a)
 and (c) of the Commercial Computer Software - Restricted
 Rights clause in FAR 52.227-19.
  
 Gaussian, Inc.
 340 Quinnipiac St., Bldg. 40, Wallingford CT 06492
  
  
 ---------------------------------------------------------------
 Warning -- This program may not be used in any manner that
 competes with the business of Gaussian, Inc. or will provide
 assistance to any competitor of Gaussian, Inc.  The licensee
 of this program is prohibited from giving any competitor of
 Gaussian, Inc. access to this program.  By using this program,
 the user acknowledges that Gaussian, Inc. is engaged in the
 business of creating and licensing software in the field of
 computational chemistry and represents and warrants to the
 licensee that it is not a competitor of Gaussian, Inc. and that
 it will not use this program in any manner prohibited above.
 ---------------------------------------------------------------
  

 Cite this work as:
 Gaussian 16, Revision B.01,
 M. J. Frisch, G. W. Trucks, H. B. Schlegel, G. E. Scuseria, 
 M. A. Robb, J. R. Cheeseman, G. Scalmani, V. Barone, 
 G. A. Petersson, H. Nakatsuji, X. Li, M. Caricato, A. V. Marenich, 
 J. Bloino, B. G. Janesko, R. Gomperts, B. Mennucci, H. P. Hratchian, 
 J. V. Ortiz, A. F. Izmaylov, J. L. Sonnenberg, D. Williams-Young, 
 F. Ding, F. Lipparini, F. Egidi, J. Goings, B. Peng, A. Petrone, 
 T. Henderson, D. Ranasinghe, V. G. Zakrzewski, J. Gao, N. Rega, 
 G. Zheng, W. Liang, M. Hada, M. Ehara, K. Toyota, R. Fukuda, 
 J. Hasegawa, M. Ishida, T. Nakajima, Y. Honda, O. Kitao, H. Nakai, 
 T. Vreven, K. Throssell, J. A. Montgomery, Jr., J. E. Peralta, 
 F. Ogliaro, M. J. Bearpark, J. J. Heyd, E. N. Brothers, K. N. Kudin, 
 V. N. Staroverov, T. A. Keith, R. Kobayashi, J. Normand, 
 K. Raghavachari, A. P. Rendell, J. C. Burant, S. S. Iyengar, 
 J. Tomasi, M. Cossi, J. M. Millam, M. Klene, C. Adamo, R. Cammi, 
 J. W. Ochterski, R. L. Martin, K. Morokuma, O. Farkas, 
 J. B. Foresman, and D. J. Fox, Gaussian, Inc., Wallingford CT, 2016.
 
 ******************************************
 Gaussian 16:  ES64L-G16RevB.01 20-Dec-2017
                19-Oct-2021 
 ******************************************
 %nproc=28
 Will use up to   28 processors via shared memory.
 %mem=120GB
 %chk=/gscratch/ilahie/mccoygrp/coire_hocl/oop_s_rOH_opt/clhod/clhod_oop_30_sp.ch
 k
 ----------------------------------------------------
 #p pop=NBO SP NoSymm mp2/aug-cc-pvtz density=current
 ----------------------------------------------------
 1/30=1,38=1,172=1/1;
 2/12=2,15=1,17=6,18=5,40=1/2;
 3/5=16,6=1,7=10,11=9,25=1,30=1,71=1/1,2,3;
 4//1;
 5/5=2,38=5/2;
 8/6=4,10=1/1;
 9/15=1,16=-3/6;
 10/5=1,13=10,31=1/2;
 6/7=2,8=2,9=2,10=2,22=-1,40=1/1,7;
 99/5=1,9=1/99;
 Leave Link    1 at Tue Oct 19 16:01:41 2021, MaxMem= 16106127360 cpu:               2.7 elap:               0.1
 (Enter /sw/contrib/gaussian/g16/B01/g16/l101.exe)
 -----
 title
 -----
 Symbolic Z-matrix:
 Charge = -1 Multiplicity = 1
 O
 X                    1     10. 
 H(iso=2)             1    r1       2     90. 
 Cl                   1    r2       2     90.      3    a1       0
 H                    1    r3       2    oop      3    a1       0
       Variables:
  r1                    0.96062                  
  r2                    3.08955                  
  r3                    0.97913                  
  a1                  101.71721                  
  OOP                  60.                       
 
 ITRead=  0  0  0  0
 MicOpt= -1 -1 -1 -1
 NAtoms=      4 NQM=        4 NQMF=       0 NMMI=      0 NMMIF=      0
                NMic=       0 NMicF=      0.
                    Isotopes and Nuclear Properties:
 (Nuclear quadrupole moments (NQMom) in fm**2, nuclear magnetic moments (NMagM)
  in nuclear magnetons)

  Atom         1           2           3           4
 IAtWgt=          16           2          35           1
 AtmWgt=  15.9949146   2.0141018  34.9688527   1.0078250
 NucSpn=           0           2           3           1
 AtZEff=  -0.0000000  -0.0000000  -0.0000000  -0.0000000
 NQMom=    0.0000000   0.2860000  -8.1650000   0.0000000
 NMagM=    0.0000000   0.8574380   0.8218740   2.7928460
 AtZNuc=   8.0000000   1.0000000  17.0000000   1.0000000
 Leave Link  101 at Tue Oct 19 16:01:41 2021, MaxMem= 16106127360 cpu:               2.2 elap:               0.1
 (Enter /sw/contrib/gaussian/g16/B01/g16/l202.exe)
                          Input orientation:                          
 ---------------------------------------------------------------------
 Center     Atomic      Atomic             Coordinates (Angstroms)
 Number     Number       Type             X           Y           Z
 ---------------------------------------------------------------------
      1          8           0        0.000000    0.000000    0.000000
      2          1           0        0.960616    0.000000    0.000000
      3         17           0       -0.627430   -3.025169    0.000000
      4          1           0       -0.172203   -0.830282    0.489565
 ---------------------------------------------------------------------
                    Distance matrix (angstroms):
                    1          2          3          4
     1  O    0.000000
     2  H    0.960616   0.000000
     3  Cl   3.089549   3.416656   0.000000
     4  H    0.979130   1.487387   2.294436   0.000000
 Symmetry turned off by external request.
 Stoichiometry    ClH2O(1-)
 Framework group  C1[X(ClH2O)]
 Deg. of freedom     6
 Full point group                 C1      NOp   1
 Rotational constants (GHZ):         281.0922488           4.3225568           4.2738788
 Leave Link  202 at Tue Oct 19 16:01:41 2021, MaxMem= 16106127360 cpu:               1.7 elap:               0.1
 (Enter /sw/contrib/gaussian/g16/B01/g16/l301.exe)
 Standard basis: Aug-CC-pVTZ (5D, 7F)
 Ernie: Thresh=  0.10000D-02 Tol=  0.10000D-05 Strict=F.
 Ernie:  16 primitive shells out of 116 were deleted.
   142 basis functions,   240 primitive gaussians,   164 cartesian basis functions
    14 alpha electrons       14 beta electrons
       nuclear repulsion energy        38.9342365158 Hartrees.
 IExCor=    0 DFT=F Ex=HF Corr=None ExCW=0 ScaHFX=  1.000000
 ScaDFX=  1.000000  1.000000  1.000000  1.000000 ScalE2=  1.000000  1.000000
 IRadAn=      5 IRanWt=     -1 IRanGd=            0 ICorTp=0 IEmpDi=  4
 NAtoms=    4 NActive=    4 NUniq=    4 SFac= 1.00D+00 NAtFMM=   60 NAOKFM=F Big=F
 Integral buffers will be    131072 words long.
 Raffenetti 1 integral format.
 Two-electron integral symmetry is turned off.
 Leave Link  301 at Tue Oct 19 16:01:41 2021, MaxMem= 16106127360 cpu:               1.7 elap:               0.1
 (Enter /sw/contrib/gaussian/g16/B01/g16/l302.exe)
 NPDir=0 NMtPBC=     1 NCelOv=     1 NCel=       1 NClECP=     1 NCelD=      1
         NCelK=      1 NCelE2=     1 NClLst=     1 CellRange=     0.0.
 One-electron integrals computed using PRISM.
 NBasis=   142 RedAO= T EigKep=  3.30D-04  NBF=   142
 NBsUse=   142 1.00D-06 EigRej= -1.00D+00 NBFU=   142
 Leave Link  302 at Tue Oct 19 16:01:41 2021, MaxMem= 16106127360 cpu:               3.7 elap:               0.2
 (Enter /sw/contrib/gaussian/g16/B01/g16/l303.exe)
 DipDrv:  MaxL=1.
 Leave Link  303 at Tue Oct 19 16:01:42 2021, MaxMem= 16106127360 cpu:               0.7 elap:               0.1
 (Enter /sw/contrib/gaussian/g16/B01/g16/l401.exe)
 ExpMin= 2.53D-02 ExpMax= 4.56D+05 ExpMxC= 1.44D+03 IAcc=3 IRadAn=         5 AccDes= 0.00D+00
 Harris functional with IExCor=  205 and IRadAn=       5 diagonalized for initial guess.
 HarFok:  IExCor=  205 AccDes= 0.00D+00 IRadAn=         5 IDoV= 1 UseB2=F ITyADJ=14
 ICtDFT=  3500011 ScaDFX=  1.000000  1.000000  1.000000  1.000000
 FoFCou: FMM=F IPFlag=           0 FMFlag=      100000 FMFlg1=           0
         NFxFlg=           0 DoJE=T BraDBF=F KetDBF=T FulRan=T
         wScrn=  0.000000 ICntrl=       500 IOpCl=  0 I1Cent=   200000004 NGrid=           0
         NMat0=    1 NMatS0=      1 NMatT0=    0 NMatD0=    1 NMtDS0=    0 NMtDT0=    0
 Symmetry not used in FoFCou.
 Harris En= -535.440346536916    
 JPrj=0 DoOrth=F DoCkMO=F.
 Leave Link  401 at Tue Oct 19 16:01:42 2021, MaxMem= 16106127360 cpu:               5.9 elap:               0.3
 (Enter /sw/contrib/gaussian/g16/B01/g16/l502.exe)
 Keep R1 ints in memory in canonical form, NReq=65346203.
 FoFCou: FMM=F IPFlag=           0 FMFlag=           0 FMFlg1=           0
         NFxFlg=           0 DoJE=F BraDBF=F KetDBF=F FulRan=T
         wScrn=  0.000000 ICntrl=       600 IOpCl=  0 I1Cent=           0 NGrid=           0
         NMat0=    1 NMatS0=  10153 NMatT0=    0 NMatD0=    1 NMtDS0=    0 NMtDT0=    0
 Symmetry not used in FoFCou.
 Two-electron integral symmetry not used.
 Closed shell SCF:
 Using DIIS extrapolation, IDIIS=  1040.
 NGot= 16106127360 LenX= 16054521101 LenY= 16054493764
 Requested convergence on RMS density matrix=1.00D-08 within 128 cycles.
 Requested convergence on MAX density matrix=1.00D-06.
 Requested convergence on             energy=1.00D-06.
 No special actions if energy rises.

 Cycle   1  Pass 1  IDiag  1:
 E= -535.504990630332    
 DIIS: error= 3.27D-02 at cycle   1 NSaved=   1.
 NSaved= 1 IEnMin= 1 EnMin= -535.504990630332     IErMin= 1 ErrMin= 3.27D-02
 ErrMax= 3.27D-02  0.00D+00 EMaxC= 1.00D-01 BMatC= 3.41D-01 BMatP= 3.41D-01
 IDIUse=3 WtCom= 6.73D-01 WtEn= 3.27D-01
 Coeff-Com:  0.100D+01
 Coeff-En:   0.100D+01
 Coeff:      0.100D+01
 Gap=     0.368 Goal=   None    Shift=    0.000
 GapD=    0.368 DampG=1.000 DampE=0.500 DampFc=0.5000 IDamp=-1.
 Damping current iteration by 5.00D-01
 RMSDP=2.22D-03 MaxDP=5.75D-02              OVMax= 1.27D-01

 Cycle   2  Pass 1  IDiag  1:
 E= -535.578445214496     Delta-E=       -0.073454584164 Rises=F Damp=T
 DIIS: error= 1.68D-02 at cycle   2 NSaved=   2.
 NSaved= 2 IEnMin= 2 EnMin= -535.578445214496     IErMin= 2 ErrMin= 1.68D-02
 ErrMax= 1.68D-02  0.00D+00 EMaxC= 1.00D-01 BMatC= 6.26D-02 BMatP= 3.41D-01
 IDIUse=3 WtCom= 8.32D-01 WtEn= 1.68D-01
 Coeff-Com: -0.480D+00 0.148D+01
 Coeff-En:   0.000D+00 0.100D+01
 Coeff:     -0.400D+00 0.140D+01
 Gap=     0.304 Goal=   None    Shift=    0.000
 RMSDP=9.04D-04 MaxDP=3.47D-02 DE=-7.35D-02 OVMax= 6.51D-02

 Cycle   3  Pass 1  IDiag  1:
 E= -535.641671025488     Delta-E=       -0.063225810992 Rises=F Damp=F
 DIIS: error= 3.84D-03 at cycle   3 NSaved=   3.
 NSaved= 3 IEnMin= 3 EnMin= -535.641671025488     IErMin= 3 ErrMin= 3.84D-03
 ErrMax= 3.84D-03  0.00D+00 EMaxC= 1.00D-01 BMatC= 2.20D-03 BMatP= 6.26D-02
 IDIUse=3 WtCom= 9.62D-01 WtEn= 3.84D-02
 Coeff-Com: -0.145D+00 0.263D+00 0.882D+00
 Coeff-En:   0.000D+00 0.000D+00 0.100D+01
 Coeff:     -0.140D+00 0.253D+00 0.886D+00
 Gap=     0.310 Goal=   None    Shift=    0.000
 RMSDP=1.56D-04 MaxDP=3.80D-03 DE=-6.32D-02 OVMax= 1.12D-02

 Cycle   4  Pass 1  IDiag  1:
 E= -535.643099387964     Delta-E=       -0.001428362476 Rises=F Damp=F
 DIIS: error= 3.77D-04 at cycle   4 NSaved=   4.
 NSaved= 4 IEnMin= 4 EnMin= -535.643099387964     IErMin= 4 ErrMin= 3.77D-04
 ErrMax= 3.77D-04  0.00D+00 EMaxC= 1.00D-01 BMatC= 4.70D-05 BMatP= 2.20D-03
 IDIUse=3 WtCom= 9.96D-01 WtEn= 3.77D-03
 Coeff-Com: -0.239D-01 0.411D-01 0.184D+00 0.798D+00
 Coeff-En:   0.000D+00 0.000D+00 0.000D+00 0.100D+01
 Coeff:     -0.238D-01 0.409D-01 0.184D+00 0.799D+00
 Gap=     0.305 Goal=   None    Shift=    0.000
 RMSDP=3.79D-05 MaxDP=8.69D-04 DE=-1.43D-03 OVMax= 2.29D-03

 Cycle   5  Pass 1  IDiag  1:
 E= -535.643148923737     Delta-E=       -0.000049535773 Rises=F Damp=F
 DIIS: error= 1.55D-04 at cycle   5 NSaved=   5.
 NSaved= 5 IEnMin= 5 EnMin= -535.643148923737     IErMin= 5 ErrMin= 1.55D-04
 ErrMax= 1.55D-04  0.00D+00 EMaxC= 1.00D-01 BMatC= 3.74D-06 BMatP= 4.70D-05
 IDIUse=3 WtCom= 9.98D-01 WtEn= 1.55D-03
 Coeff-Com:  0.149D-01-0.284D-01-0.915D-01-0.492D-01 0.115D+01
 Coeff-En:   0.000D+00 0.000D+00 0.000D+00 0.000D+00 0.100D+01
 Coeff:      0.148D-01-0.283D-01-0.914D-01-0.491D-01 0.115D+01
 Gap=     0.305 Goal=   None    Shift=    0.000
 RMSDP=2.00D-05 MaxDP=4.80D-04 DE=-4.95D-05 OVMax= 1.27D-03

 Cycle   6  Pass 1  IDiag  1:
 E= -535.643158386000     Delta-E=       -0.000009462263 Rises=F Damp=F
 DIIS: error= 3.53D-05 at cycle   6 NSaved=   6.
 NSaved= 6 IEnMin= 6 EnMin= -535.643158386000     IErMin= 6 ErrMin= 3.53D-05
 ErrMax= 3.53D-05  0.00D+00 EMaxC= 1.00D-01 BMatC= 2.28D-07 BMatP= 3.74D-06
 IDIUse=1 WtCom= 1.00D+00 WtEn= 0.00D+00
 Coeff-Com: -0.186D-02 0.410D-02 0.109D-01-0.141D-01-0.353D+00 0.135D+01
 Coeff:     -0.186D-02 0.410D-02 0.109D-01-0.141D-01-0.353D+00 0.135D+01
 Gap=     0.305 Goal=   None    Shift=    0.000
 RMSDP=6.79D-06 MaxDP=1.60D-04 DE=-9.46D-06 OVMax= 4.25D-04

 Cycle   7  Pass 1  IDiag  1:
 E= -535.643159188770     Delta-E=       -0.000000802770 Rises=F Damp=F
 DIIS: error= 5.86D-06 at cycle   7 NSaved=   7.
 NSaved= 7 IEnMin= 7 EnMin= -535.643159188770     IErMin= 7 ErrMin= 5.86D-06
 ErrMax= 5.86D-06  0.00D+00 EMaxC= 1.00D-01 BMatC= 6.83D-09 BMatP= 2.28D-07
 IDIUse=1 WtCom= 1.00D+00 WtEn= 0.00D+00
 Coeff-Com:  0.351D-04-0.255D-03-0.436D-03 0.451D-02 0.753D-01-0.434D+00
 Coeff-Com:  0.136D+01
 Coeff:      0.351D-04-0.255D-03-0.436D-03 0.451D-02 0.753D-01-0.434D+00
 Coeff:      0.136D+01
 Gap=     0.305 Goal=   None    Shift=    0.000
 RMSDP=1.27D-06 MaxDP=2.95D-05 DE=-8.03D-07 OVMax= 7.74D-05

 Cycle   8  Pass 1  IDiag  1:
 E= -535.643159211843     Delta-E=       -0.000000023073 Rises=F Damp=F
 DIIS: error= 1.18D-06 at cycle   8 NSaved=   8.
 NSaved= 8 IEnMin= 8 EnMin= -535.643159211843     IErMin= 8 ErrMin= 1.18D-06
 ErrMax= 1.18D-06  0.00D+00 EMaxC= 1.00D-01 BMatC= 2.32D-10 BMatP= 6.83D-09
 IDIUse=1 WtCom= 1.00D+00 WtEn= 0.00D+00
 Coeff-Com:  0.468D-04-0.939D-04-0.286D-03 0.219D-04 0.586D-02-0.102D-01
 Coeff-Com: -0.107D+00 0.111D+01
 Coeff:      0.468D-04-0.939D-04-0.286D-03 0.219D-04 0.586D-02-0.102D-01
 Coeff:     -0.107D+00 0.111D+01
 Gap=     0.305 Goal=   None    Shift=    0.000
 RMSDP=1.94D-07 MaxDP=5.33D-06 DE=-2.31D-08 OVMax= 1.15D-05

 Cycle   9  Pass 1  IDiag  1:
 E= -535.643159212454     Delta-E=       -0.000000000610 Rises=F Damp=F
 DIIS: error= 3.55D-07 at cycle   9 NSaved=   9.
 NSaved= 9 IEnMin= 9 EnMin= -535.643159212454     IErMin= 9 ErrMin= 3.55D-07
 ErrMax= 3.55D-07  0.00D+00 EMaxC= 1.00D-01 BMatC= 2.13D-11 BMatP= 2.32D-10
 IDIUse=1 WtCom= 1.00D+00 WtEn= 0.00D+00
 Coeff-Com: -0.983D-05 0.361D-04 0.766D-04-0.375D-03-0.744D-02 0.408D-01
 Coeff-Com: -0.115D+00-0.946D-01 0.118D+01
 Coeff:     -0.983D-05 0.361D-04 0.766D-04-0.375D-03-0.744D-02 0.408D-01
 Coeff:     -0.115D+00-0.946D-01 0.118D+01
 Gap=     0.305 Goal=   None    Shift=    0.000
 RMSDP=5.57D-08 MaxDP=1.09D-06 DE=-6.10D-10 OVMax= 3.76D-06

 Cycle  10  Pass 1  IDiag  1:
 E= -535.643159212516     Delta-E=       -0.000000000063 Rises=F Damp=F
 DIIS: error= 7.84D-08 at cycle  10 NSaved=  10.
 NSaved=10 IEnMin=10 EnMin= -535.643159212516     IErMin=10 ErrMin= 7.84D-08
 ErrMax= 7.84D-08  0.00D+00 EMaxC= 1.00D-01 BMatC= 9.69D-13 BMatP= 2.13D-11
 IDIUse=1 WtCom= 1.00D+00 WtEn= 0.00D+00
 Coeff-Com: -0.700D-06-0.260D-06 0.138D-05 0.347D-04 0.528D-03-0.391D-02
 Coeff-Com:  0.181D-01-0.446D-01-0.115D+00 0.114D+01
 Coeff:     -0.700D-06-0.260D-06 0.138D-05 0.347D-04 0.528D-03-0.391D-02
 Coeff:      0.181D-01-0.446D-01-0.115D+00 0.114D+01
 Gap=     0.305 Goal=   None    Shift=    0.000
 RMSDP=1.43D-08 MaxDP=3.55D-07 DE=-6.26D-11 OVMax= 6.73D-07

 Cycle  11  Pass 1  IDiag  1:
 E= -535.643159212516     Delta-E=        0.000000000000 Rises=F Damp=F
 DIIS: error= 2.48D-08 at cycle  11 NSaved=  11.
 NSaved=11 IEnMin=10 EnMin= -535.643159212516     IErMin=11 ErrMin= 2.48D-08
 ErrMax= 2.48D-08  0.00D+00 EMaxC= 1.00D-01 BMatC= 6.25D-14 BMatP= 9.69D-13
 IDIUse=1 WtCom= 1.00D+00 WtEn= 0.00D+00
 Coeff-Com:  0.923D-06-0.261D-05-0.550D-05 0.199D-04 0.399D-03-0.205D-02
 Coeff-Com:  0.498D-02 0.946D-02-0.671D-01-0.105D+00 0.116D+01
 Coeff:      0.923D-06-0.261D-05-0.550D-05 0.199D-04 0.399D-03-0.205D-02
 Coeff:      0.498D-02 0.946D-02-0.671D-01-0.105D+00 0.116D+01
 Gap=     0.305 Goal=   None    Shift=    0.000
 RMSDP=5.01D-09 MaxDP=1.62D-07 DE= 3.41D-13 OVMax= 1.88D-07

 SCF Done:  E(RHF) =  -535.643159213     A.U. after   11 cycles
            NFock= 11  Conv=0.50D-08     -V/T= 2.0002
 KE= 5.355498906696D+02 PE=-1.360715199700D+03 EE= 2.505879133021D+02
 Leave Link  502 at Tue Oct 19 16:01:43 2021, MaxMem= 16106127360 cpu:              20.7 elap:               1.5
 (Enter /sw/contrib/gaussian/g16/B01/g16/l801.exe)
 ExpMin= 2.53D-02 ExpMax= 4.56D+05 ExpMxC= 1.44D+03 IAcc=3 IRadAn=         5 AccDes= 0.00D+00
 HarFok:  IExCor=  205 AccDes= 0.00D+00 IRadAn=         5 IDoV=-2 UseB2=F ITyADJ=14
 ICtDFT= 12500011 ScaDFX=  1.000000  1.000000  1.000000  1.000000
 Largest valence mixing into a core orbital is  4.54D-04
 Largest core mixing into a valence orbital is  1.84D-04
 Range of M.O.s used for correlation:     7   142
 NBasis=   142 NAE=    14 NBE=    14 NFC=     6 NFV=     0
 NROrb=    136 NOA=     8 NOB=     8 NVA=   128 NVB=   128

 **** Warning!!: The largest alpha MO coefficient is  0.13262570D+02

 Leave Link  801 at Tue Oct 19 16:01:43 2021, MaxMem= 16106127360 cpu:               1.9 elap:               0.1
 (Enter /sw/contrib/gaussian/g16/B01/g16/l906.exe)
 Frozen-core derivative calculation, NFC=   6 NFV=   0.
 FulOut=F Deriv=T AODrv=F NAtomX=     4
   MMem=         252  MDisk=           8 MDiskD=           8
  W3Min=      326032 MinDsk=      657538 NBas6D=         164
 NBas2D=       13905    NTT=       13530    LW2=     3500000
    MDV= 16105867784 MDiskM=      490971 NBas2p=       13814
 Fully in-core method, ICMem=   205321089.
 IMap=   1   2   3   4   5   6   7   8   9  10  11  12  13  14
 JobTyp=1 Pass  1 fully in-core, NPsUse= 28.
 Compute canonical integrals.
 FoFCou: FMM=F IPFlag=           0 FMFlag=           0 FMFlg1=           0
         NFxFlg=           0 DoJE=F BraDBF=F KetDBF=F FulRan=T
         wScrn=  0.000000 ICntrl=       600 IOpCl=  1 I1Cent=           0 NGrid=           0
         NMat0=    1 NMatS0=  13905 NMatT0=    0 NMatD0=    1 NMtDS0=    0 NMtDT0=    0
 Symmetry not used in FoFCou.
 Spin components of T(2) and E(2):
     alpha-alpha T2 =       0.1956782931D-01 E2=     -0.5989142768D-01
     alpha-beta  T2 =       0.1073548108D+00 E2=     -0.3623332549D+00
     beta-beta   T2 =       0.1956782931D-01 E2=     -0.5989142768D-01
 The integrals were generated   1 times.
 ANorm=    0.1070742952D+01
 E2 =    -0.4821161103D+00 EUMP2 =    -0.53612527532281D+03
 Leave Link  906 at Tue Oct 19 16:01:45 2021, MaxMem= 16106127360 cpu:              50.7 elap:               1.8
 (Enter /sw/contrib/gaussian/g16/B01/g16/l1002.exe)
 Minotr:  Closed shell wavefunction.
          Computing MP2/KS-MP2 derivatives.
          Using Z-Vector for PSCF gradient.
          Skipping F1 and S1 gradient terms here.
          Frozen-core window.
          Direct CPHF calculation.
          Differentiating once with respect to electric field.
                with respect to dipole field.
          Electric field/nuclear overlap derivatives assumed to be zero.
          Requested convergence is 1.0D-10 RMS, and 1.0D-09 maximum.
          NewPWx=F KeepS1=T KeepF1=T KeepIn=T MapXYZ=F SortEE=F KeepMc=T.
 Keep R1 ints in memory in canonical form, NReq=65348940.
 FoFCou: FMM=F IPFlag=           0 FMFlag=           0 FMFlg1=           0
         NFxFlg=           0 DoJE=F BraDBF=F KetDBF=F FulRan=T
         wScrn=  0.000000 ICntrl=       600 IOpCl=  0 I1Cent=           0 NGrid=           0
         NMat0=    1 NMatS0=  10153 NMatT0=    0 NMatD0=    1 NMtDS0=    0 NMtDT0=    0
 Symmetry not used in FoFCou.
 Two-electron integral symmetry not used.
          MDV=   16106127360 using IRadAn=       5.
          Solving linear equations separately, MaxMat=       0.
          There are     1 degrees of freedom in the 1st order CPHF.  IDoFFX=0 NUNeed=     1.
 LinEq1:  Iter=  0 NonCon=     1 RMS=3.01D-03 Max=2.90D-02 NDo=     1
 AX will form     1 AO Fock derivatives at one time.
 LinEq1:  Iter=  1 NonCon=     1 RMS=3.81D-04 Max=3.35D-03 NDo=     1
 LinEq1:  Iter=  2 NonCon=     1 RMS=1.12D-04 Max=1.04D-03 NDo=     1
 LinEq1:  Iter=  3 NonCon=     1 RMS=3.96D-05 Max=3.26D-04 NDo=     1
 LinEq1:  Iter=  4 NonCon=     1 RMS=1.11D-05 Max=8.09D-05 NDo=     1
 LinEq1:  Iter=  5 NonCon=     1 RMS=3.02D-06 Max=2.18D-05 NDo=     1
 LinEq1:  Iter=  6 NonCon=     1 RMS=8.00D-07 Max=7.67D-06 NDo=     1
 LinEq1:  Iter=  7 NonCon=     1 RMS=1.94D-07 Max=1.52D-06 NDo=     1
 LinEq1:  Iter=  8 NonCon=     1 RMS=4.50D-08 Max=3.43D-07 NDo=     1
 LinEq1:  Iter=  9 NonCon=     1 RMS=9.65D-09 Max=9.23D-08 NDo=     1
 LinEq1:  Iter= 10 NonCon=     1 RMS=1.68D-09 Max=1.31D-08 NDo=     1
 LinEq1:  Iter= 11 NonCon=     1 RMS=3.18D-10 Max=3.08D-09 NDo=     1
 LinEq1:  Iter= 12 NonCon=     0 RMS=8.20D-11 Max=6.94D-10 NDo=     1
 Linear equations converged to 1.000D-10 1.000D-09 after    12 iterations.
 End of Minotr F.D. properties file   721 does not exist.
 End of Minotr F.D. properties file   722 does not exist.
 End of Minotr F.D. properties file   788 does not exist.
 Leave Link 1002 at Tue Oct 19 16:01:47 2021, MaxMem= 16106127360 cpu:              27.7 elap:               2.0
 (Enter /sw/contrib/gaussian/g16/B01/g16/l601.exe)
 Copying SCF densities to generalized density rwf, IOpCl= 0 IROHF=0.

 **********************************************************************

            Population analysis using the MP2 Density.

 **********************************************************************

 Alpha  occ. eigenvalues -- -104.52131 -20.38775 -10.24562  -7.71171  -7.71166
 Alpha  occ. eigenvalues --   -7.71163  -1.17080  -0.75419  -0.52378  -0.41668
 Alpha  occ. eigenvalues --   -0.33272  -0.17153  -0.16840  -0.16697
 Alpha virt. eigenvalues --    0.13820   0.17671   0.25646   0.26775   0.28615
 Alpha virt. eigenvalues --    0.28916   0.29760   0.30971   0.34783   0.38915
 Alpha virt. eigenvalues --    0.40418   0.42360   0.43661   0.48220   0.52786
 Alpha virt. eigenvalues --    0.56727   0.58816   0.60705   0.61163   0.63616
 Alpha virt. eigenvalues --    0.67142   0.68359   0.71124   0.76869   0.85000
 Alpha virt. eigenvalues --    0.87251   0.87894   0.89386   0.90749   0.91543
 Alpha virt. eigenvalues --    0.99793   1.02021   1.06407   1.08782   1.09443
 Alpha virt. eigenvalues --    1.09620   1.11097   1.15417   1.16251   1.18854
 Alpha virt. eigenvalues --    1.21103   1.21450   1.23137   1.23645   1.26174
 Alpha virt. eigenvalues --    1.28346   1.30577   1.37778   1.40872   1.43871
 Alpha virt. eigenvalues --    1.45512   1.45660   1.48573   1.54772   1.56182
 Alpha virt. eigenvalues --    1.63527   1.69205   1.70438   1.73349   1.82229
 Alpha virt. eigenvalues --    1.85552   1.94397   2.05209   2.08711   2.20545
 Alpha virt. eigenvalues --    2.38732   2.47518   2.52071   2.60061   2.62301
 Alpha virt. eigenvalues --    2.63526   2.68679   2.71919   2.81955   2.82222
 Alpha virt. eigenvalues --    2.85954   2.87329   2.88586   2.91238   2.96544
 Alpha virt. eigenvalues --    2.97411   2.98904   3.01716   3.02936   3.15338
 Alpha virt. eigenvalues --    3.28448   3.35511   3.35520   3.39020   3.39743
 Alpha virt. eigenvalues --    3.50080   3.51643   3.58599   3.89088   4.04026
 Alpha virt. eigenvalues --    4.27365   4.32070   4.40685   4.44041   4.49070
 Alpha virt. eigenvalues --    4.55428   4.58629   4.62289   4.74535   4.94567
 Alpha virt. eigenvalues --    5.07345   5.31406   5.38261   5.42971   5.49576
 Alpha virt. eigenvalues --    5.69905   5.80759   6.11411   6.41225   6.69726
 Alpha virt. eigenvalues --    6.93336   7.15561   7.30164   7.41916   7.46169
 Alpha virt. eigenvalues --    7.49918   7.55523   7.60810   7.75283   8.02754
 Alpha virt. eigenvalues --    8.15221   8.97881  15.84579
          Condensed to atoms (all electrons):
               1          2          3          4
     1  O    8.179583   0.206825  -0.065548   0.162159
     2  H    0.206825   0.593889   0.004428   0.020392
     3  Cl  -0.065548   0.004428  17.952032   0.049220
     4  H    0.162159   0.020392   0.049220   0.519542
 Mulliken charges:
               1
     1  O   -0.483020
     2  H    0.174465
     3  Cl  -0.940131
     4  H    0.248686
 Sum of Mulliken charges =  -1.00000
 Mulliken charges with hydrogens summed into heavy atoms:
               1
     1  O   -0.059869
     3  Cl  -0.940131
 Electronic spatial extent (au):  <R**2>=            671.1805
 Charge=             -1.0000 electrons
 Dipole moment (field-independent basis, Debye):
    X=              3.8404    Y=             12.1505    Z=              0.4437  Tot=             12.7507
 Quadrupole moment (field-independent basis, Debye-Ang):
   XX=            -24.3748   YY=            -65.2738   ZZ=            -24.6572
   XY=             -7.9389   XZ=             -0.1826   YZ=             -0.3988
 Traceless Quadrupole moment (field-independent basis, Debye-Ang):
   XX=             13.7271   YY=            -27.1719   ZZ=             13.4448
   XY=             -7.9389   XZ=             -0.1826   YZ=             -0.3988
 Octapole moment (field-independent basis, Debye-Ang**2):
  XXX=             33.3103  YYY=            281.4426  ZZZ=             -1.4718  XYY=             35.2451
  XXY=             57.4233  XXZ=             -0.6388  XZZ=             10.0378  YZZ=             51.9085
  YYZ=             -1.9167  XYZ=             -0.2900
 Hexadecapole moment (field-independent basis, Debye-Ang**3):
 XXXX=            -78.0235 YYYY=          -1358.6566 ZZZZ=            -38.7023 XXXY=           -100.3838
 XXXZ=              0.2570 YYYX=           -172.9118 YYYZ=              7.2729 ZZZX=              0.2023
 ZZZY=              1.6465 XXYY=           -192.5925 XXZZ=            -19.6982 YYZZ=           -170.1053
 XXYZ=              0.8175 YYXZ=              1.1729 ZZXY=            -32.3408
 N-N= 3.893423651577D+01 E-N=-1.360654809597D+03  KE= 5.360314634027D+02
 No NMR shielding tensors so no spin-rotation constants.
 Leave Link  601 at Tue Oct 19 16:01:47 2021, MaxMem= 16106127360 cpu:               4.1 elap:               0.2
 (Enter /sw/contrib/gaussian/g16/B01/g16/l607.exe)
 ******************************Gaussian NBO Version 3.1******************************
             N A T U R A L   A T O M I C   O R B I T A L   A N D
          N A T U R A L   B O N D   O R B I T A L   A N A L Y S I S
 ******************************Gaussian NBO Version 3.1******************************
       /RESON  / : Allow strongly delocalized NBO set

 Analyzing the MP2 density

 Job title: title                                                           

 Storage needed:     61222 in NPA,     81148 in NBO (********** available)
 GSVD:  LWork=       -2300 too small for GESVD, short by       46292 words or       46292 for optimal perf.


 NATURAL POPULATIONS:  Natural atomic orbital occupancies 
                                                          
   NAO  Atom  No  lang   Type(AO)    Occupancy
 --------------------------------------------
     1    O    1  S      Cor( 1S)     1.99967
     2    O    1  S      Val( 2S)     1.74472
     3    O    1  S      Ryd( 3S)     0.00624
     4    O    1  S      Ryd( 4S)     0.00061
     5    O    1  S      Ryd( 5S)     0.00020
     6    O    1  px     Val( 2p)     1.52398
     7    O    1  px     Ryd( 3p)     0.00996
     8    O    1  px     Ryd( 4p)     0.00058
     9    O    1  px     Ryd( 5p)     0.00009
    10    O    1  py     Val( 2p)     1.72874
    11    O    1  py     Ryd( 3p)     0.01431
    12    O    1  py     Ryd( 4p)     0.00062
    13    O    1  py     Ryd( 5p)     0.00011
    14    O    1  pz     Val( 2p)     1.86496
    15    O    1  pz     Ryd( 3p)     0.01919
    16    O    1  pz     Ryd( 4p)     0.00064
    17    O    1  pz     Ryd( 5p)     0.00007
    18    O    1  dxy    Ryd( 3d)     0.00881
    19    O    1  dxy    Ryd( 4d)     0.00062
    20    O    1  dxy    Ryd( 5d)     0.00014
    21    O    1  dxz    Ryd( 3d)     0.00968
    22    O    1  dxz    Ryd( 4d)     0.00083
    23    O    1  dxz    Ryd( 5d)     0.00015
    24    O    1  dyz    Ryd( 3d)     0.01002
    25    O    1  dyz    Ryd( 4d)     0.00046
    26    O    1  dyz    Ryd( 5d)     0.00014
    27    O    1  dx2y2  Ryd( 3d)     0.01064
    28    O    1  dx2y2  Ryd( 4d)     0.00032
    29    O    1  dx2y2  Ryd( 5d)     0.00014
    30    O    1  dz2    Ryd( 3d)     0.00844
    31    O    1  dz2    Ryd( 4d)     0.00046
    32    O    1  dz2    Ryd( 5d)     0.00012
    33    O    1  f(0)   Ryd( 4f)     0.00066
    34    O    1  f(0)   Ryd( 5f)     0.00011
    35    O    1  f(C1)  Ryd( 4f)     0.00048
    36    O    1  f(C1)  Ryd( 5f)     0.00008
    37    O    1  f(S1)  Ryd( 4f)     0.00066
    38    O    1  f(S1)  Ryd( 5f)     0.00011
    39    O    1  f(C2)  Ryd( 4f)     0.00063
    40    O    1  f(C2)  Ryd( 5f)     0.00014
    41    O    1  f(S2)  Ryd( 4f)     0.00051
    42    O    1  f(S2)  Ryd( 5f)     0.00009
    43    O    1  f(C3)  Ryd( 4f)     0.00042
    44    O    1  f(C3)  Ryd( 5f)     0.00010
    45    O    1  f(S3)  Ryd( 4f)     0.00055
    46    O    1  f(S3)  Ryd( 5f)     0.00014

    47    H    2  S      Val( 1S)     0.55009
    48    H    2  S      Ryd( 2S)     0.00171
    49    H    2  S      Ryd( 3S)     0.00039
    50    H    2  S      Ryd( 4S)     0.00011
    51    H    2  px     Ryd( 3p)     0.00026
    52    H    2  px     Ryd( 2p)     0.00071
    53    H    2  px     Ryd( 4p)     0.00016
    54    H    2  py     Ryd( 2p)     0.00078
    55    H    2  py     Ryd( 3p)     0.00017
    56    H    2  py     Ryd( 4p)     0.00006
    57    H    2  pz     Ryd( 2p)     0.00118
    58    H    2  pz     Ryd( 3p)     0.00017
    59    H    2  pz     Ryd( 4p)     0.00006
    60    H    2  dxy    Ryd( 3d)     0.00019
    61    H    2  dxy    Ryd( 4d)     0.00007
    62    H    2  dxz    Ryd( 3d)     0.00031
    63    H    2  dxz    Ryd( 4d)     0.00007
    64    H    2  dyz    Ryd( 3d)     0.00011
    65    H    2  dyz    Ryd( 4d)     0.00005
    66    H    2  dx2y2  Ryd( 3d)     0.00014
    67    H    2  dx2y2  Ryd( 4d)     0.00005
    68    H    2  dz2    Ryd( 3d)     0.00012
    69    H    2  dz2    Ryd( 4d)     0.00006

    70   Cl    3  S      Cor( 1S)     2.00001
    71   Cl    3  S      Cor( 2S)     2.00000
    72   Cl    3  S      Val( 3S)     1.97944
    73   Cl    3  S      Ryd( 4S)     0.00320
    74   Cl    3  S      Ryd( 5S)     0.00035
    75   Cl    3  S      Ryd( 6S)     0.00008
    76   Cl    3  px     Cor( 2p)     2.00003
    77   Cl    3  px     Val( 3p)     1.95137
    78   Cl    3  px     Ryd( 4p)     0.01366
    79   Cl    3  px     Ryd( 5p)     0.00059
    80   Cl    3  px     Ryd( 6p)     0.00001
    81   Cl    3  py     Cor( 2p)     2.00002
    82   Cl    3  py     Val( 3p)     1.93278
    83   Cl    3  py     Ryd( 4p)     0.01225
    84   Cl    3  py     Ryd( 5p)     0.00057
    85   Cl    3  py     Ryd( 6p)     0.00005
    86   Cl    3  pz     Cor( 2p)     2.00003
    87   Cl    3  pz     Val( 3p)     1.94962
    88   Cl    3  pz     Ryd( 4p)     0.01357
    89   Cl    3  pz     Ryd( 5p)     0.00059
    90   Cl    3  pz     Ryd( 6p)     0.00001
    91   Cl    3  dxy    Ryd( 3d)     0.01842
    92   Cl    3  dxy    Ryd( 4d)     0.00085
    93   Cl    3  dxy    Ryd( 5d)     0.00011
    94   Cl    3  dxz    Ryd( 3d)     0.01834
    95   Cl    3  dxz    Ryd( 4d)     0.00099
    96   Cl    3  dxz    Ryd( 5d)     0.00011
    97   Cl    3  dyz    Ryd( 3d)     0.01851
    98   Cl    3  dyz    Ryd( 4d)     0.00088
    99   Cl    3  dyz    Ryd( 5d)     0.00013
   100   Cl    3  dx2y2  Ryd( 3d)     0.01823
   101   Cl    3  dx2y2  Ryd( 4d)     0.00093
   102   Cl    3  dx2y2  Ryd( 5d)     0.00013
   103   Cl    3  dz2    Ryd( 3d)     0.01830
   104   Cl    3  dz2    Ryd( 4d)     0.00096
   105   Cl    3  dz2    Ryd( 5d)     0.00011
   106   Cl    3  f(0)   Ryd( 4f)     0.00129
   107   Cl    3  f(0)   Ryd( 5f)     0.00015
   108   Cl    3  f(C1)  Ryd( 4f)     0.00129
   109   Cl    3  f(C1)  Ryd( 5f)     0.00014
   110   Cl    3  f(S1)  Ryd( 4f)     0.00129
   111   Cl    3  f(S1)  Ryd( 5f)     0.00015
   112   Cl    3  f(C2)  Ryd( 4f)     0.00129
   113   Cl    3  f(C2)  Ryd( 5f)     0.00015
   114   Cl    3  f(S2)  Ryd( 4f)     0.00130
   115   Cl    3  f(S2)  Ryd( 5f)     0.00015
   116   Cl    3  f(C3)  Ryd( 4f)     0.00128
   117   Cl    3  f(C3)  Ryd( 5f)     0.00015
   118   Cl    3  f(S3)  Ryd( 4f)     0.00128
   119   Cl    3  f(S3)  Ryd( 5f)     0.00016

   120    H    4  S      Val( 1S)     0.48727
   121    H    4  S      Ryd( 2S)     0.00536
   122    H    4  S      Ryd( 3S)     0.00043
   123    H    4  S      Ryd( 4S)     0.00006
   124    H    4  px     Ryd( 2p)     0.00329
   125    H    4  px     Ryd( 3p)     0.00034
   126    H    4  px     Ryd( 4p)     0.00010
   127    H    4  py     Ryd( 2p)     0.00466
   128    H    4  py     Ryd( 3p)     0.00048
   129    H    4  py     Ryd( 4p)     0.00019
   130    H    4  pz     Ryd( 2p)     0.00325
   131    H    4  pz     Ryd( 3p)     0.00042
   132    H    4  pz     Ryd( 4p)     0.00014
   133    H    4  dxy    Ryd( 3d)     0.00017
   134    H    4  dxy    Ryd( 4d)     0.00008
   135    H    4  dxz    Ryd( 3d)     0.00013
   136    H    4  dxz    Ryd( 4d)     0.00007
   137    H    4  dyz    Ryd( 3d)     0.00024
   138    H    4  dyz    Ryd( 4d)     0.00007
   139    H    4  dx2y2  Ryd( 3d)     0.00024
   140    H    4  dx2y2  Ryd( 4d)     0.00010
   141    H    4  dz2    Ryd( 3d)     0.00013
   142    H    4  dz2    Ryd( 4d)     0.00008


 Summary of Natural Population Analysis:                  
                                                          
                                       Natural Population 
                Natural  -----------------------------------------------
    Atom  No    Charge         Core      Valence    Rydberg      Total
 -----------------------------------------------------------------------
      O    1   -0.97034      1.99967     6.86239    0.10828     8.97034
      H    2    0.44298      0.00000     0.55009    0.00694     0.55702
     Cl    3   -0.96532     10.00008     7.81321    0.15203    17.96532
      H    4    0.49268      0.00000     0.48727    0.02005     0.50732
 =======================================================================
   * Total *   -1.00000     11.99976    15.71296    0.28728    28.00000

                                 Natural Population      
 --------------------------------------------------------
   Core                      11.99976 ( 99.9980% of  12)
   Valence                   15.71296 ( 98.2060% of  16)
   Natural Minimal Basis     27.71272 ( 98.9740% of  28)
   Natural Rydberg Basis      0.28728 (  1.0260% of  28)
 --------------------------------------------------------

    Atom  No          Natural Electron Configuration
 ----------------------------------------------------------------------------
      O    1      [core]2S( 1.74)2p( 5.12)3S( 0.01)3p( 0.04)3d( 0.05)
      H    2            1S( 0.55)
     Cl    3      [core]3S( 1.98)3p( 5.83)3d( 0.09)4p( 0.04)4f( 0.01)
      H    4            1S( 0.49)2S( 0.01)2p( 0.01)


 NATURAL BOND ORBITAL ANALYSIS:
 Warning:  a bond orbital has occupanc of -0.00005

                       Occupancies       Lewis Structure    Low   High
           Occ.    -------------------  -----------------   occ   occ
  Cycle   Thresh.   Lewis   Non-Lewis     CR  BD  3C  LP    (L)   (NL)   Dev
 =============================================================================
   1(1)    1.90    27.67893   0.32107      6   2   0   6     0      0    0.04
 -----------------------------------------------------------------------------

 Structure accepted: No low occupancy Lewis orbitals

 --------------------------------------------------------
   Core                     11.99976 ( 99.998% of  12)
   Valence Lewis            15.67917 ( 97.995% of  16)
  ==================       ============================
   Total Lewis              27.67893 ( 98.853% of  28)
  -----------------------------------------------------
   Valence non-Lewis         0.06396 (  0.228% of  28)
   Rydberg non-Lewis         0.25710 (  0.918% of  28)
  ==================       ============================
   Total non-Lewis           0.32107 (  1.147% of  28)
 --------------------------------------------------------


       (Occupancy)   Bond orbital/ Coefficients/ Hybrids
 ---------------------------------------------------------------------------------
     1. (1.96616) BD ( 1) O   1 - H   2  
                ( 72.79%)   0.8532* O   1 s( 20.87%)p 3.77( 78.67%)d 0.02(  0.45%)
                                                  f 0.00(  0.01%)
                                            0.0002  0.4567 -0.0075  0.0025 -0.0048
                                            0.8842 -0.0333  0.0084 -0.0009  0.0541
                                           -0.0132  0.0013 -0.0032 -0.0220  0.0091
                                           -0.0009  0.0015 -0.0147  0.0003  0.0024
                                            0.0135 -0.0023  0.0001 -0.0040 -0.0004
                                            0.0017  0.0540 -0.0035  0.0032 -0.0334
                                            0.0016 -0.0007  0.0000  0.0002 -0.0069
                                           -0.0013 -0.0004  0.0001 -0.0005 -0.0000
                                           -0.0054  0.0017  0.0051  0.0025  0.0013
                                           -0.0002
                ( 27.21%)   0.5217* H   2 s( 99.89%)p 0.00(  0.10%)d 0.00(  0.01%)
                                            0.9994  0.0036 -0.0002  0.0001  0.0011
                                            0.0310 -0.0044  0.0032  0.0002 -0.0010
                                            0.0008  0.0017 -0.0001  0.0024 -0.0020
                                            0.0011  0.0008 -0.0019 -0.0007  0.0078
                                           -0.0015 -0.0044  0.0005
     2. (1.96760) BD ( 1) O   1 - H   4  
                ( 76.87%)   0.8768* O   1 s( 24.76%)p 3.02( 74.78%)d 0.02(  0.45%)
                                                  f 0.00(  0.01%)
                                           -0.0003 -0.4976  0.0003  0.0003  0.0008
                                            0.1997 -0.0185 -0.0001  0.0020  0.7124
                                           -0.0151  0.0072 -0.0025 -0.4469  0.0071
                                           -0.0055  0.0047  0.0075 -0.0052  0.0027
                                           -0.0040  0.0030 -0.0017  0.0541 -0.0027
                                           -0.0021  0.0368 -0.0022  0.0001  0.0061
                                            0.0010 -0.0022  0.0088 -0.0008 -0.0006
                                            0.0005  0.0001  0.0008  0.0049  0.0021
                                           -0.0028 -0.0007 -0.0016 -0.0014  0.0026
                                           -0.0036
                ( 23.13%)   0.4809* H   4 s( 99.86%)p 0.00(  0.13%)d 0.00(  0.01%)
                                           -0.9992 -0.0168 -0.0006  0.0002 -0.0195
                                            0.0005  0.0003 -0.0041 -0.0199 -0.0061
                                           -0.0170  0.0128  0.0053 -0.0002  0.0025
                                            0.0004 -0.0017  0.0018  0.0002 -0.0073
                                            0.0009  0.0025  0.0009
     3. (1.99967) CR ( 1) O   1           s(100.00%)
                                            1.0000 -0.0004  0.0000 -0.0000  0.0000
                                           -0.0001  0.0000 -0.0000  0.0000  0.0001
                                           -0.0000  0.0000  0.0000 -0.0000  0.0000
                                           -0.0000  0.0000 -0.0000 -0.0000  0.0000
                                            0.0000  0.0000 -0.0000  0.0000 -0.0000
                                           -0.0000 -0.0000  0.0000  0.0000  0.0000
                                            0.0000 -0.0000  0.0000  0.0000  0.0000
                                            0.0000 -0.0000  0.0000  0.0000  0.0000
                                            0.0000 -0.0000 -0.0000 -0.0000 -0.0000
                                           -0.0000
     4. (2.00001) CR ( 1)Cl   3           s(100.00%)
                                            1.0000 -0.0000  0.0000 -0.0000 -0.0000
                                           -0.0000 -0.0000 -0.0000 -0.0000  0.0000
                                            0.0000 -0.0000 -0.0000  0.0000  0.0000
                                           -0.0000 -0.0000 -0.0000 -0.0000  0.0000
                                           -0.0000 -0.0000 -0.0000 -0.0000 -0.0000
                                           -0.0000 -0.0000 -0.0000 -0.0000 -0.0000
                                            0.0000  0.0000 -0.0000  0.0000  0.0000
                                           -0.0000  0.0000  0.0000  0.0000  0.0000
                                            0.0000  0.0000  0.0000  0.0000 -0.0000
                                           -0.0000  0.0000  0.0000  0.0000  0.0000
     5. (2.00000) CR ( 2)Cl   3           s(100.00%)
                                           -0.0000  1.0000  0.0000 -0.0000 -0.0000
                                           -0.0000 -0.0000 -0.0000 -0.0000  0.0000
                                            0.0000 -0.0000 -0.0000  0.0000  0.0000
                                           -0.0000 -0.0000 -0.0000 -0.0000  0.0000
                                           -0.0000 -0.0000 -0.0000 -0.0000 -0.0000
                                           -0.0000 -0.0000 -0.0000 -0.0000 -0.0000
                                            0.0000  0.0000 -0.0000  0.0000  0.0000
                                           -0.0000  0.0000  0.0000  0.0000  0.0000
                                            0.0000  0.0000  0.0000  0.0000 -0.0000
                                           -0.0000  0.0000  0.0000  0.0000  0.0000
     6. (2.00003) CR ( 3)Cl   3           s(  0.00%)p 1.00(100.00%)
                                           -0.0000 -0.0000 -0.0000 -0.0000  0.0000
                                           -0.0000  1.0000  0.0000  0.0000  0.0000
                                           -0.0000 -0.0000 -0.0000  0.0000  0.0000
                                           -0.0000 -0.0000 -0.0000 -0.0000  0.0000
                                           -0.0000  0.0000  0.0000 -0.0000  0.0000
                                            0.0000  0.0000 -0.0000 -0.0000 -0.0000
                                            0.0000  0.0000  0.0000  0.0000 -0.0000
                                           -0.0000  0.0000  0.0000 -0.0000 -0.0000
                                            0.0000  0.0000  0.0000  0.0000  0.0000
                                            0.0000 -0.0000 -0.0000  0.0000  0.0000
     7. (2.00002) CR ( 4)Cl   3           s(  0.00%)p 1.00(100.00%)
                                           -0.0000 -0.0000 -0.0000 -0.0000 -0.0000
                                            0.0000 -0.0000 -0.0000 -0.0000  0.0000
                                            0.0000  1.0000 -0.0000 -0.0000  0.0000
                                           -0.0000 -0.0000 -0.0000 -0.0000  0.0000
                                           -0.0000 -0.0000 -0.0000 -0.0000 -0.0000
                                           -0.0000 -0.0000 -0.0000 -0.0000 -0.0000
                                            0.0000  0.0000 -0.0000  0.0000  0.0000
                                           -0.0000  0.0000  0.0000  0.0000  0.0000
                                            0.0000  0.0000  0.0000  0.0000 -0.0000
                                           -0.0000  0.0000  0.0000  0.0000  0.0000
     8. (2.00003) CR ( 5)Cl   3           s(  0.00%)p 1.00(100.00%)
                                           -0.0000 -0.0000 -0.0000 -0.0000  0.0000
                                           -0.0000 -0.0000 -0.0000 -0.0000  0.0000
                                            0.0000 -0.0000 -0.0000  0.0000  0.0000
                                           -0.0000  1.0000  0.0000 -0.0000  0.0000
                                           -0.0000 -0.0000 -0.0000 -0.0000 -0.0000
                                            0.0000  0.0000 -0.0000 -0.0000 -0.0000
                                            0.0000  0.0000 -0.0000  0.0000  0.0000
                                            0.0000  0.0000  0.0000  0.0000  0.0000
                                            0.0000  0.0000  0.0000  0.0000 -0.0000
                                           -0.0000  0.0000  0.0000  0.0000  0.0000
     9. (1.97050) LP ( 1) O   1           s( 54.27%)p 0.84( 45.61%)d 0.00(  0.12%)
                                                  f 0.00(  0.00%)
                                            0.0002  0.7366  0.0036 -0.0007  0.0023
                                           -0.4142 -0.0023  0.0035 -0.0013  0.4569
                                            0.0095 -0.0042  0.0003 -0.2748 -0.0054
                                            0.0021  0.0010  0.0253 -0.0025 -0.0026
                                           -0.0182  0.0031  0.0003  0.0139 -0.0022
                                            0.0003  0.0014  0.0009 -0.0033  0.0050
                                           -0.0009  0.0013  0.0038 -0.0015  0.0010
                                           -0.0001 -0.0004  0.0003  0.0001  0.0005
                                            0.0023 -0.0004  0.0001  0.0002  0.0036
                                           -0.0021
    10. (1.96097) LP ( 2) O   1           s(  0.03%)p99.99( 99.66%)d 9.89(  0.29%)
                                                  f 0.91(  0.03%)
                                            0.0000  0.0118 -0.0098 -0.0074 -0.0000
                                            0.0049 -0.0007  0.0005 -0.0014 -0.5250
                                           -0.0155  0.0030 -0.0009 -0.8484 -0.0283
                                            0.0067 -0.0031 -0.0220  0.0073 -0.0038
                                           -0.0358  0.0113 -0.0061  0.0071  0.0022
                                           -0.0047 -0.0111 -0.0004  0.0026 -0.0254
                                            0.0010  0.0037  0.0055 -0.0027  0.0013
                                           -0.0004  0.0095 -0.0027 -0.0089  0.0041
                                           -0.0010  0.0002  0.0006  0.0005 -0.0045
                                            0.0028
    11. (1.98011) LP ( 1)Cl   3           s( 98.75%)p 0.01(  1.25%)d 0.00(  0.00%)
                                                  f 0.00(  0.00%)
                                           -0.0000 -0.0000  0.9937 -0.0002 -0.0000
                                           -0.0001  0.0000 -0.0209  0.0004 -0.0001
                                            0.0002  0.0000 -0.1048  0.0008 -0.0005
                                            0.0003  0.0000 -0.0328  0.0006 -0.0001
                                            0.0002  0.0007  0.0003 -0.0000  0.0002
                                            0.0001 -0.0000  0.0011  0.0005 -0.0001
                                           -0.0011 -0.0003  0.0002 -0.0008 -0.0003
                                            0.0000 -0.0003 -0.0002 -0.0001 -0.0001
                                           -0.0003 -0.0002 -0.0004 -0.0003  0.0002
                                            0.0001 -0.0003 -0.0002 -0.0003 -0.0002
    12. (1.95255) LP ( 2)Cl   3           s(  0.00%)p 1.00( 99.99%)d 0.00(  0.00%)
                                                  f 0.00(  0.00%)
                                           -0.0000 -0.0000  0.0041  0.0002 -0.0012
                                            0.0013 -0.0000  0.5933  0.0006  0.0005
                                           -0.0003 -0.0000  0.1661 -0.0010 -0.0002
                                            0.0002  0.0000 -0.7876  0.0008 -0.0004
                                            0.0001  0.0034  0.0011  0.0000  0.0003
                                            0.0002  0.0001 -0.0022 -0.0000  0.0008
                                            0.0013  0.0010  0.0009 -0.0038 -0.0021
                                           -0.0011  0.0002  0.0001 -0.0005 -0.0004
                                           -0.0015 -0.0012  0.0005  0.0003  0.0003
                                            0.0002 -0.0008 -0.0005  0.0004  0.0003
    13. (1.95237) LP ( 3)Cl   3           s(  0.00%)p 1.00( 99.99%)d 0.00(  0.00%)
                                                  f 0.00(  0.00%)
                                           -0.0000 -0.0000  0.0049 -0.0005 -0.0029
                                            0.0023  0.0000 -0.7796 -0.0008 -0.0008
                                            0.0004 -0.0000  0.3620 -0.0015 -0.0003
                                            0.0009  0.0000 -0.5110  0.0008 -0.0002
                                            0.0001 -0.0033 -0.0007  0.0002 -0.0034
                                           -0.0020 -0.0011 -0.0003  0.0006  0.0009
                                           -0.0034 -0.0013 -0.0002 -0.0016 -0.0006
                                           -0.0001  0.0001  0.0000  0.0000  0.0000
                                           -0.0010 -0.0007 -0.0003 -0.0003 -0.0012
                                           -0.0010  0.0006  0.0004 -0.0011 -0.0008
    14. (1.92891) LP ( 4)Cl   3           s(  1.25%)p79.26( 98.73%)d 0.02(  0.02%)
                                                  f 0.00(  0.00%)
                                            0.0000  0.0000  0.1116  0.0018  0.0005
                                            0.0006  0.0000  0.1991  0.0007 -0.0002
                                           -0.0001  0.0001  0.9111 -0.0002 -0.0012
                                            0.0002  0.0000  0.3428  0.0026 -0.0003
                                            0.0003  0.0048  0.0014  0.0003  0.0025
                                            0.0008  0.0002  0.0102  0.0032  0.0010
                                           -0.0076 -0.0019  0.0003 -0.0035 -0.0010
                                            0.0000 -0.0017 -0.0010 -0.0002 -0.0002
                                           -0.0008 -0.0006 -0.0020 -0.0012  0.0009
                                            0.0004 -0.0012 -0.0007 -0.0014 -0.0009
    15. (0.02033) RY*( 1) O   1           s(  0.09%)p99.99( 97.25%)d27.34(  2.58%)
                                                  f 0.87(  0.08%)
                                           -0.0000 -0.0006  0.0263  0.0158  0.0008
                                            0.0002  0.0007 -0.0018  0.0028 -0.0207
                                            0.5167  0.0205 -0.0097 -0.0351  0.8380
                                            0.0284 -0.0128  0.0762 -0.0197  0.0088
                                            0.1186 -0.0309  0.0150 -0.0109 -0.0011
                                            0.0061  0.0215 -0.0034 -0.0009  0.0593
                                           -0.0099 -0.0004 -0.0092  0.0070  0.0024
                                            0.0006 -0.0103  0.0098  0.0141 -0.0113
                                           -0.0002 -0.0009  0.0026 -0.0012  0.0096
                                           -0.0074
    16. (0.01532) RY*( 2) O   1           s( 20.99%)p 3.59( 75.44%)d 0.16(  3.43%)
                                                  f 0.01(  0.14%)
                                            0.0000 -0.0106  0.4578 -0.0147  0.0011
                                            0.0102 -0.4748 -0.0137  0.0030 -0.0086
                                            0.6137  0.0107 -0.0111  0.0034 -0.3893
                                           -0.0105  0.0095  0.1435 -0.0129 -0.0038
                                           -0.1088  0.0148 -0.0028  0.0333 -0.0088
                                           -0.0034 -0.0072  0.0045 -0.0082  0.0054
                                           -0.0083  0.0037  0.0054 -0.0063 -0.0072
                                            0.0027 -0.0073  0.0038 -0.0149  0.0058
                                            0.0123 -0.0052  0.0149 -0.0042  0.0198
                                           -0.0109
    17. (0.00720) RY*( 3) O   1           s(  4.69%)p12.72( 59.63%)d 7.46( 34.99%)
                                                  f 0.15(  0.69%)
                                            0.0000  0.0032  0.2118 -0.0420  0.0157
                                           -0.0564 -0.6220 -0.0193 -0.0131 -0.0234
                                           -0.3814 -0.0139 -0.0075  0.0121  0.2418
                                            0.0207 -0.0217 -0.4022  0.0004 -0.0082
                                            0.0482 -0.0059  0.0061  0.0767  0.0256
                                           -0.0121  0.4023  0.0541 -0.0269  0.1158
                                           -0.0031  0.0070  0.0102 -0.0010 -0.0230
                                            0.0096 -0.0063  0.0053  0.0239 -0.0071
                                           -0.0178  0.0051  0.0112 -0.0053 -0.0647
                                            0.0280
    18. (0.00629) RY*( 4) O   1           s(  0.67%)p13.89(  9.26%)d99.99( 88.86%)
                                                  f 1.81(  1.21%)
                                           -0.0000  0.0029  0.0794  0.0188 -0.0013
                                            0.0262  0.2577  0.0192 -0.0058  0.0229
                                            0.1524  0.0156 -0.0121 -0.0047 -0.0309
                                            0.0035  0.0016 -0.4491 -0.0385  0.0146
                                           -0.5007 -0.0415  0.0112 -0.3498 -0.0276
                                            0.0070  0.0446 -0.0018  0.0049  0.5524
                                            0.0474 -0.0111  0.0336 -0.0140  0.0065
                                            0.0005 -0.0501  0.0222 -0.0622  0.0253
                                           -0.0052  0.0026 -0.0327  0.0111 -0.0416
                                            0.0151
    19. (0.00623) RY*( 5) O   1           s( 10.87%)p 0.47(  5.11%)d 7.64( 83.01%)
                                                  f 0.09(  1.02%)
                                           -0.0000  0.0128  0.3292  0.0099 -0.0017
                                            0.0084  0.1899  0.0145 -0.0078  0.0242
                                            0.0830  0.0000 -0.0046 -0.0215 -0.0818
                                           -0.0072 -0.0021 -0.5658 -0.0300  0.0137
                                            0.5912  0.0385 -0.0137  0.0699  0.0169
                                           -0.0086 -0.3885 -0.0347  0.0100 -0.0125
                                            0.0026 -0.0036 -0.0395  0.0165  0.0207
                                           -0.0021  0.0184 -0.0048  0.0151 -0.0008
                                           -0.0499  0.0197 -0.0635  0.0168 -0.0114
                                           -0.0002
    20. (0.00594) RY*( 6) O   1           s(  0.15%)p16.23(  2.40%)d99.99( 96.60%)
                                                  f 5.74(  0.85%)
                                           -0.0000  0.0009  0.0385 -0.0002  0.0003
                                            0.0032  0.0384  0.0020 -0.0020 -0.0195
                                           -0.0580 -0.0015 -0.0142 -0.0395 -0.1299
                                           -0.0088 -0.0077  0.3813  0.0412 -0.0112
                                            0.5516  0.0625 -0.0183 -0.3238 -0.0276
                                            0.0021  0.2752  0.0265 -0.0009  0.5702
                                            0.0558 -0.0063 -0.0196  0.0064  0.0322
                                           -0.0115 -0.0653  0.0272  0.0305 -0.0114
                                           -0.0131  0.0044  0.0202 -0.0068  0.0133
                                           -0.0038
    21. (0.00565) RY*( 7) O   1           s(  6.77%)p 0.78(  5.28%)d12.89( 87.32%)
                                                  f 0.09(  0.63%)
                                           -0.0000  0.0225  0.2592 -0.0045 -0.0039
                                            0.0328  0.1370  0.0122 -0.0056 -0.0381
                                           -0.1592 -0.0190 -0.0051  0.0167  0.0723
                                            0.0038  0.0008  0.2089  0.0229 -0.0047
                                           -0.1411 -0.0167  0.0048  0.7394  0.0893
                                           -0.0087 -0.1685 -0.0209  0.0040  0.4715
                                            0.0536 -0.0045  0.0465 -0.0181  0.0318
                                           -0.0113  0.0057 -0.0022  0.0248 -0.0102
                                            0.0382 -0.0142 -0.0128  0.0042  0.0105
                                           -0.0021
    22. (0.00298) RY*( 8) O   1           s( 11.11%)p 2.06( 22.85%)d 5.86( 65.09%)
                                                  f 0.09(  0.95%)
                                           -0.0000 -0.0043  0.3327  0.0209 -0.0035
                                            0.0296 -0.2200  0.0175 -0.0462  0.0241
                                           -0.3546 -0.0354 -0.0541 -0.0159  0.2117
                                            0.0315 -0.0146  0.2567  0.0649  0.0004
                                           -0.1394 -0.0318 -0.0000 -0.4202 -0.0499
                                           -0.0369 -0.6076 -0.0724 -0.0609  0.0214
                                           -0.0308  0.0214 -0.0227  0.0183  0.0136
                                           -0.0060 -0.0279  0.0188 -0.0592  0.0313
                                            0.0109 -0.0118 -0.0203  0.0044  0.0434
                                           -0.0137
    23. (0.00226) RY*( 9) O   1           s( 42.89%)p 0.54( 23.12%)d 0.78( 33.32%)
                                                  f 0.02(  0.66%)
                                            0.0000 -0.0060  0.6524  0.0161 -0.0554
                                           -0.0120  0.4492  0.0572 -0.0070 -0.0060
                                           -0.1263 -0.0366 -0.0626 -0.0010  0.0662
                                            0.0170  0.0039  0.1177  0.0495 -0.0100
                                           -0.0781 -0.0358  0.0095 -0.0829 -0.0297
                                           -0.0174  0.4127  0.1011  0.0631 -0.3194
                                           -0.1170 -0.0318 -0.0155  0.0105 -0.0265
                                            0.0387 -0.0188  0.0162 -0.0041  0.0095
                                            0.0145 -0.0027  0.0324 -0.0425 -0.0168
                                            0.0021
    24. (0.00067) RY*(10) O   1           s( 52.73%)p 0.64( 33.96%)d 0.12(  6.39%)
                                                  f 0.13(  6.91%)
                                            0.0000 -0.0041 -0.0501  0.7237  0.0327
                                           -0.0010 -0.0332 -0.0310 -0.0375 -0.0036
                                            0.0223 -0.5563 -0.1320 -0.0055 -0.0161
                                            0.0725  0.0569 -0.0260  0.0150 -0.0387
                                            0.0137  0.0883  0.0104  0.0418  0.0214
                                            0.1092  0.0158 -0.0050  0.0008  0.0112
                                           -0.1760  0.0891  0.0187 -0.0375 -0.0499
                                            0.0132 -0.2251  0.0473 -0.0926 -0.0245
                                            0.0291  0.0081 -0.0213  0.0246  0.0114
                                            0.0226
    25. (0.00056) RY*(11) O   1           s(  0.14%)p66.41(  9.16%)d99.99( 70.97%)
                                                  f99.99( 19.74%)
                                            0.0000 -0.0025 -0.0138 -0.0183  0.0291
                                           -0.0004 -0.0026  0.2727 -0.0376  0.0105
                                            0.0378  0.0444  0.0257  0.0143  0.0301
                                            0.0915  0.0467 -0.0129  0.5860  0.0249
                                           -0.0189  0.5776  0.0345  0.0061  0.0395
                                            0.0113 -0.0007  0.0581 -0.0017 -0.0261
                                            0.1562 -0.0088  0.1475 -0.0218 -0.0481
                                           -0.0021  0.1218 -0.0095 -0.2831  0.0309
                                            0.0131  0.0088 -0.1178  0.0006 -0.2487
                                            0.0285
    26. (0.00056) RY*(12) O   1           s(  0.87%)p68.91( 60.05%)d40.28( 35.10%)
                                                  f 4.56(  3.98%)
                                            0.0000 -0.0026 -0.0347  0.0686  0.0529
                                           -0.0030 -0.0140  0.2544 -0.0401  0.0036
                                            0.0091  0.3254 -0.0297 -0.0006 -0.0552
                                            0.6494  0.0483  0.0105  0.0528  0.0093
                                            0.0267 -0.2312  0.0259 -0.0079  0.3807
                                            0.0519  0.0256 -0.2213 -0.0071  0.0151
                                           -0.3091 -0.0041 -0.0741  0.0033  0.0429
                                            0.0053 -0.1348  0.0245 -0.0130 -0.0225
                                           -0.0348  0.0044 -0.0513  0.0180 -0.0928
                                            0.0113
    27. (0.00053) RY*(13) O   1           s(  0.47%)p98.40( 46.40%)d82.86( 39.07%)
                                                  f29.84( 14.07%)
                                            0.0000 -0.0054 -0.0329 -0.0342  0.0493
                                           -0.0052 -0.0312  0.5497 -0.0504  0.0021
                                            0.0406 -0.3012 -0.0491 -0.0077 -0.0172
                                           -0.2425 -0.0660 -0.0041  0.2598  0.0008
                                           -0.0025 -0.4511 -0.0444 -0.0182  0.1807
                                            0.0045  0.0112  0.0599  0.0061 -0.0191
                                            0.2820  0.0323 -0.2861  0.0062  0.0698
                                            0.0030  0.0641 -0.0071  0.1588 -0.0135
                                           -0.0923  0.0071 -0.1193  0.0039 -0.0391
                                            0.0043
    28. (0.00046) RY*(14) O   1           s(  1.12%)p14.92( 16.75%)d 5.14(  5.77%)
                                                  f68.02( 76.36%)
                                           -0.0000  0.0039 -0.0038  0.1056 -0.0065
                                            0.0043  0.0070 -0.2862  0.0026  0.0059
                                            0.0078  0.1584  0.0109 -0.0057 -0.0045
                                           -0.2378 -0.0602  0.0178  0.1556  0.0356
                                           -0.0089 -0.0687 -0.0085  0.0261 -0.0177
                                            0.0378 -0.0332 -0.0462 -0.0263  0.0186
                                           -0.1419 -0.0121 -0.4936 -0.0441  0.1103
                                            0.0065 -0.0772 -0.0098 -0.0609 -0.0256
                                            0.1309  0.0058  0.2075  0.0207 -0.6590
                                           -0.0230
    29. (0.00044) RY*(15) O   1           s(  0.17%)p20.70(  3.43%)d43.69(  7.23%)
                                                  f99.99( 89.17%)
                                           -0.0000  0.0008 -0.0005  0.0400  0.0072
                                           -0.0007  0.0005 -0.0534 -0.0158 -0.0029
                                           -0.0128  0.1179  0.0193 -0.0031 -0.0044
                                            0.1213  0.0449  0.0332 -0.0714  0.0096
                                           -0.0035 -0.0150 -0.0154  0.0383 -0.1919
                                           -0.0141  0.0016  0.1126  0.0293  0.0258
                                            0.1043  0.0447 -0.3958 -0.0409 -0.7017
                                           -0.0737 -0.0244  0.0031 -0.0286 -0.0193
                                            0.0628  0.0015 -0.4768 -0.0463  0.0189
                                           -0.0000
    30. (0.00044) RY*(16) O   1           s(  0.17%)p35.91(  5.97%)d67.79( 11.26%)
                                                  f99.99( 82.61%)
                                           -0.0000 -0.0007  0.0027  0.0316 -0.0256
                                            0.0020  0.0064 -0.1314  0.0073  0.0055
                                            0.0074 -0.1974 -0.0356  0.0012 -0.0099
                                            0.0428 -0.0067  0.0292 -0.0702  0.0109
                                            0.0245 -0.1130 -0.0125 -0.0522  0.1705
                                           -0.0165  0.0324 -0.1122  0.0112  0.0737
                                           -0.2041  0.0167  0.0082  0.0044 -0.1017
                                           -0.0150  0.8745  0.1035 -0.1792 -0.0198
                                            0.0123 -0.0045 -0.0326 -0.0058 -0.0783
                                            0.0026
    31. (0.00044) RY*(17) O   1           s(  0.93%)p 1.40(  1.31%)d 3.44(  3.21%)
                                                  f99.99( 94.55%)
                                           -0.0000  0.0000 -0.0044  0.0776  0.0573
                                            0.0030 -0.0078  0.0840  0.0109  0.0001
                                            0.0052  0.0715  0.0171 -0.0031 -0.0096
                                           -0.0148 -0.0115 -0.0488  0.0940 -0.0444
                                            0.0398 -0.0919  0.0184 -0.0320 -0.0660
                                           -0.0271  0.0063 -0.0394 -0.0251 -0.0049
                                           -0.0028  0.0130  0.1598  0.0258  0.0420
                                            0.0174  0.0667  0.0100  0.2194  0.0182
                                            0.9186  0.1062 -0.0836 -0.0095  0.0425
                                            0.0114
    32. (0.00044) RY*(18) O   1           s(  3.85%)p10.86( 41.76%)d 7.96( 30.62%)
                                                  f 6.18( 23.77%)
                                            0.0000  0.0009 -0.0269  0.1004  0.1663
                                           -0.0065 -0.0278  0.3678 -0.0507 -0.0093
                                           -0.0187  0.2862 -0.0306  0.0017  0.0048
                                           -0.4265 -0.1172 -0.0124 -0.0408 -0.0411
                                            0.0268 -0.0156  0.0387  0.0715 -0.2500
                                            0.0368  0.0468 -0.1611 -0.0311  0.0503
                                           -0.4453 -0.0366 -0.0493 -0.0332  0.0201
                                            0.0079 -0.0003  0.0089 -0.4020 -0.0525
                                           -0.0216  0.0208 -0.0608  0.0017  0.2529
                                            0.0265
    33. (0.00042) RY*(19) O   1           s(  2.02%)p 4.05(  8.18%)d10.17( 20.53%)
                                                  f34.31( 69.27%)
                                            0.0000 -0.0007 -0.0020  0.1230  0.0712
                                            0.0023 -0.0026  0.0460  0.0011  0.0010
                                           -0.0004  0.0497  0.0598  0.0033  0.0045
                                            0.2472  0.1115 -0.0561  0.1493 -0.0247
                                           -0.0728  0.2484 -0.0111  0.0317 -0.3093
                                           -0.0772  0.0130  0.0492  0.0164  0.0394
                                           -0.0339  0.0635 -0.5209 -0.0722  0.2684
                                            0.0438  0.2466  0.0367  0.3042  0.0373
                                           -0.0410 -0.0056  0.2143  0.0274  0.3674
                                            0.0527
    34. (0.00040) RY*(20) O   1           s(  0.98%)p15.09( 14.74%)d53.49( 52.23%)
                                                  f32.83( 32.05%)
                                            0.0000 -0.0016 -0.0050  0.0600  0.0783
                                            0.0001 -0.0128  0.1511  0.0310 -0.0006
                                           -0.0095 -0.0182  0.0532  0.0023 -0.0120
                                            0.3251  0.1199  0.0219 -0.2077 -0.0384
                                            0.0622 -0.2836 -0.0224  0.0631 -0.4879
                                           -0.1219 -0.0102  0.2052  0.0303 -0.0216
                                            0.2890  0.0919  0.0793  0.0197  0.2016
                                            0.0349  0.0540 -0.0003 -0.4444 -0.0729
                                            0.0442  0.0092  0.1010  0.0042 -0.2277
                                           -0.0471
    35. (0.00036) RY*(21) O   1           s(  5.46%)p 0.82(  4.48%)d 7.89( 43.10%)
                                                  f 8.59( 46.96%)
                                           -0.0000  0.0019 -0.0289  0.1671  0.1608
                                            0.0008 -0.0073 -0.0145 -0.0877  0.0008
                                            0.0170  0.1793  0.0586 -0.0022 -0.0205
                                           -0.0214  0.0093 -0.0261  0.3429  0.0616
                                            0.0259 -0.2759 -0.0540  0.0103 -0.1696
                                            0.0015 -0.0947  0.3702  0.0983  0.0545
                                           -0.2040 -0.0042  0.3185  0.0805 -0.3537
                                           -0.0774  0.0795  0.0204  0.2512  0.0506
                                           -0.1604 -0.0324  0.3505  0.0843 -0.0372
                                            0.0026
    36. (0.00034) RY*(22) O   1           s(  2.81%)p 9.65( 27.14%)d12.59( 35.41%)
                                                  f12.31( 34.63%)
                                           -0.0000  0.0027  0.0132  0.1429 -0.0868
                                           -0.0032  0.0012 -0.4494 -0.1582  0.0035
                                            0.0016  0.1985  0.0376 -0.0013 -0.0037
                                           -0.0402  0.0441 -0.0312  0.3976  0.1412
                                            0.0200 -0.2847 -0.1134  0.0023  0.1333
                                            0.0641  0.0526  0.0514  0.0694 -0.0351
                                            0.1980  0.0908 -0.0081 -0.0193  0.2168
                                            0.0492 -0.0217  0.0048 -0.3077 -0.1105
                                            0.0026  0.0057 -0.2011 -0.0280  0.3662
                                            0.1174
    37. (0.00029) RY*(23) O   1           s( 13.82%)p 0.58(  7.97%)d 0.36(  4.96%)
                                                  f 5.30( 73.26%)
                                           -0.0000  0.0053  0.0314  0.3046  0.2106
                                            0.0026 -0.0113 -0.0277 -0.0454 -0.0073
                                           -0.0198  0.2511  0.0579  0.0026  0.0035
                                           -0.0989 -0.0071  0.0575 -0.1205 -0.0484
                                           -0.0326  0.0399  0.0022 -0.0154 -0.0992
                                            0.0435  0.0175  0.0300  0.0153 -0.0269
                                            0.0317  0.1078  0.1832  0.0667  0.3010
                                            0.1303  0.1405  0.0752  0.3433  0.1241
                                           -0.2196 -0.0758 -0.5189 -0.2006 -0.2414
                                           -0.0816
    38. (0.00028) RY*(24) O   1           s( 12.38%)p 1.67( 20.72%)d 4.01( 49.57%)
                                                  f 1.40( 17.34%)
                                            0.0000 -0.0018  0.0580  0.3275 -0.1147
                                           -0.0070 -0.0062  0.1584  0.0222  0.0003
                                           -0.0453  0.3835 -0.0735 -0.0003  0.0210
                                           -0.1542  0.0527  0.0178 -0.2747 -0.1678
                                           -0.0096  0.1242  0.0643 -0.0486  0.3116
                                            0.1893 -0.0160  0.0788  0.0964 -0.0421
                                            0.3790  0.2750 -0.0261 -0.0785 -0.1176
                                           -0.0388  0.1133  0.1172 -0.0285 -0.0749
                                            0.0308  0.0323  0.2917  0.1643  0.0394
                                            0.0509
    39. (0.00021) RY*(25) O   1           s( 14.78%)p 0.96( 14.16%)d 4.20( 62.10%)
                                                  f 0.61(  8.95%)
                                           -0.0000 -0.0003 -0.0450 -0.2072  0.3207
                                            0.0115 -0.0161 -0.0480 -0.2612  0.0065
                                            0.0040 -0.0615 -0.2503 -0.0014 -0.0012
                                            0.0349 -0.0548  0.0138 -0.1566 -0.0792
                                           -0.0078  0.1066  0.1266 -0.0199  0.2151
                                            0.1538 -0.0919  0.6056  0.2809  0.0234
                                           -0.1615 -0.1076 -0.1164 -0.0822  0.1452
                                            0.0876 -0.0118 -0.0032 -0.0855 -0.0591
                                            0.1063  0.1031 -0.0795 -0.0262  0.0195
                                            0.0130
    40. (0.00013) RY*(26) O   1           s( 50.46%)p 0.27( 13.83%)d 0.52( 26.44%)
                                                  f 0.18(  9.28%)
                                            0.0000 -0.0010  0.0528 -0.0742  0.7045
                                           -0.0009  0.0712 -0.1602 -0.0794 -0.0018
                                            0.0034 -0.0262 -0.2887  0.0018 -0.0091
                                            0.0448 -0.1229  0.0040  0.0214  0.1216
                                           -0.0036  0.0048  0.1286  0.0072 -0.0282
                                            0.0563  0.0773 -0.2858 -0.2510 -0.0579
                                            0.2309  0.1458  0.0062  0.0729 -0.0629
                                           -0.1872  0.0019  0.0081 -0.0010 -0.0018
                                           -0.0173 -0.0505  0.0807  0.1930  0.0253
                                            0.0328
    41. (0.00008) RY*(27) O   1           s(  1.33%)p 2.94(  3.91%)d13.26( 17.63%)
                                                  f58.01( 77.13%)
    42. (0.00007) RY*(28) O   1           s(  2.09%)p 3.17(  6.62%)d 5.69( 11.88%)
                                                  f38.00( 79.41%)
    43. (0.00007) RY*(29) O   1           s(  6.97%)p 1.81( 12.64%)d 7.36( 51.26%)
                                                  f 4.18( 29.12%)
    44. (0.00008) RY*(30) O   1           s(  1.05%)p 7.09(  7.45%)d 1.30(  1.37%)
                                                  f85.73( 90.13%)
    45. (0.00007) RY*(31) O   1           s(  0.60%)p 1.21(  0.73%)d 3.61(  2.18%)
                                                  f99.99( 96.49%)
    46. (0.00007) RY*(32) O   1           s(  2.87%)p 1.29(  3.72%)d 2.27(  6.53%)
                                                  f30.22( 86.88%)
    47. (0.00007) RY*(33) O   1           s(  0.05%)p10.47(  0.56%)d99.99( 30.39%)
                                                  f99.99( 69.00%)
    48. (0.00006) RY*(34) O   1           s(  1.76%)p 3.03(  5.33%)d17.30( 30.40%)
                                                  f35.57( 62.52%)
    49. (0.00007) RY*(35) O   1           s(  0.38%)p49.20( 18.47%)d99.99( 62.56%)
                                                  f49.52( 18.59%)
    50. (0.00003) RY*(36) O   1           s(  9.48%)p 0.84(  7.92%)d 7.33( 69.45%)
                                                  f 1.39( 13.15%)
    51. (0.00003) RY*(37) O   1           s(  2.25%)p16.73( 37.68%)d21.55( 48.54%)
                                                  f 5.12( 11.52%)
    52. (0.00004) RY*(38) O   1           s(  5.92%)p 0.35(  2.05%)d 8.01( 47.43%)
                                                  f 7.54( 44.60%)
    53. (0.00001) RY*(39) O   1           s(  0.11%)p45.98(  4.88%)d99.99( 87.43%)
                                                  f71.56(  7.59%)
    54. (0.00000) RY*(40) O   1           s(  2.65%)p27.53( 72.99%)d 7.69( 20.40%)
                                                  f 1.49(  3.96%)
    55. (-.00005) RY*(41) O   1           s(  1.17%)p73.23( 85.99%)d10.30( 12.10%)
                                                  f 0.62(  0.73%)
    56. (0.00198) RY*( 1) H   2           s( 32.82%)p 1.60( 52.54%)d 0.45( 14.64%)
                                           -0.0003  0.5497 -0.1432 -0.0744 -0.1219
                                            0.0173 -0.0259 -0.3589 -0.0618 -0.0049
                                           -0.6120 -0.0497 -0.0034 -0.1901  0.0389
                                           -0.3104  0.0565 -0.0771  0.0309  0.0373
                                           -0.0141  0.0224 -0.0145
    57. (0.00170) RY*( 2) H   2           s( 66.52%)p 0.40( 26.51%)d 0.10(  6.96%)
                                           -0.0066  0.8065  0.0977  0.0719 -0.0675
                                            0.0439 -0.1533  0.2632 -0.0240 -0.0244
                                            0.4003  0.0631  0.0227  0.1223 -0.0215
                                            0.2082 -0.0443  0.0291 -0.0235 -0.0070
                                            0.0704 -0.0397 -0.0298
    58. (0.00083) RY*( 3) H   2           s( 19.90%)p 3.58( 71.17%)d 0.45(  8.93%)
                                           -0.0070  0.0630  0.4000 -0.1871  0.2854
[...]
                                                  f 0.00(  0.09%)
   116. (0.00001) RY*(39)Cl   3           s(  0.12%)p99.99( 97.46%)d11.40(  1.40%)
                                                  f 8.21(  1.01%)
   117. (0.00001) RY*(40)Cl   3           s(  0.68%)p99.99( 97.76%)d 1.28(  0.87%)
                                                  f 1.01(  0.69%)
   118. (0.00001) RY*(41)Cl   3           s(  0.59%)p99.99( 94.61%)d 7.21(  4.24%)
                                                  f 0.96(  0.56%)
   119. (0.00724) RY*( 1) H   4           s( 58.61%)p 0.68( 40.02%)d 0.02(  1.37%)
                                           -0.0194  0.7633 -0.0551 -0.0108  0.1657
                                           -0.0245  0.0012  0.6078 -0.0218 -0.0134
                                            0.0220 -0.0054 -0.0395 -0.0227 -0.0017
                                           -0.0088  0.0051 -0.0798  0.0040  0.0776
                                           -0.0129  0.0172 -0.0154
   120. (0.00428) RY*( 2) H   4           s( 21.26%)p 3.65( 77.64%)d 0.05(  1.10%)
                                            0.0052  0.4597  0.0337  0.0130 -0.0522
                                            0.0130 -0.0125 -0.5318  0.0198 -0.0160
                                           -0.6873 -0.1291 -0.0294 -0.0302 -0.0036
                                           -0.0380  0.0231  0.0346 -0.0305 -0.0054
                                            0.0545  0.0294  0.0455
   121. (0.00351) RY*( 3) H   4           s(  4.43%)p21.39( 94.69%)d 0.20(  0.88%)
                                           -0.0230  0.1318  0.1623 -0.0064  0.8237
                                            0.0014  0.0188 -0.3940  0.0241 -0.0104
                                            0.3321  0.0406 -0.0114 -0.0280  0.0040
                                           -0.0136 -0.0046  0.0175 -0.0104  0.0685
                                           -0.0016 -0.0519  0.0039
   122. (0.00199) RY*( 4) H   4           s( 21.68%)p 3.55( 77.00%)d 0.06(  1.32%)
                                           -0.0083  0.3943  0.2439  0.0423 -0.5120
                                            0.0109  0.0014 -0.3382  0.2241 -0.0097
                                            0.5691  0.1090 -0.0851  0.0554 -0.0298
                                            0.0576 -0.0100  0.0621 -0.0108 -0.0032
                                            0.0308  0.0291  0.0084
   123. (0.00046) RY*( 5) H   4           s( 21.32%)p 3.08( 65.58%)d 0.61( 13.10%)
                                            0.0031 -0.0878  0.4530 -0.0173  0.0852
                                            0.3685 -0.0431  0.1930  0.3491  0.0208
                                           -0.2554  0.5244 -0.1053  0.0223  0.0081
                                            0.1055 -0.0636  0.2906  0.0045  0.0527
                                            0.0232  0.1656 -0.0015
   124. (0.00037) RY*( 6) H   4           s(  2.32%)p37.76( 87.63%)d 4.33( 10.05%)
                                           -0.0013 -0.0201  0.0098  0.1507  0.0566
                                           -0.8328  0.1072  0.0433  0.3159 -0.0177
                                           -0.0936  0.2219  0.0897 -0.0175 -0.1483
                                            0.0437  0.0540  0.1850 -0.0033 -0.1741
                                           -0.0561  0.0671 -0.0345
   125. (0.00031) RY*( 7) H   4           s(  9.38%)p 6.03( 56.54%)d 3.64( 34.09%)
                                            0.0018  0.0605  0.2896 -0.0791 -0.0076
                                           -0.0181  0.2100  0.0416 -0.2834  0.5917
                                            0.0036 -0.2054  0.2158  0.1898  0.1297
                                            0.1027 -0.0953  0.3352 -0.1279 -0.2341
                                           -0.2805 -0.0071 -0.0785
   126. (0.00024) RY*( 8) H   4           s(  5.18%)p 3.55( 18.37%)d14.76( 76.45%)
                                            0.0031 -0.0368  0.1686 -0.1483 -0.0305
                                           -0.1656  0.1646  0.0071 -0.2463 -0.2454
                                           -0.0428 -0.0552  0.0497  0.4659 -0.1477
                                            0.3392  0.1385  0.0846 -0.0073  0.6066
                                            0.0436  0.0480  0.1093
   127. (0.00019) RY*( 9) H   4           s(  2.14%)p12.95( 27.71%)d32.78( 70.15%)
                                            0.0081  0.0058  0.1413 -0.0367 -0.0415
                                           -0.0630 -0.1841  0.0384 -0.3608 -0.2627
                                            0.0861 -0.1288  0.1136 -0.4792 -0.0980
                                           -0.2019 -0.0637  0.5303  0.0783  0.0524
                                            0.1024  0.2990  0.1654
   128. (0.00015) RY*(10) H   4           s( 11.73%)p 5.11( 59.92%)d 2.42( 28.35%)
                                           -0.0136 -0.0996  0.3185 -0.0758  0.0686
                                           -0.0334  0.0033  0.1584  0.3210 -0.0907
                                           -0.0030 -0.5993 -0.3127  0.0974 -0.1026
                                            0.0405 -0.0533 -0.0495 -0.1644 -0.2442
                                            0.2086  0.0412  0.3532
   129. (0.00016) RY*(11) H   4           s( 16.70%)p 1.11( 18.49%)d 3.88( 64.81%)
                                           -0.0020 -0.0688  0.3423 -0.2124 -0.0879
                                           -0.1964  0.0016  0.0269 -0.0654  0.2317
                                           -0.0585  0.0603 -0.2699 -0.3075 -0.1830
                                           -0.3885 -0.0415 -0.2262 -0.2264  0.3783
                                           -0.1506 -0.3026 -0.0869
   130. (0.00010) RY*(12) H   4           s(  4.50%)p11.79( 53.10%)d 9.42( 42.40%)
   131. (0.00010) RY*(13) H   4           s(  2.06%)p19.71( 40.67%)d27.75( 57.27%)
   132. (0.00008) RY*(14) H   4           s(  0.62%)p53.49( 33.32%)d99.99( 66.06%)
   133. (0.00009) RY*(15) H   4           s(  2.05%)p 6.26( 12.80%)d41.63( 85.15%)
   134. (0.00007) RY*(16) H   4           s(  7.46%)p 0.28(  2.08%)d12.12( 90.46%)
   135. (0.00007) RY*(17) H   4           s( 25.47%)p 0.83( 21.09%)d 2.10( 53.44%)
   136. (0.00004) RY*(18) H   4           s(  1.13%)p28.15( 31.94%)d58.98( 66.92%)
   137. (0.00005) RY*(19) H   4           s(  1.57%)p12.61( 19.83%)d50.00( 78.60%)
   138. (0.00004) RY*(20) H   4           s(  7.07%)p 2.40( 16.99%)d10.74( 75.94%)
   139. (0.00002) RY*(21) H   4           s(  0.45%)p86.66( 38.77%)d99.99( 60.78%)
   140. (0.00003) RY*(22) H   4           s( 72.99%)p 0.08(  5.71%)d 0.29( 21.31%)
   141. (0.02149) BD*( 1) O   1 - H   2  
                ( 27.21%)   0.5217* O   1 s( 20.87%)p 3.77( 78.67%)d 0.02(  0.45%)
                                                  f 0.00(  0.01%)
                                           -0.0002 -0.4567  0.0075 -0.0025  0.0048
                                           -0.8842  0.0333 -0.0084  0.0009 -0.0541
                                            0.0132 -0.0013  0.0032  0.0220 -0.0091
                                            0.0009 -0.0015  0.0147 -0.0003 -0.0024
                                           -0.0135  0.0023 -0.0001  0.0040  0.0004
                                           -0.0017 -0.0540  0.0035 -0.0032  0.0334
                                           -0.0016  0.0007 -0.0000 -0.0002  0.0069
                                            0.0013  0.0004 -0.0001  0.0005  0.0000
                                            0.0054 -0.0017 -0.0051 -0.0025 -0.0013
                                            0.0002
                ( 72.79%)  -0.8532* H   2 s( 99.89%)p 0.00(  0.10%)d 0.00(  0.01%)
                                           -0.9994 -0.0036  0.0002 -0.0001 -0.0011
                                           -0.0310  0.0044 -0.0032 -0.0002  0.0010
                                           -0.0008 -0.0017  0.0001 -0.0024  0.0020
                                           -0.0011 -0.0008  0.0019  0.0007 -0.0078
                                            0.0015  0.0044 -0.0005
   142. (0.04247) BD*( 1) O   1 - H   4  
                ( 23.13%)   0.4809* O   1 s( 24.76%)p 3.02( 74.78%)d 0.02(  0.45%)
                                                  f 0.00(  0.01%)
                                            0.0003  0.4976 -0.0003 -0.0003 -0.0008
                                           -0.1997  0.0185  0.0001 -0.0020 -0.7124
                                            0.0151 -0.0072  0.0025  0.4469 -0.0071
                                            0.0055 -0.0047 -0.0075  0.0052 -0.0027
                                            0.0040 -0.0030  0.0017 -0.0541  0.0027
                                            0.0021 -0.0368  0.0022 -0.0001 -0.0061
                                           -0.0010  0.0022 -0.0088  0.0008  0.0006
                                           -0.0005 -0.0001 -0.0008 -0.0049 -0.0021
                                            0.0028  0.0007  0.0016  0.0014 -0.0026
                                            0.0036
                ( 76.87%)  -0.8768* H   4 s( 99.86%)p 0.00(  0.13%)d 0.00(  0.01%)
                                            0.9992  0.0168  0.0006 -0.0002  0.0195
                                           -0.0005 -0.0003  0.0041  0.0199  0.0061
                                            0.0170 -0.0128 -0.0053  0.0002 -0.0025
                                           -0.0004  0.0017 -0.0018 -0.0002  0.0073
                                           -0.0009 -0.0025 -0.0009


 NHO Directionality and "Bond Bending" (deviations from line of nuclear centers)

         [Thresholds for printing:  angular deviation  >  1.0 degree]
                                    hybrid p-character > 25.0%
                                    orbital occupancy  >  0.10e

                                Line of Centers        Hybrid 1              Hybrid 2
                                ---------------  -------------------   ------------------
                NBO               Theta   Phi    Theta   Phi    Dev    Theta   Phi    Dev
 ========================================================================================
     1. BD (   1) O   1 - H   2    90.0    0.0    90.8    2.6   2.7      --     --    --
     2. BD (   1) O   1 - H   4    60.0  258.3    58.7  255.4   2.8      --     --    --
     9. LP (   1) O   1             --     --    114.0  131.9   --       --     --    --
    10. LP (   2) O   1             --     --    148.3  270.3   --       --     --    --
    12. LP (   2)Cl   3             --     --    141.9   15.5   --       --     --    --
    13. LP (   3)Cl   3             --     --    120.7  155.2   --       --     --    --
    14. LP (   4)Cl   3             --     --     69.7   77.6   --       --     --    --


 Natural Bond Orbitals (Summary):

           NBO                  Occupancy  
 -----------------------------------------------
 Molecular unit  1  (H2O)
     1. BD (   1) O   1 - H   2          1.96616
     2. BD (   1) O   1 - H   4          1.96760
     3. CR (   1) O   1                  1.99967
     9. LP (   1) O   1                  1.97050
    10. LP (   2) O   1                  1.96097
    15. RY*(   1) O   1                  0.02033
    16. RY*(   2) O   1                  0.01532
    17. RY*(   3) O   1                  0.00720
    18. RY*(   4) O   1                  0.00629
    19. RY*(   5) O   1                  0.00623
    20. RY*(   6) O   1                  0.00594
    21. RY*(   7) O   1                  0.00565
    22. RY*(   8) O   1                  0.00298
    23. RY*(   9) O   1                  0.00226
    24. RY*(  10) O   1                  0.00067
    25. RY*(  11) O   1                  0.00056
    26. RY*(  12) O   1                  0.00056
    27. RY*(  13) O   1                  0.00053
    28. RY*(  14) O   1                  0.00046
    29. RY*(  15) O   1                  0.00044
    30. RY*(  16) O   1                  0.00044
    31. RY*(  17) O   1                  0.00044
    32. RY*(  18) O   1                  0.00044
    33. RY*(  19) O   1                  0.00042
    34. RY*(  20) O   1                  0.00040
    35. RY*(  21) O   1                  0.00036
    36. RY*(  22) O   1                  0.00034
    37. RY*(  23) O   1                  0.00029
    38. RY*(  24) O   1                  0.00028
    39. RY*(  25) O   1                  0.00021
    40. RY*(  26) O   1                  0.00013
    41. RY*(  27) O   1                  0.00008
    42. RY*(  28) O   1                  0.00007
    43. RY*(  29) O   1                  0.00007
    44. RY*(  30) O   1                  0.00008
    45. RY*(  31) O   1                  0.00007
    46. RY*(  32) O   1                  0.00007
    47. RY*(  33) O   1                  0.00007
    48. RY*(  34) O   1                  0.00006
    49. RY*(  35) O   1                  0.00007
    50. RY*(  36) O   1                  0.00003
    51. RY*(  37) O   1                  0.00003
    52. RY*(  38) O   1                  0.00004
    53. RY*(  39) O   1                  0.00001
    54. RY*(  40) O   1                  0.00000
    55. RY*(  41) O   1                 -0.00005
    56. RY*(   1) H   2                  0.00198
    57. RY*(   2) H   2                  0.00170
    58. RY*(   3) H   2                  0.00083
    59. RY*(   4) H   2                  0.00051
    60. RY*(   5) H   2                  0.00030
    61. RY*(   6) H   2                  0.00019
    62. RY*(   7) H   2                  0.00012
    63. RY*(   8) H   2                  0.00011
    64. RY*(   9) H   2                  0.00010
    65. RY*(  10) H   2                  0.00010
    66. RY*(  11) H   2                  0.00009
    67. RY*(  12) H   2                  0.00006
    68. RY*(  13) H   2                  0.00005
    69. RY*(  14) H   2                  0.00003
    70. RY*(  15) H   2                  0.00002
    71. RY*(  16) H   2                  0.00003
    72. RY*(  17) H   2                  0.00002
    73. RY*(  18) H   2                  0.00002
    74. RY*(  19) H   2                  0.00003
    75. RY*(  20) H   2                  0.00002
    76. RY*(  21) H   2                  0.00002
    77. RY*(  22) H   2                  0.00000
   119. RY*(   1) H   4                  0.00724
   120. RY*(   2) H   4                  0.00428
   121. RY*(   3) H   4                  0.00351
   122. RY*(   4) H   4                  0.00199
   123. RY*(   5) H   4                  0.00046
   124. RY*(   6) H   4                  0.00037
   125. RY*(   7) H   4                  0.00031
   126. RY*(   8) H   4                  0.00024
   127. RY*(   9) H   4                  0.00019
   128. RY*(  10) H   4                  0.00015
   129. RY*(  11) H   4                  0.00016
   130. RY*(  12) H   4                  0.00010
   131. RY*(  13) H   4                  0.00010
   132. RY*(  14) H   4                  0.00008
   133. RY*(  15) H   4                  0.00009
   134. RY*(  16) H   4                  0.00007
   135. RY*(  17) H   4                  0.00007
   136. RY*(  18) H   4                  0.00004
   137. RY*(  19) H   4                  0.00005
   138. RY*(  20) H   4                  0.00004
   139. RY*(  21) H   4                  0.00002
   140. RY*(  22) H   4                  0.00003
   141. BD*(   1) O   1 - H   2          0.02149
   142. BD*(   1) O   1 - H   4          0.04247
       -------------------------------
              Total Lewis    9.86490  ( 98.3081%)
        Valence non-Lewis    0.06396  (  0.6374%)
        Rydberg non-Lewis    0.10581  (  1.0545%)
       -------------------------------
            Total unit  1   10.03468  (100.0000%)
           Charge unit  1   -0.03468

 Molecular unit  2  (Cl)
     4. CR (   1)Cl   3                  2.00001
     5. CR (   2)Cl   3                  2.00000
     6. CR (   3)Cl   3                  2.00003
     7. CR (   4)Cl   3                  2.00002
     8. CR (   5)Cl   3                  2.00003
    11. LP (   1)Cl   3                  1.98011
    12. LP (   2)Cl   3                  1.95255
    13. LP (   3)Cl   3                  1.95237
    14. LP (   4)Cl   3                  1.92891
    78. RY*(   1)Cl   3                  0.01840
    79. RY*(   2)Cl   3                  0.01839
    80. RY*(   3)Cl   3                  0.01830
    81. RY*(   4)Cl   3                  0.01830
    82. RY*(   5)Cl   3                  0.01815
    83. RY*(   6)Cl   3                  0.01372
    84. RY*(   7)Cl   3                  0.01361
    85. RY*(   8)Cl   3                  0.01196
    86. RY*(   9)Cl   3                  0.00345
    87. RY*(  10)Cl   3                  0.00129
    88. RY*(  11)Cl   3                  0.00129
    89. RY*(  12)Cl   3                  0.00129
    90. RY*(  13)Cl   3                  0.00129
    91. RY*(  14)Cl   3                  0.00130
    92. RY*(  15)Cl   3                  0.00129
    93. RY*(  16)Cl   3                  0.00129
    94. RY*(  17)Cl   3                  0.00100
    95. RY*(  18)Cl   3                  0.00100
    96. RY*(  19)Cl   3                  0.00083
    97. RY*(  20)Cl   3                  0.00082
    98. RY*(  21)Cl   3                  0.00077
    99. RY*(  22)Cl   3                  0.00057
   100. RY*(  23)Cl   3                  0.00057
   101. RY*(  24)Cl   3                  0.00054
   102. RY*(  25)Cl   3                  0.00028
   103. RY*(  26)Cl   3                  0.00014
   104. RY*(  27)Cl   3                  0.00014
   105. RY*(  28)Cl   3                  0.00015
   106. RY*(  29)Cl   3                  0.00015
   107. RY*(  30)Cl   3                  0.00015
   108. RY*(  31)Cl   3                  0.00014
   109. RY*(  32)Cl   3                  0.00015
   110. RY*(  33)Cl   3                  0.00010
   111. RY*(  34)Cl   3                  0.00010
   112. RY*(  35)Cl   3                  0.00010
   113. RY*(  36)Cl   3                  0.00009
   114. RY*(  37)Cl   3                  0.00010
   115. RY*(  38)Cl   3                  0.00006
   116. RY*(  39)Cl   3                  0.00001
   117. RY*(  40)Cl   3                  0.00001
   118. RY*(  41)Cl   3                  0.00001
       -------------------------------
              Total Lewis   17.81403  ( 99.1579%)
        Valence non-Lewis    0.00000  (  0.0000%)
        Rydberg non-Lewis    0.15129  (  0.8421%)
       -------------------------------
            Total unit  2   17.96532  (100.0000%)
           Charge unit  2   -0.96532
 Leave Link  607 at Tue Oct 19 16:01:50 2021, MaxMem= 16106127360 cpu:              68.8 elap:               2.5
 (Enter /sw/contrib/gaussian/g16/B01/g16/l9999.exe)
 1\1\GINC-N2098\SP\RMP2-FC\Aug-CC-pVTZ\Cl1H2O1(1-)\CGAVINH\19-Oct-2021\
 0\\#p pop=NBO SP NoSymm mp2/aug-cc-pvtz density=current\\title\\-1,1\O
 \X,1,10.\H,1,0.96061628,2,90.\Cl,1,3.08954942,2,90.,3,101.71720655,0\H
 ,1,0.97913,2,60.,3,101.71720655,0\\Version=ES64L-G16RevB.01\HF=-535.64
 31592\MP2=-536.1252753\RMSD=5.012e-09\Dipole=0.8195712,1.1228506,0.208
 837\Quadrupole=10.2057607,-20.2016354,9.9958747,-5.9024002,-0.1357378,
 -0.2964765\PG=C01 [X(Cl1H2O1)]\\@


 ADAM SMITH SAID, "THE REAL PRICE OF ANYTHING IS THE TOIL AND TROUBLE
 OF ACQUIRING IT."  BUT IN ALL UNDERTAKINGS WITH NATURE WE SHOULD FIRST
 READ CAREFULLY THE SMALL PRINT IN THE CONTRACT. THIS MIGHT DISCLOSE
 THAT THE REAL PRICE IS TO BE PAID BY THOSE WHO INHERIT THE DEPLETION
 AND DESPOILATION THAT FOLLOWS.
                               -- E. R. HARRISON IN "COSMOLOGY" (1980)
 Job cpu time:       0 days  0 hours  3 minutes 13.8 seconds.
 Elapsed time:       0 days  0 hours  0 minutes  9.1 seconds.
 File lengths (MBytes):  RWF=     10 Int=      0 D2E=      0 Chk=      8 Scr=      1
 Normal termination of Gaussian 16 at Tue Oct 19 16:01:50 2021.
