 Entering Gaussian System, Link 0=g16
 Input=clhod_oop_sp.gjf
 Output=clhod_oop_sp.log
 Initial command:
 /sw/contrib/gaussian/g16/B01/g16/l1.exe "/scr/Gau-17253.inp" -scrdir="/scr/"
 Entering Link 1 = /sw/contrib/gaussian/g16/B01/g16/l1.exe PID=     17254.
  
 Copyright (c) 1988-2017, Gaussian, Inc.  All Rights Reserved.
  
 This is part of the Gaussian(R) 16 program.  It is based on
 the Gaussian(R) 09 system (copyright 2009, Gaussian, Inc.),
 the Gaussian(R) 03 system (copyright 2003, Gaussian, Inc.),
 the Gaussian(R) 98 system (copyright 1998, Gaussian, Inc.),
 the Gaussian(R) 94 system (copyright 1995, Gaussian, Inc.),
 the Gaussian 92(TM) system (copyright 1992, Gaussian, Inc.),
 the Gaussian 90(TM) system (copyright 1990, Gaussian, Inc.),
 the Gaussian 88(TM) system (copyright 1988, Gaussian, Inc.),
 the Gaussian 86(TM) system (copyright 1986, Carnegie Mellon
 University), and the Gaussian 82(TM) system (copyright 1983,
 Carnegie Mellon University). Gaussian is a federally registered
 trademark of Gaussian, Inc.
  
 This software contains proprietary and confidential information,
 including trade secrets, belonging to Gaussian, Inc.
  
 This software is provided under written license and may be
 used, copied, transmitted, or stored only in accord with that
 written license.
  
 The following legend is applicable only to US Government
 contracts under FAR:
  
                    RESTRICTED RIGHTS LEGEND
  
 Use, reproduction and disclosure by the US Government is
 subject to restrictions as set forth in subparagraphs (a)
 and (c) of the Commercial Computer Software - Restricted
 Rights clause in FAR 52.227-19.
  
 Gaussian, Inc.
 340 Quinnipiac St., Bldg. 40, Wallingford CT 06492
  
  
 ---------------------------------------------------------------
 Warning -- This program may not be used in any manner that
 competes with the business of Gaussian, Inc. or will provide
 assistance to any competitor of Gaussian, Inc.  The licensee
 of this program is prohibited from giving any competitor of
 Gaussian, Inc. access to this program.  By using this program,
 the user acknowledges that Gaussian, Inc. is engaged in the
 business of creating and licensing software in the field of
 computational chemistry and represents and warrants to the
 licensee that it is not a competitor of Gaussian, Inc. and that
 it will not use this program in any manner prohibited above.
 ---------------------------------------------------------------
  

 Cite this work as:
 Gaussian 16, Revision B.01,
 M. J. Frisch, G. W. Trucks, H. B. Schlegel, G. E. Scuseria, 
 M. A. Robb, J. R. Cheeseman, G. Scalmani, V. Barone, 
 G. A. Petersson, H. Nakatsuji, X. Li, M. Caricato, A. V. Marenich, 
 J. Bloino, B. G. Janesko, R. Gomperts, B. Mennucci, H. P. Hratchian, 
 J. V. Ortiz, A. F. Izmaylov, J. L. Sonnenberg, D. Williams-Young, 
 F. Ding, F. Lipparini, F. Egidi, J. Goings, B. Peng, A. Petrone, 
 T. Henderson, D. Ranasinghe, V. G. Zakrzewski, J. Gao, N. Rega, 
 G. Zheng, W. Liang, M. Hada, M. Ehara, K. Toyota, R. Fukuda, 
 J. Hasegawa, M. Ishida, T. Nakajima, Y. Honda, O. Kitao, H. Nakai, 
 T. Vreven, K. Throssell, J. A. Montgomery, Jr., J. E. Peralta, 
 F. Ogliaro, M. J. Bearpark, J. J. Heyd, E. N. Brothers, K. N. Kudin, 
 V. N. Staroverov, T. A. Keith, R. Kobayashi, J. Normand, 
 K. Raghavachari, A. P. Rendell, J. C. Burant, S. S. Iyengar, 
 J. Tomasi, M. Cossi, J. M. Millam, M. Klene, C. Adamo, R. Cammi, 
 J. W. Ochterski, R. L. Martin, K. Morokuma, O. Farkas, 
 J. B. Foresman, and D. J. Fox, Gaussian, Inc., Wallingford CT, 2016.
 
 ******************************************
 Gaussian 16:  ES64L-G16RevB.01 20-Dec-2017
                 6-Oct-2021 
 ******************************************
 %nproc=28
 Will use up to   28 processors via shared memory.
 %mem=120GB
 %chk=/gscratch/ilahie/mccoygrp/coire_hocl/oop_s_rOH_opt/clhod/clhod_0_sp.chk
 ---------------------------------------------------------
 #p pop=NBO opt=(z-matrix) mp2/aug-cc-pvtz density=current
 ---------------------------------------------------------
 1/10=7,18=40,38=1/1,3;
 2/12=2,17=6,18=5,29=3,40=1/2;
 3/5=16,6=1,7=10,11=9,25=1,30=1,71=1/1,2,3;
 4//1;
 5/5=2,38=5/2;
 8/6=4,10=1/1;
 9/15=2,16=-3/6;
 10/5=1/2;
 6/7=2,8=2,9=2,10=2,22=-1,40=1/1,7;
 7/12=2,29=1/1,2,3,16;
 1/10=7,18=40/3(2);
 2/29=3/2;
 99//99;
 2/29=3/2;
 3/5=16,6=1,7=10,11=9,25=1,30=1,71=1/1,2,3;
 4/5=5,16=3,69=1/1;
 5/5=2,38=5/2;
 8/6=4,10=1/1;
 9/15=2,16=-3/6;
 10/5=1/2;
 7/12=2/1,2,3,16;
 1/18=40/3(-8);
 2/29=3/2;
 6/7=2,8=2,9=2,10=2,22=-1,40=1/1,7;
 99/9=10/99;
 Leave Link    1 at Wed Oct  6 17:16:24 2021, MaxMem= 16106127360 cpu:               1.4 elap:               0.1
 (Enter /sw/contrib/gaussian/g16/B01/g16/l101.exe)
 -----
 title
 -----
 Symbolic Z-matrix:
 Charge = -1 Multiplicity = 1
 O
 X                    1     10. 
 H(iso=2)             1    r1       2     90. 
 Cl                   1    r2       2     90.      3    a1       0
 H                    1    r3       2    oop      3    a1       0
       Variables:
  r1                    0.96062 -1        0.     
  r2                    3.08955 -1        0.     
  r3                    0.9926                   
  a1                  101.71721 -1        0.     
  OOP                  90.                       
 
 ITRead=  0  0  0  0
 MicOpt= -1 -1 -1 -1
 NAtoms=      4 NQM=        4 NQMF=       0 NMMI=      0 NMMIF=      0
                NMic=       0 NMicF=      0.
                    Isotopes and Nuclear Properties:
 (Nuclear quadrupole moments (NQMom) in fm**2, nuclear magnetic moments (NMagM)
  in nuclear magnetons)

  Atom         1           2           3           4
 IAtWgt=          16           2          35           1
 AtmWgt=  15.9949146   2.0141018  34.9688527   1.0078250
 NucSpn=           0           2           3           1
 AtZEff=  -0.0000000  -0.0000000  -0.0000000  -0.0000000
 NQMom=    0.0000000   0.2860000  -8.1650000   0.0000000
 NMagM=    0.0000000   0.8574380   0.8218740   2.7928460
 AtZNuc=   8.0000000   1.0000000  17.0000000   1.0000000
 Leave Link  101 at Wed Oct  6 17:16:24 2021, MaxMem= 16106127360 cpu:               2.9 elap:               0.1
 (Enter /sw/contrib/gaussian/g16/B01/g16/l103.exe)

 GradGradGradGradGradGradGradGradGradGradGradGradGradGradGradGradGradGrad
 Berny optimization.
 Initialization pass.
                       ----------------------------
                       !    Initial Parameters    !
                       ! (Angstroms and Degrees)  !
 ----------------------                            ----------------------
 !      Name          Value   Derivative information (Atomic Units)     !
 ------------------------------------------------------------------------
 !       r1          0.9606   Frozen                                    !
 !       r2          3.0895   Frozen                                    !
 !       r3          0.9926   estimate D2E/DX2                          !
 !       a1        101.7172   Frozen                                    !
 !       OOP        90.0      estimate D2E/DX2                          !
 ------------------------------------------------------------------------
 Trust Radius=3.00D-01 FncErr=1.00D-07 GrdErr=1.00D-07 EigMax=2.50D+02 EigMin=1.00D-04
 Number of steps in this run=     20 maximum allowed number of steps=    100.
 GradGradGradGradGradGradGradGradGradGradGradGradGradGradGradGradGradGrad

 Leave Link  103 at Wed Oct  6 17:16:24 2021, MaxMem= 16106127360 cpu:               0.6 elap:               0.0
 (Enter /sw/contrib/gaussian/g16/B01/g16/l202.exe)
 ---------------------------------------------------------------------------------------------------
                            Z-MATRIX (ANGSTROMS AND DEGREES)
   CD    Cent   Atom    N1       Length/X        N2       Alpha/Y        N3        Beta/Z          J
 ---------------------------------------------------------------------------------------------------
      1      1  O 
      2         X        1  10.000000(     1)
      3      2  H        1   0.960616(     2)      2   90.000(     5)
      4      3  Cl       1   3.089549(     3)      2   90.000(     6)      3  101.717(     8)      0
      5      4  H        1   0.992602(     4)      2   90.000(     7)      3  101.717(     9)      0
 ---------------------------------------------------------------------------------------------------
                         Z-Matrix orientation:                         
 ---------------------------------------------------------------------
 Center     Atomic      Atomic             Coordinates (Angstroms)
 Number     Number       Type             X           Y           Z
 ---------------------------------------------------------------------
      1          8           0        0.000000    0.000000    0.000000
      2         -1           0        0.000000    0.000000   10.000000
      3          1           0        0.960616    0.000000    0.000000
      4         17           0       -0.627430   -3.025169    0.000000
      5          1           0       -0.201579   -0.971918    0.000000
 ---------------------------------------------------------------------
                    Distance matrix (angstroms):
                    1          2          3          4          5
     1  O    0.000000
     2  X   10.000000   0.000000
     3  H    0.960616  10.046033   0.000000
     4  Cl   3.089549  10.466390   3.416656   0.000000
     5  H    0.992602  10.049142   1.515032   2.096948   0.000000
 Stoichiometry    ClH2O(1-)
 Framework group  CS[SG(ClH2O)]
 Deg. of freedom     5
 Full point group                 CS      NOp   2
 Largest Abelian subgroup         CS      NOp   2
 Largest concise Abelian subgroup C1      NOp   1
                         Standard orientation:                         
 ---------------------------------------------------------------------
 Center     Atomic      Atomic             Coordinates (Angstroms)
 Number     Number       Type             X           Y           Z
 ---------------------------------------------------------------------
      1          8           0        0.034837    1.974810    0.000000
      2          1           0       -0.905762    2.169893   -0.000000
      3         17           0        0.034837   -1.114740    0.000000
      4          1           0        0.034837    0.982208    0.000000
 ---------------------------------------------------------------------
 Rotational constants (GHZ):         323.3617180           4.3431069           4.2855473
 Leave Link  202 at Wed Oct  6 17:16:24 2021, MaxMem= 16106127360 cpu:               0.8 elap:               0.1
 (Enter /sw/contrib/gaussian/g16/B01/g16/l301.exe)
 Standard basis: Aug-CC-pVTZ (5D, 7F)
 Ernie: Thresh=  0.10000D-02 Tol=  0.10000D-05 Strict=F.
 Ernie:  16 primitive shells out of 116 were deleted.
 There are   113 symmetry adapted cartesian basis functions of A'  symmetry.
 There are    51 symmetry adapted cartesian basis functions of A"  symmetry.
 There are    95 symmetry adapted basis functions of A'  symmetry.
 There are    47 symmetry adapted basis functions of A"  symmetry.
   142 basis functions,   240 primitive gaussians,   164 cartesian basis functions
    14 alpha electrons       14 beta electrons
       nuclear repulsion energy        39.2383188933 Hartrees.
 IExCor=    0 DFT=F Ex=HF Corr=None ExCW=0 ScaHFX=  1.000000
 ScaDFX=  1.000000  1.000000  1.000000  1.000000 ScalE2=  1.000000  1.000000
 IRadAn=      5 IRanWt=     -1 IRanGd=            0 ICorTp=0 IEmpDi=  4
 NAtoms=    4 NActive=    4 NUniq=    4 SFac= 1.00D+00 NAtFMM=   60 NAOKFM=F Big=F
 Integral buffers will be    131072 words long.
 Raffenetti 1 integral format.
 Two-electron integral symmetry is turned on.
 Leave Link  301 at Wed Oct  6 17:16:24 2021, MaxMem= 16106127360 cpu:               1.7 elap:               0.1
 (Enter /sw/contrib/gaussian/g16/B01/g16/l302.exe)
 NPDir=0 NMtPBC=     1 NCelOv=     1 NCel=       1 NClECP=     1 NCelD=      1
         NCelK=      1 NCelE2=     1 NClLst=     1 CellRange=     0.0.
 One-electron integrals computed using PRISM.
 One-electron integral symmetry used in STVInt
 NBasis=   142 RedAO= T EigKep=  2.85D-04  NBF=    95    47
 NBsUse=   142 1.00D-06 EigRej= -1.00D+00 NBFU=    95    47
 Leave Link  302 at Wed Oct  6 17:16:25 2021, MaxMem= 16106127360 cpu:               5.5 elap:               0.2
 (Enter /sw/contrib/gaussian/g16/B01/g16/l303.exe)
 DipDrv:  MaxL=1.
 Leave Link  303 at Wed Oct  6 17:16:25 2021, MaxMem= 16106127360 cpu:               1.3 elap:               0.1
 (Enter /sw/contrib/gaussian/g16/B01/g16/l401.exe)
 ExpMin= 2.53D-02 ExpMax= 4.56D+05 ExpMxC= 1.44D+03 IAcc=3 IRadAn=         5 AccDes= 0.00D+00
 Harris functional with IExCor=  205 and IRadAn=       5 diagonalized for initial guess.
 HarFok:  IExCor=  205 AccDes= 0.00D+00 IRadAn=         5 IDoV= 1 UseB2=F ITyADJ=14
 ICtDFT=  3500011 ScaDFX=  1.000000  1.000000  1.000000  1.000000
 FoFCou: FMM=F IPFlag=           0 FMFlag=      100000 FMFlg1=           0
         NFxFlg=           0 DoJE=T BraDBF=F KetDBF=T FulRan=T
         wScrn=  0.000000 ICntrl=       500 IOpCl=  0 I1Cent=   200000004 NGrid=           0
         NMat0=    1 NMatS0=      1 NMatT0=    0 NMatD0=    1 NMtDS0=    0 NMtDT0=    0
 Petite list used in FoFCou.
 Harris En= -535.446675690068    
 JPrj=0 DoOrth=F DoCkMO=F.
 Initial guess orbital symmetries:
       Occupied  (A') (A') (A') (A') (A') (A") (A') (A') (A') (A')
                 (A") (A') (A') (A")
       Virtual   (A') (A') (A') (A") (A') (A') (A') (A") (A') (A')
                 (A') (A') (A") (A") (A') (A') (A") (A') (A') (A")
                 (A') (A') (A') (A') (A") (A') (A') (A") (A') (A")
                 (A') (A") (A') (A") (A') (A') (A') (A") (A') (A')
                 (A') (A") (A") (A') (A') (A") (A') (A") (A") (A')
                 (A') (A') (A') (A') (A') (A") (A") (A') (A") (A')
                 (A") (A') (A') (A') (A') (A") (A') (A") (A') (A')
                 (A") (A') (A") (A') (A') (A") (A') (A') (A") (A')
                 (A") (A') (A') (A") (A') (A") (A') (A") (A') (A')
                 (A") (A') (A') (A') (A") (A') (A") (A') (A") (A')
                 (A") (A") (A') (A') (A') (A') (A") (A') (A') (A')
                 (A") (A') (A') (A') (A') (A") (A') (A") (A") (A')
                 (A') (A") (A") (A') (A') (A') (A') (A')
 The electronic state of the initial guess is 1-A'.
 Leave Link  401 at Wed Oct  6 17:16:25 2021, MaxMem= 16106127360 cpu:               6.0 elap:               0.3
 (Enter /sw/contrib/gaussian/g16/B01/g16/l502.exe)
 Keep R1 ints in memory in symmetry-blocked form, NReq=77720007.
 FoFCou: FMM=F IPFlag=           0 FMFlag=           0 FMFlg1=           0
         NFxFlg=           0 DoJE=F BraDBF=F KetDBF=F FulRan=T
         wScrn=  0.000000 ICntrl=       600 IOpCl=  0 I1Cent=           0 NGrid=           0
         NMat0=    1 NMatS0=  10153 NMatT0=    0 NMatD0=    1 NMtDS0=    0 NMtDT0=    0
 Petite list used in FoFCou.
 Closed shell SCF:
 Using DIIS extrapolation, IDIIS=  1040.
 NGot= 16106127360 LenX= 16079895157 LenY= 16079867820
 Requested convergence on RMS density matrix=1.00D-08 within 128 cycles.
 Requested convergence on MAX density matrix=1.00D-06.
 Requested convergence on             energy=1.00D-06.
 No special actions if energy rises.

 Cycle   1  Pass 1  IDiag  1:
 E= -535.513927096989    
 DIIS: error= 4.71D-02 at cycle   1 NSaved=   1.
 NSaved= 1 IEnMin= 1 EnMin= -535.513927096989     IErMin= 1 ErrMin= 4.71D-02
 ErrMax= 4.71D-02  0.00D+00 EMaxC= 1.00D-01 BMatC= 3.43D-01 BMatP= 3.43D-01
 IDIUse=3 WtCom= 5.29D-01 WtEn= 4.71D-01
 Coeff-Com:  0.100D+01
 Coeff-En:   0.100D+01
 Coeff:      0.100D+01
 Gap=     0.388 Goal=   None    Shift=    0.000
 GapD=    0.388 DampG=1.000 DampE=0.500 DampFc=0.5000 IDamp=-1.
 Damping current iteration by 5.00D-01
 RMSDP=2.24D-03 MaxDP=5.77D-02              OVMax= 1.32D-01

 Cycle   2  Pass 1  IDiag  1:
 E= -535.586334886141     Delta-E=       -0.072407789152 Rises=F Damp=T
 DIIS: error= 1.63D-02 at cycle   2 NSaved=   2.
 NSaved= 2 IEnMin= 2 EnMin= -535.586334886141     IErMin= 2 ErrMin= 1.63D-02
 ErrMax= 1.63D-02  0.00D+00 EMaxC= 1.00D-01 BMatC= 6.29D-02 BMatP= 3.43D-01
 IDIUse=3 WtCom= 8.37D-01 WtEn= 1.63D-01
 Coeff-Com: -0.477D+00 0.148D+01
 Coeff-En:   0.000D+00 0.100D+01
 Coeff:     -0.399D+00 0.140D+01
 Gap=     0.313 Goal=   None    Shift=    0.000
 RMSDP=9.38D-04 MaxDP=3.35D-02 DE=-7.24D-02 OVMax= 6.72D-02

 Cycle   3  Pass 1  IDiag  1:
 E= -535.648827208338     Delta-E=       -0.062492322197 Rises=F Damp=F
 DIIS: error= 5.74D-03 at cycle   3 NSaved=   3.
 NSaved= 3 IEnMin= 3 EnMin= -535.648827208338     IErMin= 3 ErrMin= 5.74D-03
 ErrMax= 5.74D-03  0.00D+00 EMaxC= 1.00D-01 BMatC= 2.36D-03 BMatP= 6.29D-02
 IDIUse=3 WtCom= 9.43D-01 WtEn= 5.74D-02
 Coeff-Com: -0.149D+00 0.271D+00 0.879D+00
 Coeff-En:   0.000D+00 0.000D+00 0.100D+01
 Coeff:     -0.141D+00 0.255D+00 0.886D+00
 Gap=     0.321 Goal=   None    Shift=    0.000
 RMSDP=1.71D-04 MaxDP=4.30D-03 DE=-6.25D-02 OVMax= 1.13D-02

 Cycle   4  Pass 1  IDiag  1:
 E= -535.650364768741     Delta-E=       -0.001537560403 Rises=F Damp=F
 DIIS: error= 6.06D-04 at cycle   4 NSaved=   4.
 NSaved= 4 IEnMin= 4 EnMin= -535.650364768741     IErMin= 4 ErrMin= 6.06D-04
 ErrMax= 6.06D-04  0.00D+00 EMaxC= 1.00D-01 BMatC= 4.92D-05 BMatP= 2.36D-03
 IDIUse=3 WtCom= 9.94D-01 WtEn= 6.06D-03
 Coeff-Com: -0.225D-01 0.383D-01 0.182D+00 0.803D+00
 Coeff-En:   0.000D+00 0.000D+00 0.000D+00 0.100D+01
 Coeff:     -0.224D-01 0.381D-01 0.181D+00 0.804D+00
 Gap=     0.315 Goal=   None    Shift=    0.000
 RMSDP=3.88D-05 MaxDP=9.51D-04 DE=-1.54D-03 OVMax= 2.32D-03

 Cycle   5  Pass 1  IDiag  1:
 E= -535.650416351239     Delta-E=       -0.000051582498 Rises=F Damp=F
 DIIS: error= 1.69D-04 at cycle   5 NSaved=   5.
 NSaved= 5 IEnMin= 5 EnMin= -535.650416351239     IErMin= 5 ErrMin= 1.69D-04
 ErrMax= 1.69D-04  0.00D+00 EMaxC= 1.00D-01 BMatC= 3.73D-06 BMatP= 4.92D-05
 IDIUse=3 WtCom= 9.98D-01 WtEn= 1.69D-03
 Coeff-Com:  0.148D-01-0.281D-01-0.897D-01-0.454D-01 0.115D+01
 Coeff-En:   0.000D+00 0.000D+00 0.000D+00 0.000D+00 0.100D+01
 Coeff:      0.147D-01-0.281D-01-0.895D-01-0.453D-01 0.115D+01
 Gap=     0.316 Goal=   None    Shift=    0.000
 RMSDP=2.10D-05 MaxDP=5.56D-04 DE=-5.16D-05 OVMax= 1.61D-03

 Cycle   6  Pass 1  IDiag  1:
 E= -535.650425983654     Delta-E=       -0.000009632415 Rises=F Damp=F
 DIIS: error= 5.14D-05 at cycle   6 NSaved=   6.
 NSaved= 6 IEnMin= 6 EnMin= -535.650425983654     IErMin= 6 ErrMin= 5.14D-05
 ErrMax= 5.14D-05  0.00D+00 EMaxC= 1.00D-01 BMatC= 2.39D-07 BMatP= 3.73D-06
 IDIUse=1 WtCom= 1.00D+00 WtEn= 0.00D+00
 Coeff-Com: -0.200D-02 0.437D-02 0.111D-01-0.134D-01-0.361D+00 0.136D+01
 Coeff:     -0.200D-02 0.437D-02 0.111D-01-0.134D-01-0.361D+00 0.136D+01
 Gap=     0.316 Goal=   None    Shift=    0.000
 RMSDP=6.95D-06 MaxDP=1.59D-04 DE=-9.63D-06 OVMax= 5.29D-04

 Cycle   7  Pass 1  IDiag  1:
 E= -535.650426831616     Delta-E=       -0.000000847961 Rises=F Damp=F
 DIIS: error= 1.09D-05 at cycle   7 NSaved=   7.
 NSaved= 7 IEnMin= 7 EnMin= -535.650426831616     IErMin= 7 ErrMin= 1.09D-05
 ErrMax= 1.09D-05  0.00D+00 EMaxC= 1.00D-01 BMatC= 7.69D-09 BMatP= 2.39D-07
 IDIUse=1 WtCom= 1.00D+00 WtEn= 0.00D+00
 Coeff-Com:  0.130D-04-0.211D-03-0.126D-03 0.472D-02 0.694D-01-0.419D+00
 Coeff-Com:  0.135D+01
 Coeff:      0.130D-04-0.211D-03-0.126D-03 0.472D-02 0.694D-01-0.419D+00
 Coeff:      0.135D+01
 Gap=     0.316 Goal=   None    Shift=    0.000
 RMSDP=1.18D-06 MaxDP=3.11D-05 DE=-8.48D-07 OVMax= 8.36D-05

 Cycle   8  Pass 1  IDiag  1:
 E= -535.650426856464     Delta-E=       -0.000000024848 Rises=F Damp=F
 DIIS: error= 1.86D-06 at cycle   8 NSaved=   8.
 NSaved= 8 IEnMin= 8 EnMin= -535.650426856464     IErMin= 8 ErrMin= 1.86D-06
 ErrMax= 1.86D-06  0.00D+00 EMaxC= 1.00D-01 BMatC= 2.67D-10 BMatP= 7.69D-09
 IDIUse=1 WtCom= 1.00D+00 WtEn= 0.00D+00
 Coeff-Com:  0.557D-04-0.124D-03-0.342D-03 0.248D-03 0.114D-01-0.402D-01
 Coeff-Com: -0.154D-01 0.104D+01
 Coeff:      0.557D-04-0.124D-03-0.342D-03 0.248D-03 0.114D-01-0.402D-01
 Coeff:     -0.154D-01 0.104D+01
 Gap=     0.316 Goal=   None    Shift=    0.000
 RMSDP=1.63D-07 MaxDP=3.99D-06 DE=-2.48D-08 OVMax= 1.15D-05

 Cycle   9  Pass 1  IDiag  1:
 E= -535.650426857061     Delta-E=       -0.000000000597 Rises=F Damp=F
 DIIS: error= 5.59D-07 at cycle   9 NSaved=   9.
 NSaved= 9 IEnMin= 9 EnMin= -535.650426857061     IErMin= 9 ErrMin= 5.59D-07
 ErrMax= 5.59D-07  0.00D+00 EMaxC= 1.00D-01 BMatC= 2.59D-11 BMatP= 2.67D-10
 IDIUse=1 WtCom= 1.00D+00 WtEn= 0.00D+00
 Coeff-Com: -0.123D-04 0.425D-04 0.730D-04-0.425D-03-0.784D-02 0.439D-01
 Coeff-Com: -0.126D+00-0.112D+00 0.120D+01
 Coeff:     -0.123D-04 0.425D-04 0.730D-04-0.425D-03-0.784D-02 0.439D-01
 Coeff:     -0.126D+00-0.112D+00 0.120D+01
 Gap=     0.316 Goal=   None    Shift=    0.000
 RMSDP=5.10D-08 MaxDP=1.10D-06 DE=-5.97D-10 OVMax= 4.14D-06

 Cycle  10  Pass 1  IDiag  1:
 E= -535.650426857128     Delta-E=       -0.000000000067 Rises=F Damp=F
 DIIS: error= 9.09D-08 at cycle  10 NSaved=  10.
 NSaved=10 IEnMin=10 EnMin= -535.650426857128     IErMin=10 ErrMin= 9.09D-08
 ErrMax= 9.09D-08  0.00D+00 EMaxC= 1.00D-01 BMatC= 1.05D-12 BMatP= 2.59D-11
 IDIUse=1 WtCom= 1.00D+00 WtEn= 0.00D+00
 Coeff-Com: -0.940D-06 0.646D-06 0.407D-05 0.254D-04 0.321D-03-0.278D-02
 Coeff-Com:  0.149D-01-0.387D-01-0.118D+00 0.114D+01
 Coeff:     -0.940D-06 0.646D-06 0.407D-05 0.254D-04 0.321D-03-0.278D-02
 Coeff:      0.149D-01-0.387D-01-0.118D+00 0.114D+01
 Gap=     0.316 Goal=   None    Shift=    0.000
 RMSDP=1.57D-08 MaxDP=5.09D-07 DE=-6.73D-11 OVMax= 8.40D-07

 Cycle  11  Pass 1  IDiag  1:
 E= -535.650426857132     Delta-E=       -0.000000000004 Rises=F Damp=F
 DIIS: error= 2.15D-08 at cycle  11 NSaved=  11.
 NSaved=11 IEnMin=11 EnMin= -535.650426857132     IErMin=11 ErrMin= 2.15D-08
 ErrMax= 2.15D-08  0.00D+00 EMaxC= 1.00D-01 BMatC= 5.75D-14 BMatP= 1.05D-12
 IDIUse=1 WtCom= 1.00D+00 WtEn= 0.00D+00
 Coeff-Com:  0.989D-06-0.278D-05-0.498D-05 0.214D-04 0.398D-03-0.212D-02
 Coeff-Com:  0.523D-02 0.976D-02-0.607D-01-0.109D+00 0.116D+01
 Coeff:      0.989D-06-0.278D-05-0.498D-05 0.214D-04 0.398D-03-0.212D-02
 Coeff:      0.523D-02 0.976D-02-0.607D-01-0.109D+00 0.116D+01
 Gap=     0.316 Goal=   None    Shift=    0.000
 RMSDP=5.52D-09 MaxDP=2.04D-07 DE=-4.09D-12 OVMax= 2.13D-07

 SCF Done:  E(RHF) =  -535.650426857     A.U. after   11 cycles
            NFock= 11  Conv=0.55D-08     -V/T= 2.0002
 KE= 5.355427882078D+02 PE=-1.361265158123D+03 EE= 2.508336241652D+02
 Leave Link  502 at Wed Oct  6 17:16:26 2021, MaxMem= 16106127360 cpu:              26.0 elap:               1.2
 (Enter /sw/contrib/gaussian/g16/B01/g16/l801.exe)
 ExpMin= 2.53D-02 ExpMax= 4.56D+05 ExpMxC= 1.44D+03 IAcc=3 IRadAn=         5 AccDes= 0.00D+00
 HarFok:  IExCor=  205 AccDes= 0.00D+00 IRadAn=         5 IDoV=-2 UseB2=F ITyADJ=14
 ICtDFT= 12500011 ScaDFX=  1.000000  1.000000  1.000000  1.000000
 DSYEVD-2 returned Info=         101 IAlg= 4 N=    50 NDim=    50 NE2=   322121132 trying  DSYEV.
 Largest valence mixing into a core orbital is  4.53D-04
 Largest core mixing into a valence orbital is  1.83D-04
 Range of M.O.s used for correlation:     7   142
 NBasis=   142 NAE=    14 NBE=    14 NFC=     6 NFV=     0
 NROrb=    136 NOA=     8 NOB=     8 NVA=   128 NVB=   128

 **** Warning!!: The largest alpha MO coefficient is  0.16837691D+02

 Leave Link  801 at Wed Oct  6 17:16:26 2021, MaxMem= 16106127360 cpu:               1.9 elap:               0.1
 (Enter /sw/contrib/gaussian/g16/B01/g16/l906.exe)
 Frozen-core derivative calculation, NFC=   6 NFV=   0.
 FulOut=F Deriv=T AODrv=T NAtomX=     4
   MMem=         252  MDisk=           8 MDiskD=           8
  W3Min=      326032 MinDsk=      657538 NBas6D=         164
 NBas2D=       13905    NTT=       13530    LW2=     3500000
    MDV= 16105837521 MDiskM=      490970 NBas2p=       13825
 Fully direct method using O(ONN) memory.
 IMap=   1   2   3   4   5   6   7   8   9  10  11  12  13  14
 JobTyp=1 Pass  1:  I=   7 to  14 NPSUse= 28 ParTrn=T ParDer=T DoDerP=T.
 Spin components of T(2) and E(2):
     alpha-alpha T2 =       0.1964717393D-01 E2=     -0.6021498416D-01
     alpha-beta  T2 =       0.1073843353D+00 E2=     -0.3631362209D+00
     beta-beta   T2 =       0.1964717393D-01 E2=     -0.6021498416D-01
 The integrals were generated   1 times.
 ANorm=    0.1070830838D+01
 E2 =    -0.4835661892D+00 EUMP2 =    -0.53613399304637D+03
 Leave Link  906 at Wed Oct  6 17:16:31 2021, MaxMem= 16106127360 cpu:             121.0 elap:               4.4
 (Enter /sw/contrib/gaussian/g16/B01/g16/l1002.exe)
 Minotr:  Closed shell wavefunction.
          Computing MP2/KS-MP2 derivatives.
          Using Z-Vector for PSCF gradient.
          Skipping F1 and S1 gradient terms here.
          IDoAtm=1111
          Frozen-core window.
          Direct CPHF calculation.
          Differentiating once with respect to electric field.
                with respect to dipole field.
          Differentiating once with respect to nuclear coordinates.
          Using symmetry in CPHF.
          Requested convergence is 1.0D-10 RMS, and 1.0D-09 maximum.
          NewPWx=F KeepS1=T KeepF1=T KeepIn=T MapXYZ=F SortEE=F KeepMc=T.
 Keep R1 ints in memory in symmetry-blocked form, NReq=77720971.
 FoFCou: FMM=F IPFlag=           0 FMFlag=           0 FMFlg1=           0
         NFxFlg=           0 DoJE=F BraDBF=F KetDBF=F FulRan=T
         wScrn=  0.000000 ICntrl=       600 IOpCl=  0 I1Cent=           0 NGrid=           0
         NMat0=    1 NMatS0=  10153 NMatT0=    0 NMatD0=    1 NMtDS0=    0 NMtDT0=    0
 Petite list used in FoFCou.
          MDV=   16106127360 using IRadAn=       5.
          Solving linear equations separately, MaxMat=       0.
          There are     1 degrees of freedom in the 1st order CPHF.  IDoFFX=0 NUNeed=     1.
 LinEq1:  Iter=  0 NonCon=     1 RMS=3.01D-03 Max=3.98D-02 NDo=     1
 AX will form     1 AO Fock derivatives at one time.
 LinEq1:  Iter=  1 NonCon=     1 RMS=3.75D-04 Max=5.50D-03 NDo=     1
 LinEq1:  Iter=  2 NonCon=     1 RMS=1.13D-04 Max=1.25D-03 NDo=     1
 LinEq1:  Iter=  3 NonCon=     1 RMS=3.67D-05 Max=3.45D-04 NDo=     1
 LinEq1:  Iter=  4 NonCon=     1 RMS=1.06D-05 Max=9.35D-05 NDo=     1
 LinEq1:  Iter=  5 NonCon=     1 RMS=2.65D-06 Max=2.83D-05 NDo=     1
 LinEq1:  Iter=  6 NonCon=     1 RMS=6.50D-07 Max=8.55D-06 NDo=     1
 LinEq1:  Iter=  7 NonCon=     1 RMS=1.62D-07 Max=1.64D-06 NDo=     1
 LinEq1:  Iter=  8 NonCon=     1 RMS=3.80D-08 Max=4.13D-07 NDo=     1
 LinEq1:  Iter=  9 NonCon=     1 RMS=6.46D-09 Max=9.51D-08 NDo=     1
 LinEq1:  Iter= 10 NonCon=     1 RMS=9.32D-10 Max=8.42D-09 NDo=     1
 LinEq1:  Iter= 11 NonCon=     1 RMS=2.21D-10 Max=2.42D-09 NDo=     1
 LinEq1:  Iter= 12 NonCon=     0 RMS=4.98D-11 Max=5.75D-10 NDo=     1
 Linear equations converged to 1.000D-10 1.000D-09 after    12 iterations.
 End of Minotr F.D. properties file   721 does not exist.
 End of Minotr F.D. properties file   722 does not exist.
 End of Minotr F.D. properties file   788 does not exist.
 Leave Link 1002 at Wed Oct  6 17:16:32 2021, MaxMem= 16106127360 cpu:              26.9 elap:               1.5
 (Enter /sw/contrib/gaussian/g16/B01/g16/l601.exe)
 Copying SCF densities to generalized density rwf, IOpCl= 0 IROHF=0.

 **********************************************************************

            Population analysis using the MP2 Density.

 **********************************************************************

 Orbital symmetries:
       Occupied  (A') (A') (A') (A') (A') (A") (A') (A') (A') (A')
                 (A") (A') (A') (A")
       Virtual   (A') (A') (A') (A") (A') (A') (A') (A") (A') (A')
                 (A') (A") (A') (A") (A') (A') (A") (A') (A') (A')
                 (A") (A') (A') (A') (A') (A') (A") (A") (A") (A')
                 (A') (A") (A') (A') (A") (A') (A') (A") (A') (A')
                 (A') (A") (A') (A') (A") (A') (A") (A") (A') (A")
                 (A') (A') (A') (A') (A") (A') (A") (A') (A') (A")
                 (A") (A') (A') (A') (A') (A") (A') (A") (A') (A")
                 (A') (A') (A') (A") (A') (A') (A") (A') (A") (A')
                 (A") (A') (A') (A") (A') (A") (A') (A") (A') (A')
                 (A") (A') (A') (A') (A') (A") (A') (A") (A") (A')
                 (A") (A') (A") (A') (A') (A') (A") (A') (A') (A')
                 (A") (A') (A') (A') (A') (A") (A') (A") (A') (A")
                 (A") (A') (A") (A') (A') (A') (A') (A')
 The electronic state is 1-A'.
 Alpha  occ. eigenvalues -- -104.53003 -20.37743 -10.25450  -7.72060  -7.72054
 Alpha  occ. eigenvalues --   -7.72053  -1.15800  -0.76530  -0.51570  -0.40560
 Alpha  occ. eigenvalues --   -0.32256  -0.18219  -0.17752  -0.17706
 Alpha virt. eigenvalues --    0.13868   0.18208   0.25650   0.26704   0.27572
 Alpha virt. eigenvalues --    0.28774   0.30504   0.31084   0.35228   0.39681
 Alpha virt. eigenvalues --    0.41295   0.41907   0.43417   0.49909   0.55272
 Alpha virt. eigenvalues --    0.55632   0.58061   0.59264   0.61147   0.66840
 Alpha virt. eigenvalues --    0.68589   0.69988   0.72813   0.82292   0.85611
 Alpha virt. eigenvalues --    0.87157   0.88634   0.89508   0.92368   0.94053
 Alpha virt. eigenvalues --    1.02127   1.02759   1.03854   1.07817   1.08526
 Alpha virt. eigenvalues --    1.09694   1.11005   1.11911   1.14408   1.18713
 Alpha virt. eigenvalues --    1.19904   1.20009   1.23057   1.26094   1.28354
 Alpha virt. eigenvalues --    1.32159   1.32368   1.40119   1.41864   1.44537
 Alpha virt. eigenvalues --    1.44817   1.50545   1.57431   1.59306   1.62313
 Alpha virt. eigenvalues --    1.68670   1.70425   1.74674   1.79052   1.79285
 Alpha virt. eigenvalues --    1.90161   1.90391   2.09614   2.12795   2.26275
 Alpha virt. eigenvalues --    2.46144   2.51870   2.59078   2.63083   2.63420
 Alpha virt. eigenvalues --    2.64815   2.65931   2.74170   2.80506   2.80835
 Alpha virt. eigenvalues --    2.86541   2.89747   2.91982   2.92469   2.98212
 Alpha virt. eigenvalues --    3.00495   3.00560   3.06980   3.16855   3.20489
 Alpha virt. eigenvalues --    3.34475   3.34513   3.39522   3.39787   3.41742
 Alpha virt. eigenvalues --    3.50540   3.53545   3.61489   3.87953   4.21506
 Alpha virt. eigenvalues --    4.23877   4.34909   4.37099   4.45518   4.45676
 Alpha virt. eigenvalues --    4.56586   4.59123   4.64366   4.78001   4.97344
 Alpha virt. eigenvalues --    5.11539   5.29792   5.38107   5.45227   5.52389
 Alpha virt. eigenvalues --    5.68602   5.79727   6.26094   6.50280   6.73741
 Alpha virt. eigenvalues --    6.91097   7.11037   7.29406   7.44280   7.45017
 Alpha virt. eigenvalues --    7.48148   7.55717   7.63562   7.80732   8.09374
 Alpha virt. eigenvalues --    8.14468   8.96815  16.20294
          Condensed to atoms (all electrons):
               1          2          3          4
     1  O    8.265622   0.210622  -0.069803   0.140748
     2  H    0.210622   0.608440   0.004269   0.011228
     3  Cl  -0.069803   0.004269  17.931539   0.046131
     4  H    0.140748   0.011228   0.046131   0.508010
 Mulliken charges:
               1
     1  O   -0.547189
     2  H    0.165441
     3  Cl  -0.912135
     4  H    0.293883
 Sum of Mulliken charges =  -1.00000
 Mulliken charges with hydrogens summed into heavy atoms:
               1
     1  O   -0.087865
     3  Cl  -0.912135
 Electronic spatial extent (au):  <R**2>=            272.1689
 Charge=             -1.0000 electrons
 Dipole moment (field-independent basis, Debye):
    X=             -1.4569    Y=              2.5382    Z=             -0.0000  Tot=              2.9266
 Quadrupole moment (field-independent basis, Debye-Ang):
   XX=            -22.8436   YY=            -35.4424   ZZ=            -25.1264
   XY=             -3.3064   XZ=             -0.0000   YZ=             -0.0000
 Traceless Quadrupole moment (field-independent basis, Debye-Ang):
   XX=              4.9605   YY=             -7.6382   ZZ=              2.6777
   XY=             -3.3064   XZ=             -0.0000   YZ=             -0.0000
 Octapole moment (field-independent basis, Debye-Ang**2):
  XXX=             -2.0066  YYY=              6.2036  ZZZ=             -0.0000  XYY=             -8.3394
  XXY=              7.8579  XXZ=             -0.0000  XZZ=             -0.1562  YZZ=              2.9491
  YYZ=             -0.0000  XYZ=              0.0000
 Hexadecapole moment (field-independent basis, Debye-Ang**3):
 XXXX=            -36.6477 YYYY=           -359.1435 ZZZZ=            -37.4641 XXXY=              0.4892
 XXXZ=             -0.0000 YYYX=            -14.7684 YYYZ=             -0.0000 ZZZX=             -0.0000
 ZZZY=              0.0000 XXYY=            -54.3179 XXZZ=            -12.6387 YYZZ=            -64.6710
 XXYZ=             -0.0000 YYXZ=             -0.0000 ZZXY=              1.3095
 N-N= 3.923831889335D+01 E-N=-1.361211611487D+03  KE= 5.360238807107D+02
 Symmetry A'   KE= 4.862521571634D+02
 Symmetry A"   KE= 4.977172354727D+01
 No NMR shielding tensors so no spin-rotation constants.
 Leave Link  601 at Wed Oct  6 17:16:32 2021, MaxMem= 16106127360 cpu:               4.1 elap:               0.2
 (Enter /sw/contrib/gaussian/g16/B01/g16/l607.exe)
 ******************************Gaussian NBO Version 3.1******************************
             N A T U R A L   A T O M I C   O R B I T A L   A N D
          N A T U R A L   B O N D   O R B I T A L   A N A L Y S I S
 ******************************Gaussian NBO Version 3.1******************************
       /RESON  / : Allow strongly delocalized NBO set

 Analyzing the MP2 density

 Job title: title                                                           

 Storage needed:     61222 in NPA,     81148 in NBO (********** available)
 GSVD:  LWork=       -1046 too small for GESVD, short by       42557 words or       42557 for optimal perf.


 NATURAL POPULATIONS:  Natural atomic orbital occupancies 
                                                          
   NAO  Atom  No  lang   Type(AO)    Occupancy
 --------------------------------------------
     1    O    1  S      Cor( 1S)     1.99967
     2    O    1  S      Val( 2S)     1.74211
     3    O    1  S      Ryd( 3S)     0.00597
     4    O    1  S      Ryd( 4S)     0.00044
     5    O    1  S      Ryd( 5S)     0.00018
     6    O    1  px     Val( 2p)     1.56688
     7    O    1  px     Ryd( 3p)     0.01070
     8    O    1  px     Ryd( 4p)     0.00053
     9    O    1  px     Ryd( 5p)     0.00006
    10    O    1  py     Val( 2p)     1.62982
    11    O    1  py     Ryd( 3p)     0.01063
    12    O    1  py     Ryd( 4p)     0.00060
    13    O    1  py     Ryd( 5p)     0.00010
    14    O    1  pz     Val( 2p)     1.95392
    15    O    1  pz     Ryd( 3p)     0.02091
    16    O    1  pz     Ryd( 4p)     0.00060
    17    O    1  pz     Ryd( 5p)     0.00000
    18    O    1  dxy    Ryd( 3d)     0.00843
    19    O    1  dxy    Ryd( 4d)     0.00041
    20    O    1  dxy    Ryd( 5d)     0.00006
    21    O    1  dxz    Ryd( 3d)     0.00885
    22    O    1  dxz    Ryd( 4d)     0.00047
    23    O    1  dxz    Ryd( 5d)     0.00007
    24    O    1  dyz    Ryd( 3d)     0.00688
    25    O    1  dyz    Ryd( 4d)     0.00045
    26    O    1  dyz    Ryd( 5d)     0.00009
    27    O    1  dx2y2  Ryd( 3d)     0.01219
    28    O    1  dx2y2  Ryd( 4d)     0.00032
    29    O    1  dx2y2  Ryd( 5d)     0.00010
    30    O    1  dz2    Ryd( 3d)     0.00903
    31    O    1  dz2    Ryd( 4d)     0.00045
    32    O    1  dz2    Ryd( 5d)     0.00011
    33    O    1  f(0)   Ryd( 4f)     0.00063
    34    O    1  f(0)   Ryd( 5f)     0.00010
    35    O    1  f(C1)  Ryd( 4f)     0.00057
    36    O    1  f(C1)  Ryd( 5f)     0.00008
    37    O    1  f(S1)  Ryd( 4f)     0.00056
    38    O    1  f(S1)  Ryd( 5f)     0.00008
    39    O    1  f(C2)  Ryd( 4f)     0.00046
    40    O    1  f(C2)  Ryd( 5f)     0.00009
    41    O    1  f(S2)  Ryd( 4f)     0.00046
    42    O    1  f(S2)  Ryd( 5f)     0.00007
    43    O    1  f(C3)  Ryd( 4f)     0.00040
    44    O    1  f(C3)  Ryd( 5f)     0.00011
    45    O    1  f(S3)  Ryd( 4f)     0.00041
    46    O    1  f(S3)  Ryd( 5f)     0.00010

    47    H    2  S      Val( 1S)     0.55140
    48    H    2  S      Ryd( 2S)     0.00166
    49    H    2  S      Ryd( 3S)     0.00016
    50    H    2  S      Ryd( 4S)     0.00007
    51    H    2  px     Ryd( 2p)     0.00187
    52    H    2  px     Ryd( 3p)     0.00054
    53    H    2  px     Ryd( 4p)     0.00014
    54    H    2  py     Ryd( 2p)     0.00156
    55    H    2  py     Ryd( 3p)     0.00022
    56    H    2  py     Ryd( 4p)     0.00009
    57    H    2  pz     Ryd( 2p)     0.00513
    58    H    2  pz     Ryd( 3p)     0.00019
    59    H    2  pz     Ryd( 4p)     0.00005
    60    H    2  dxy    Ryd( 3d)     0.00007
    61    H    2  dxy    Ryd( 4d)     0.00005
    62    H    2  dxz    Ryd( 3d)     0.00008
    63    H    2  dxz    Ryd( 4d)     0.00006
    64    H    2  dyz    Ryd( 3d)     0.00011
    65    H    2  dyz    Ryd( 4d)     0.00003
    66    H    2  dx2y2  Ryd( 3d)     0.00009
    67    H    2  dx2y2  Ryd( 4d)     0.00004
    68    H    2  dz2    Ryd( 3d)     0.00011
    69    H    2  dz2    Ryd( 4d)     0.00007

    70   Cl    3  S      Cor( 1S)     2.00001
    71   Cl    3  S      Cor( 2S)     2.00000
    72   Cl    3  S      Val( 3S)     1.97543
    73   Cl    3  S      Ryd( 4S)     0.00228
    74   Cl    3  S      Ryd( 5S)     0.00024
    75   Cl    3  S      Ryd( 6S)     0.00006
    76   Cl    3  px     Cor( 2p)     2.00003
    77   Cl    3  px     Val( 3p)     1.95237
    78   Cl    3  px     Ryd( 4p)     0.01320
    79   Cl    3  px     Ryd( 5p)     0.00058
    80   Cl    3  px     Ryd( 6p)     0.00002
    81   Cl    3  py     Cor( 2p)     2.00002
    82   Cl    3  py     Val( 3p)     1.90423
    83   Cl    3  py     Ryd( 4p)     0.01109
    84   Cl    3  py     Ryd( 5p)     0.00055
    85   Cl    3  py     Ryd( 6p)     0.00010
    86   Cl    3  pz     Cor( 2p)     2.00003
    87   Cl    3  pz     Val( 3p)     1.95265
    88   Cl    3  pz     Ryd( 4p)     0.01316
    89   Cl    3  pz     Ryd( 5p)     0.00058
    90   Cl    3  pz     Ryd( 6p)     0.00001
    91   Cl    3  dxy    Ryd( 3d)     0.01843
    92   Cl    3  dxy    Ryd( 4d)     0.00071
    93   Cl    3  dxy    Ryd( 5d)     0.00011
    94   Cl    3  dxz    Ryd( 3d)     0.01825
    95   Cl    3  dxz    Ryd( 4d)     0.00098
    96   Cl    3  dxz    Ryd( 5d)     0.00011
    97   Cl    3  dyz    Ryd( 3d)     0.01844
    98   Cl    3  dyz    Ryd( 4d)     0.00073
    99   Cl    3  dyz    Ryd( 5d)     0.00011
   100   Cl    3  dx2y2  Ryd( 3d)     0.01806
   101   Cl    3  dx2y2  Ryd( 4d)     0.00086
   102   Cl    3  dx2y2  Ryd( 5d)     0.00012
   103   Cl    3  dz2    Ryd( 3d)     0.01820
   104   Cl    3  dz2    Ryd( 4d)     0.00094
   105   Cl    3  dz2    Ryd( 5d)     0.00011
   106   Cl    3  f(0)   Ryd( 4f)     0.00128
   107   Cl    3  f(0)   Ryd( 5f)     0.00015
   108   Cl    3  f(C1)  Ryd( 4f)     0.00129
   109   Cl    3  f(C1)  Ryd( 5f)     0.00014
   110   Cl    3  f(S1)  Ryd( 4f)     0.00128
   111   Cl    3  f(S1)  Ryd( 5f)     0.00016
   112   Cl    3  f(C2)  Ryd( 4f)     0.00127
   113   Cl    3  f(C2)  Ryd( 5f)     0.00015
   114   Cl    3  f(S2)  Ryd( 4f)     0.00130
   115   Cl    3  f(S2)  Ryd( 5f)     0.00015
   116   Cl    3  f(C3)  Ryd( 4f)     0.00126
   117   Cl    3  f(C3)  Ryd( 5f)     0.00015
   118   Cl    3  f(S3)  Ryd( 4f)     0.00127
   119   Cl    3  f(S3)  Ryd( 5f)     0.00016

   120    H    4  S      Val( 1S)     0.48675
   121    H    4  S      Ryd( 2S)     0.00696
   122    H    4  S      Ryd( 3S)     0.00029
   123    H    4  S      Ryd( 4S)     0.00009
   124    H    4  px     Ryd( 2p)     0.00339
   125    H    4  px     Ryd( 3p)     0.00040
   126    H    4  px     Ryd( 4p)     0.00008
   127    H    4  py     Ryd( 2p)     0.00418
   128    H    4  py     Ryd( 3p)     0.00057
   129    H    4  py     Ryd( 4p)     0.00020
   130    H    4  pz     Ryd( 2p)     0.00361
   131    H    4  pz     Ryd( 3p)     0.00044
   132    H    4  pz     Ryd( 4p)     0.00008
   133    H    4  dxy    Ryd( 3d)     0.00016
   134    H    4  dxy    Ryd( 4d)     0.00008
   135    H    4  dxz    Ryd( 3d)     0.00015
   136    H    4  dxz    Ryd( 4d)     0.00005
   137    H    4  dyz    Ryd( 3d)     0.00018
   138    H    4  dyz    Ryd( 4d)     0.00009
   139    H    4  dx2y2  Ryd( 3d)     0.00018
   140    H    4  dx2y2  Ryd( 4d)     0.00010
   141    H    4  dz2    Ryd( 3d)     0.00017
   142    H    4  dz2    Ryd( 4d)     0.00007


 Summary of Natural Population Analysis:                  
                                                          
                                       Natural Population 
                Natural  -----------------------------------------------
    Atom  No    Charge         Core      Valence    Rydberg      Total
 -----------------------------------------------------------------------
      O    1   -0.99517      1.99967     6.89273    0.10276     8.99517
      H    2    0.43622      0.00000     0.55140    0.01238     0.56378
     Cl    3   -0.93278     10.00008     7.78469    0.14801    17.93278
      H    4    0.49173      0.00000     0.48675    0.02152     0.50827
 =======================================================================
   * Total *   -1.00000     11.99976    15.71557    0.28467    28.00000

                                 Natural Population      
 --------------------------------------------------------
   Core                      11.99976 ( 99.9980% of  12)
   Valence                   15.71557 ( 98.2223% of  16)
   Natural Minimal Basis     27.71533 ( 98.9833% of  28)
   Natural Rydberg Basis      0.28467 (  1.0167% of  28)
 --------------------------------------------------------

    Atom  No          Natural Electron Configuration
 ----------------------------------------------------------------------------
      O    1      [core]2S( 1.74)2p( 5.15)3S( 0.01)3p( 0.04)3d( 0.05)
      H    2            1S( 0.55)2p( 0.01)
     Cl    3      [core]3S( 1.98)3p( 5.81)3d( 0.09)4p( 0.04)4f( 0.01)
      H    4            1S( 0.49)2S( 0.01)2p( 0.01)


 NATURAL BOND ORBITAL ANALYSIS:
 Warning:  a bond orbital has occupanc of -0.00005

                       Occupancies       Lewis Structure    Low   High
           Occ.    -------------------  -----------------   occ   occ
  Cycle   Thresh.   Lewis   Non-Lewis     CR  BD  3C  LP    (L)   (NL)   Dev
 =============================================================================
   1(1)    1.90    27.64822   0.35178      6   2   0   6     0      0    0.08
 -----------------------------------------------------------------------------

 Structure accepted: No low occupancy Lewis orbitals

 --------------------------------------------------------
   Core                     11.99976 ( 99.998% of  12)
   Valence Lewis            15.64846 ( 97.803% of  16)
  ==================       ============================
   Total Lewis              27.64822 ( 98.744% of  28)
  -----------------------------------------------------
   Valence non-Lewis         0.09281 (  0.331% of  28)
   Rydberg non-Lewis         0.25898 (  0.925% of  28)
  ==================       ============================
   Total non-Lewis           0.35178 (  1.256% of  28)
 --------------------------------------------------------


       (Occupancy)   Bond orbital/ Coefficients/ Hybrids
 ---------------------------------------------------------------------------------
     1. (1.96563) BD ( 1) O   1 - H   2  
                ( 72.71%)   0.8527* O   1 s( 20.95%)p 3.75( 78.58%)d 0.02(  0.46%)
                                                  f 0.00(  0.01%)
                                           -0.0002 -0.4577  0.0057  0.0021  0.0023
                                            0.8545 -0.0290  0.0090 -0.0026 -0.2329
                                            0.0204 -0.0027  0.0039  0.0000  0.0000
                                            0.0000  0.0000  0.0043  0.0014 -0.0009
                                            0.0000  0.0000  0.0000  0.0000  0.0000
                                            0.0000 -0.0575  0.0050  0.0042  0.0349
                                           -0.0018  0.0005  0.0000  0.0000 -0.0097
                                            0.0003  0.0021 -0.0001  0.0000  0.0000
                                            0.0000  0.0000  0.0017  0.0037 -0.0039
                                           -0.0016
                ( 27.29%)   0.5224* H   2 s( 99.87%)p 0.00(  0.12%)d 0.00(  0.00%)
                                           -0.9994 -0.0035  0.0001 -0.0002  0.0205
                                            0.0276 -0.0044  0.0054 -0.0018  0.0032
                                            0.0000  0.0000  0.0000 -0.0008  0.0028
                                            0.0000  0.0000  0.0000  0.0000  0.0011
                                           -0.0002  0.0010  0.0009
     2. (1.96809) BD ( 1) O   1 - H   4  
                ( 78.10%)   0.8837* O   1 s( 26.97%)p 2.69( 72.61%)d 0.02(  0.41%)
                                                  f 0.00(  0.01%)
                                           -0.0003 -0.5193  0.0013  0.0019  0.0008
                                           -0.0435  0.0148 -0.0006  0.0011  0.8507
                                           -0.0164  0.0068 -0.0025  0.0000  0.0000
                                            0.0000  0.0000 -0.0239  0.0039  0.0015
                                            0.0000  0.0000  0.0000  0.0000  0.0000
                                            0.0000  0.0470 -0.0026 -0.0002  0.0352
                                           -0.0024  0.0014  0.0000  0.0000  0.0000
                                            0.0002 -0.0089  0.0003  0.0000  0.0000
                                            0.0000  0.0000  0.0013  0.0002 -0.0031
                                           -0.0024
                ( 21.90%)   0.4680* H   4 s( 99.90%)p 0.00(  0.09%)d 0.00(  0.00%)
                                           -0.9991 -0.0278 -0.0010  0.0005  0.0159
                                           -0.0023 -0.0007 -0.0048 -0.0238 -0.0091
                                            0.0000  0.0000  0.0000 -0.0007 -0.0021
                                            0.0000  0.0000  0.0000  0.0000 -0.0035
                                            0.0003  0.0001  0.0013
     3. (1.99967) CR ( 1) O   1           s(100.00%)
                                            1.0000 -0.0004  0.0000  0.0000  0.0000
                                            0.0001 -0.0000  0.0000 -0.0000  0.0001
                                           -0.0000  0.0000  0.0000  0.0000  0.0000
                                            0.0000  0.0000  0.0000  0.0000  0.0000
                                            0.0000  0.0000  0.0000  0.0000  0.0000
                                            0.0000  0.0000  0.0000  0.0000  0.0000
                                           -0.0000  0.0000  0.0000  0.0000 -0.0000
                                           -0.0000 -0.0000 -0.0000  0.0000  0.0000
                                            0.0000  0.0000  0.0000  0.0000 -0.0000
                                           -0.0000
     4. (2.00001) CR ( 1)Cl   3           s(100.00%)
                                            1.0000 -0.0000  0.0000  0.0000 -0.0000
                                            0.0000 -0.0000  0.0000 -0.0000  0.0000
                                           -0.0000  0.0000  0.0001 -0.0000 -0.0000
                                            0.0000  0.0000  0.0000  0.0000  0.0000
                                            0.0000 -0.0000 -0.0000 -0.0000  0.0000
                                            0.0000  0.0000  0.0000  0.0000  0.0000
                                           -0.0000 -0.0000  0.0000 -0.0000 -0.0000
                                           -0.0000  0.0000  0.0000  0.0000  0.0000
                                           -0.0000 -0.0000  0.0000  0.0000  0.0000
                                            0.0000  0.0000 -0.0000 -0.0000 -0.0000
     5. (2.00000) CR ( 2)Cl   3           s(100.00%)
                                           -0.0000  1.0000  0.0000  0.0000 -0.0000
                                            0.0000 -0.0000 -0.0000 -0.0000  0.0000
                                           -0.0000  0.0000  0.0000 -0.0000 -0.0000
                                            0.0000  0.0000  0.0000  0.0000  0.0000
                                            0.0000 -0.0000 -0.0000 -0.0000  0.0000
                                            0.0000  0.0000  0.0000  0.0000  0.0000
                                           -0.0000 -0.0000  0.0000 -0.0000 -0.0000
                                           -0.0000  0.0000  0.0000  0.0000  0.0000
                                           -0.0000 -0.0000  0.0000  0.0000  0.0000
                                            0.0000  0.0000 -0.0000 -0.0000 -0.0000
     6. (2.00003) CR ( 3)Cl   3           s(  0.00%)p 1.00(100.00%)
                                           -0.0000 -0.0000  0.0000 -0.0000 -0.0000
                                            0.0000  1.0000  0.0000  0.0000  0.0000
                                           -0.0000  0.0000  0.0000 -0.0000 -0.0000
                                            0.0000  0.0000  0.0000  0.0000  0.0000
                                            0.0000  0.0000  0.0000 -0.0000  0.0000
                                            0.0000  0.0000  0.0000  0.0000  0.0000
                                           -0.0000 -0.0000 -0.0000 -0.0000  0.0000
                                            0.0000  0.0000  0.0000 -0.0000 -0.0000
                                           -0.0000  0.0000  0.0000  0.0000  0.0000
                                            0.0000 -0.0000 -0.0000 -0.0000 -0.0000
     7. (2.00002) CR ( 4)Cl   3           s(  0.00%)p 1.00(100.00%)
                                            0.0000  0.0000 -0.0000 -0.0000  0.0000
                                           -0.0000  0.0000  0.0000  0.0000 -0.0000
                                            0.0000  1.0000 -0.0001  0.0000  0.0000
                                           -0.0000  0.0000  0.0000  0.0000  0.0000
                                            0.0000  0.0000  0.0000  0.0000  0.0000
                                            0.0000  0.0000  0.0000  0.0000  0.0000
                                            0.0000  0.0000 -0.0000  0.0000  0.0000
                                            0.0000  0.0000  0.0000 -0.0000 -0.0000
                                            0.0000  0.0000  0.0000  0.0000  0.0000
                                            0.0000 -0.0000 -0.0000  0.0000  0.0000
     8. (2.00003) CR ( 5)Cl   3           s(  0.00%)p 1.00(100.00%)
                                            0.0000  0.0000  0.0000  0.0000  0.0000
                                            0.0000  0.0000  0.0000  0.0000  0.0000
                                            0.0000  0.0000  0.0000  0.0000  0.0000
                                            0.0000  1.0000  0.0000  0.0000  0.0000
                                           -0.0000  0.0000  0.0000  0.0000 -0.0000
                                           -0.0000 -0.0000  0.0000  0.0000 -0.0000
                                            0.0000  0.0000  0.0000  0.0000  0.0000
                                            0.0000 -0.0000 -0.0000  0.0000  0.0000
                                            0.0000  0.0000 -0.0000 -0.0000 -0.0000
                                           -0.0000  0.0000  0.0000  0.0000  0.0000
     9. (1.96959) LP ( 1) O   1           s( 51.99%)p 0.92( 47.90%)d 0.00(  0.11%)
                                                  f 0.00(  0.00%)
                                            0.0002  0.7210  0.0027  0.0020  0.0011
                                            0.5121  0.0060 -0.0031  0.0001  0.4654
                                            0.0077 -0.0042  0.0007  0.0000  0.0000
                                            0.0000  0.0000 -0.0285  0.0037 -0.0019
                                            0.0000  0.0000  0.0000  0.0000  0.0000
                                            0.0000 -0.0064  0.0014  0.0006  0.0142
                                           -0.0020 -0.0012  0.0000  0.0000 -0.0034
                                            0.0009 -0.0023  0.0008  0.0000  0.0000
                                            0.0000  0.0000 -0.0003  0.0011  0.0015
                                           -0.0011
    10. (1.95953) LP ( 2) O   1           s(  0.00%)p 1.00( 99.80%)d 0.00(  0.19%)
                                                  f 0.00(  0.01%)
                                            0.0000  0.0000  0.0000  0.0000  0.0000
                                            0.0000  0.0000  0.0000  0.0000  0.0000
                                            0.0000  0.0000  0.0000  0.9986  0.0287
                                           -0.0070  0.0035  0.0000  0.0000  0.0000
                                           -0.0381  0.0040 -0.0017 -0.0200  0.0018
                                           -0.0039  0.0000  0.0000  0.0000  0.0000
                                            0.0000  0.0000 -0.0095  0.0027  0.0000
                                            0.0000  0.0000  0.0000 -0.0017  0.0016
                                           -0.0017 -0.0002  0.0000  0.0000  0.0000
                                            0.0000
    11. (1.97896) LP ( 1)Cl   3           s( 95.52%)p 0.05(  4.48%)d 0.00(  0.00%)
                                                  f 0.00(  0.00%)
                                            0.0000  0.0000  0.9773 -0.0003  0.0000
                                           -0.0001 -0.0000 -0.0001 -0.0002 -0.0000
                                           -0.0001  0.0000 -0.2117  0.0011 -0.0007
                                            0.0003  0.0000  0.0000  0.0000  0.0000
                                            0.0000 -0.0000 -0.0000  0.0000  0.0000
                                            0.0000  0.0000  0.0000  0.0000  0.0000
                                           -0.0007 -0.0003  0.0004 -0.0005 -0.0002
                                            0.0002  0.0000  0.0000  0.0000  0.0000
                                           -0.0004 -0.0003  0.0000  0.0000  0.0000
                                            0.0000 -0.0000  0.0000 -0.0005 -0.0003
    12. (1.95278) LP ( 2)Cl   3           s(  0.00%)p 1.00( 99.99%)d 0.00(  0.01%)
                                                  f 0.00(  0.00%)
                                            0.0000  0.0000  0.0000  0.0000  0.0000
                                            0.0000  0.0000  0.0000  0.0000  0.0000
                                            0.0000  0.0000  0.0000  0.0000  0.0000
                                            0.0000 -0.0000  1.0000  0.0009  0.0010
                                           -0.0000  0.0000  0.0000  0.0000 -0.0012
                                           -0.0010 -0.0008  0.0069  0.0016 -0.0006
                                            0.0000  0.0000  0.0000  0.0000  0.0000
                                            0.0000 -0.0017 -0.0011  0.0000  0.0000
                                            0.0000  0.0000 -0.0019 -0.0012 -0.0002
                                           -0.0003  0.0000  0.0000  0.0000  0.0000
    13. (1.95254) LP ( 3)Cl   3           s(  0.00%)p 1.00( 99.99%)d 0.00(  0.01%)
                                                  f 0.00(  0.00%)
                                            0.0000  0.0000 -0.0014  0.0002  0.0015
                                           -0.0013  0.0000 -0.9999 -0.0020 -0.0012
                                            0.0006  0.0000 -0.0061  0.0006  0.0003
                                           -0.0007 -0.0000 -0.0000 -0.0000 -0.0000
                                           -0.0000 -0.0078 -0.0018  0.0005 -0.0000
                                           -0.0000 -0.0000 -0.0000 -0.0000 -0.0000
                                            0.0015  0.0009  0.0007 -0.0006 -0.0006
                                           -0.0006 -0.0000 -0.0000  0.0008  0.0005
                                           -0.0001 -0.0001 -0.0000 -0.0000 -0.0000
                                           -0.0000  0.0023  0.0014  0.0003  0.0003
    14. (1.90134) LP ( 4)Cl   3           s(  4.48%)p21.32( 95.49%)d 0.01(  0.03%)
                                                  f 0.00(  0.00%)
                                           -0.0001 -0.0000  0.2116  0.0016 -0.0001
                                            0.0005 -0.0000 -0.0063 -0.0006  0.0000
                                           -0.0001  0.0001  0.9772 -0.0027 -0.0025
                                            0.0007  0.0000  0.0000  0.0000  0.0000
                                            0.0000 -0.0013 -0.0004 -0.0003  0.0000
                                            0.0000  0.0000  0.0000  0.0000  0.0000
                                           -0.0143 -0.0026  0.0006 -0.0088 -0.0020
                                           -0.0001  0.0000  0.0000  0.0000  0.0000
                                           -0.0027 -0.0013  0.0000  0.0000  0.0000
                                            0.0000  0.0001 -0.0000 -0.0031 -0.0011
    15. (0.01954) RY*( 1) O   1           s(  0.00%)p 1.00( 98.58%)d 0.01(  1.40%)
                                                  f 0.00(  0.02%)
                                            0.0000  0.0000  0.0000  0.0000  0.0000
                                            0.0000  0.0000  0.0000  0.0000  0.0000
                                            0.0000  0.0000  0.0000 -0.0334  0.9917
                                            0.0299 -0.0168  0.0000  0.0000  0.0000
                                           -0.1091  0.0168  0.0063 -0.0413  0.0097
                                            0.0025  0.0000  0.0000  0.0000  0.0000
                                            0.0000  0.0000 -0.0083  0.0099  0.0000
                                            0.0000  0.0000  0.0000 -0.0031  0.0032
                                            0.0028 -0.0003  0.0000  0.0000  0.0000
                                            0.0000
    16. (0.01519) RY*( 2) O   1           s( 20.44%)p 3.77( 77.00%)d 0.12(  2.47%)
                                                  f 0.00(  0.08%)
                                            0.0000 -0.0094  0.4520  0.0064 -0.0000
                                           -0.0090  0.6121  0.0151 -0.0083 -0.0069
                                            0.6283  0.0079 -0.0095  0.0000  0.0000
                                            0.0000  0.0000 -0.1402  0.0142  0.0001
                                            0.0000  0.0000  0.0000  0.0000  0.0000
                                            0.0000 -0.0635  0.0091  0.0034  0.0242
                                           -0.0112 -0.0038  0.0000  0.0000 -0.0020
                                            0.0021  0.0047  0.0007  0.0000  0.0000
                                            0.0000  0.0000 -0.0106  0.0083  0.0221
                                           -0.0106
    17. (0.00704) RY*( 3) O   1           s(  2.04%)p35.92( 73.30%)d11.86( 24.21%)
                                                  f 0.22(  0.45%)
                                            0.0000 -0.0005  0.1353 -0.0428  0.0166
                                            0.0514  0.5858  0.0365 -0.0223 -0.0476
                                           -0.6181 -0.0307  0.0071 -0.0000 -0.0000
                                           -0.0000 -0.0000  0.0090 -0.0090 -0.0087
                                           -0.0000 -0.0000 -0.0000 -0.0000 -0.0000
                                           -0.0000  0.4881  0.0447  0.0260  0.0291
                                            0.0084  0.0096 -0.0000 -0.0000  0.0245
                                           -0.0130 -0.0237  0.0103 -0.0000 -0.0000
                                           -0.0000 -0.0000 -0.0433  0.0257 -0.0217
                                            0.0084
    18. (0.00619) RY*( 4) O   1           s( 13.26%)p 0.12(  1.61%)d 6.35( 84.17%)
                                                  f 0.07(  0.96%)
                                           -0.0000  0.0144  0.3638  0.0055  0.0057
                                            0.0021 -0.1109 -0.0063  0.0061  0.0260
                                            0.0544 -0.0038 -0.0065  0.0000  0.0000
                                            0.0000  0.0000  0.9013  0.0243 -0.0051
                                            0.0000  0.0000  0.0000  0.0000  0.0000
                                            0.0000  0.0807  0.0037  0.0008  0.1474
                                            0.0193  0.0123  0.0000  0.0000  0.0126
                                           -0.0136  0.0238 -0.0141  0.0000  0.0000
                                            0.0000  0.0000  0.0494 -0.0203 -0.0702
                                            0.0265
    19. (0.00618) RY*( 5) O   1           s(  0.00%)p 0.00(  0.00%)d 1.00( 98.93%)
                                                  f 0.01(  1.06%)
                                            0.0000  0.0000  0.0000  0.0000  0.0000
                                            0.0000  0.0000  0.0000  0.0000  0.0000
                                            0.0000  0.0000  0.0000  0.0046 -0.0020
                                           -0.0043 -0.0002  0.0000  0.0000  0.0000
                                           -0.3752 -0.0218 -0.0077  0.9194  0.0511
                                            0.0039  0.0000  0.0000  0.0000  0.0000
                                            0.0000  0.0000  0.0203 -0.0118  0.0000
                                            0.0000  0.0000  0.0000  0.0831 -0.0436
                                           -0.0323  0.0156  0.0000  0.0000  0.0000
                                            0.0000
    20. (0.00590) RY*( 6) O   1           s(  0.00%)p 1.00(  1.52%)d64.38( 97.64%)
                                                  f 0.56(  0.85%)
                                            0.0000  0.0000  0.0000  0.0000  0.0000
                                            0.0000  0.0000  0.0000  0.0000  0.0000
                                            0.0000  0.0000  0.0000  0.0393  0.1164
                                            0.0080  0.0039  0.0000  0.0000  0.0000
                                            0.9119  0.0660  0.0150  0.3736  0.0254
                                           -0.0024  0.0000  0.0000  0.0000  0.0000
                                            0.0000  0.0000  0.0687 -0.0360  0.0000
                                            0.0000  0.0000  0.0000 -0.0368  0.0181
                                           -0.0254  0.0115  0.0000  0.0000  0.0000
                                            0.0000
    21. (0.00570) RY*( 7) O   1           s(  7.65%)p 0.66(  5.02%)d11.34( 86.74%)
                                                  f 0.08(  0.59%)
                                           -0.0000  0.0213  0.2756 -0.0079  0.0046
                                           -0.0406 -0.1830 -0.0129  0.0029 -0.0299
                                           -0.1171 -0.0133 -0.0111  0.0000  0.0000
                                            0.0000  0.0000 -0.2653 -0.0181 -0.0010
                                            0.0000  0.0000  0.0000  0.0000  0.0000
                                            0.0000 -0.0522 -0.0002 -0.0030  0.8875
                                            0.0781  0.0089  0.0000  0.0000 -0.0584
                                            0.0280 -0.0365  0.0193  0.0000  0.0000
                                            0.0000  0.0000 -0.0003  0.0016  0.0033
                                           -0.0001
    22. (0.00333) RY*( 8) O   1           s( 15.70%)p 1.36( 21.41%)d 3.94( 61.85%)
                                                  f 0.07(  1.04%)
                                           -0.0000 -0.0059  0.3961 -0.0042  0.0062
                                           -0.0244  0.0895 -0.0041 -0.0019  0.0346
                                           -0.4463 -0.0410 -0.0584 -0.0000 -0.0000
                                           -0.0000 -0.0000 -0.0190 -0.0114 -0.0137
                                           -0.0000 -0.0000 -0.0000 -0.0000 -0.0000
                                           -0.0000 -0.7522 -0.0576  0.0555 -0.2117
                                           -0.0228  0.0189 -0.0000 -0.0000 -0.0130
                                            0.0061  0.0412 -0.0319 -0.0000 -0.0000
                                           -0.0000 -0.0000  0.0471 -0.0090  0.0618
                                           -0.0367
    23. (0.00228) RY*( 9) O   1           s( 39.76%)p 0.56( 22.26%)d 0.94( 37.41%)
                                                  f 0.01(  0.57%)
                                            0.0000 -0.0052  0.6286 -0.0137 -0.0471
                                            0.0166 -0.4658 -0.0418 -0.0008 -0.0096
                                           -0.0111 -0.0432 -0.0391  0.0000  0.0000
                                            0.0000  0.0000 -0.2812 -0.0672  0.0035
                                            0.0000  0.0000  0.0000  0.0000  0.0000
                                            0.0000  0.3841  0.0937 -0.0557 -0.3451
                                           -0.1061  0.0264  0.0000  0.0000  0.0167
                                           -0.0388  0.0091 -0.0007  0.0000  0.0000
                                            0.0000  0.0000 -0.0388  0.0355  0.0139
                                           -0.0296
    24. (0.00071) RY*(10) O   1           s( 43.38%)p 1.11( 48.24%)d 0.17(  7.57%)
                                                  f 0.02(  0.81%)
                                            0.0000 -0.0052 -0.0340  0.6523 -0.0840
                                           -0.0008  0.0397 -0.2313  0.1005 -0.0010
                                           -0.0024 -0.6438 -0.0522 -0.0000 -0.0000
                                           -0.0000 -0.0000  0.0095 -0.0976 -0.0974
                                           -0.0000 -0.0000 -0.0000 -0.0000 -0.0000
                                           -0.0000  0.0170 -0.0627 -0.1166  0.0224
                                           -0.0917 -0.1728 -0.0000 -0.0000 -0.0078
                                            0.0091  0.0460  0.0191 -0.0000 -0.0000
                                           -0.0000 -0.0000  0.0176 -0.0068  0.0226
                                            0.0682
    25. (0.00056) RY*(11) O   1           s(  0.00%)p 1.00( 61.15%)d 0.59( 36.16%)
                                                  f 0.04(  2.69%)
                                            0.0000  0.0000  0.0000  0.0000  0.0000
                                            0.0000  0.0000  0.0000  0.0000  0.0000
                                            0.0000  0.0000  0.0000  0.0022 -0.0395
                                            0.7808  0.0180  0.0000  0.0000  0.0000
                                           -0.0242  0.3473  0.0830 -0.0138  0.4750
                                            0.0874  0.0000  0.0000  0.0000  0.0000
                                            0.0000  0.0000 -0.1364  0.0343  0.0000
                                            0.0000  0.0000  0.0000 -0.0453  0.0089
                                            0.0706  0.0028  0.0000  0.0000  0.0000
                                            0.0000
    26. (0.00048) RY*(12) O   1           s(  5.01%)p 3.39( 16.96%)d11.99( 60.03%)
                                                  f 3.60( 18.00%)
                                           -0.0000  0.0041  0.0004  0.2079  0.0826
                                           -0.0063 -0.0155  0.3598  0.0310 -0.0038
                                           -0.0282  0.1934 -0.0257 -0.0000 -0.0000
                                           -0.0000 -0.0000  0.0329  0.3557 -0.0285
                                           -0.0000 -0.0000 -0.0000 -0.0000 -0.0000
                                           -0.0000  0.0125 -0.0346 -0.0311  0.0679
                                           -0.6584 -0.1776 -0.0000 -0.0000 -0.1760
                                            0.0130  0.0567  0.0071 -0.0000 -0.0000
                                           -0.0000 -0.0000 -0.2181  0.0046  0.3129
                                            0.0114
    27. (0.00046) RY*(13) O   1           s(  0.00%)p 1.00( 10.78%)d 0.84(  9.10%)
                                                  f 7.43( 80.12%)
                                            0.0000  0.0000  0.0000  0.0000  0.0000
                                            0.0000  0.0000  0.0000  0.0000  0.0000
                                            0.0000  0.0000  0.0000 -0.0024  0.0015
                                           -0.3174 -0.0839  0.0000  0.0000  0.0000
                                            0.0170  0.2332  0.0052  0.0211  0.1886
                                           -0.0152  0.0000  0.0000  0.0000  0.0000
                                            0.0000  0.0000 -0.1985 -0.0085  0.0000
                                            0.0000  0.0000  0.0000  0.1541 -0.0022
                                            0.8591 -0.0033  0.0000  0.0000  0.0000
                                            0.0000
    28. (0.00044) RY*(14) O   1           s(  0.16%)p 8.49(  1.32%)d37.07(  5.76%)
                                                  f99.99( 92.76%)
                                            0.0000  0.0010 -0.0039  0.0389  0.0054
                                            0.0025  0.0017  0.0617  0.0193 -0.0011
                                           -0.0120  0.0942  0.0002  0.0000  0.0000
                                            0.0000  0.0000 -0.0603  0.0350  0.0604
                                            0.0000  0.0000  0.0000  0.0000  0.0000
                                            0.0000  0.0059 -0.0390 -0.0060  0.0726
                                           -0.1947 -0.0659  0.0000  0.0000  0.6729
                                            0.0100  0.6026  0.0182  0.0000  0.0000
                                            0.0000  0.0000  0.2651 -0.0012 -0.2023
                                            0.0088
    29. (0.00044) RY*(15) O   1           s(  0.00%)p 1.00(  0.97%)d13.74( 13.39%)
                                                  f87.85( 85.63%)
                                            0.0000  0.0000  0.0000  0.0000  0.0000
                                            0.0000  0.0000  0.0000  0.0000  0.0000
                                            0.0000  0.0000  0.0000  0.0039 -0.0032
                                           -0.0971 -0.0172  0.0000  0.0000  0.0000
                                           -0.0355  0.2528  0.0390 -0.0803  0.2279
                                            0.0943  0.0000  0.0000  0.0000  0.0000
                                            0.0000  0.0000  0.8135  0.0082  0.0000
                                            0.0000  0.0000  0.0000  0.4389  0.0069
                                           -0.0428 -0.0046  0.0000  0.0000  0.0000
                                            0.0000
    30. (0.00042) RY*(16) O   1           s(  0.00%)p 1.00( 11.29%)d 2.53( 28.59%)
                                                  f 5.33( 60.12%)
                                            0.0000  0.0000  0.0000  0.0000  0.0000
                                            0.0000  0.0000  0.0000  0.0000  0.0000
                                            0.0000  0.0000  0.0000  0.0067  0.0124
                                            0.3177  0.1083  0.0000  0.0000  0.0000
                                            0.0911 -0.4883 -0.1076 -0.0237 -0.1514
                                            0.0636  0.0000  0.0000  0.0000  0.0000
                                            0.0000  0.0000 -0.1631 -0.0049  0.0000
                                            0.0000  0.0000  0.0000  0.7472  0.0350
                                            0.1227  0.0018  0.0000  0.0000  0.0000
                                            0.0000
    31. (0.00041) RY*(17) O   1           s(  1.23%)p36.27( 44.60%)d 7.60(  9.35%)
                                                  f36.44( 44.82%)
                                            0.0000 -0.0015 -0.0000  0.0851  0.0711
                                            0.0098  0.0409 -0.5401 -0.0189 -0.0088
                                           -0.0252  0.3889 -0.0150 -0.0000 -0.0000
                                           -0.0000 -0.0000  0.0015 -0.1102 -0.0235
                                           -0.0000 -0.0000 -0.0000 -0.0000 -0.0000
                                           -0.0000  0.0861 -0.2365 -0.0798  0.0036
                                           -0.1047 -0.0096 -0.0000 -0.0000 -0.2597
                                           -0.0413  0.1312  0.0297 -0.0000 -0.0000
                                           -0.0000 -0.0000  0.4941  0.0346  0.3396
                                            0.0147
    32. (0.00040) RY*(18) O   1           s(  0.00%)p 1.00( 16.77%)d 1.73( 29.04%)
                                                  f 3.23( 54.19%)
                                            0.0000  0.0000  0.0000  0.0000  0.0000
                                            0.0000  0.0000  0.0000  0.0000  0.0000
                                            0.0000  0.0000  0.0000 -0.0079  0.0021
                                           -0.3795 -0.1537  0.0000  0.0000  0.0000
                                            0.0339  0.1455 -0.0735 -0.0496  0.5099
                                            0.0130  0.0000  0.0000  0.0000  0.0000
                                            0.0000  0.0000 -0.4477 -0.0294  0.0000
                                            0.0000  0.0000  0.0000  0.3426  0.0314
                                           -0.4707 -0.0274  0.0000  0.0000  0.0000
                                            0.0000
    33. (0.00040) RY*(19) O   1           s(  0.69%)p 2.35(  1.62%)d13.20(  9.10%)
                                                  f99.99( 88.59%)
                                            0.0000  0.0009 -0.0069  0.0694  0.0450
                                            0.0021  0.0006  0.0568  0.0543 -0.0053
                                           -0.0015  0.0359 -0.0934 -0.0000 -0.0000
                                           -0.0000 -0.0000  0.0107  0.0210 -0.0046
                                           -0.0000 -0.0000 -0.0000 -0.0000 -0.0000
                                           -0.0000 -0.0267  0.2678 -0.0602  0.0177
                                           -0.1124 -0.0379 -0.0000 -0.0000  0.4792
                                            0.0327 -0.6682 -0.0446 -0.0000 -0.0000
                                           -0.0000 -0.0000  0.3861  0.0305  0.2371
                                            0.0239
    34. (0.00037) RY*(20) O   1           s(  0.00%)p 1.00(  0.43%)d99.99( 87.49%)
                                                  f28.04( 12.08%)
                                            0.0000  0.0000  0.0000  0.0000  0.0000
                                            0.0000  0.0000  0.0000  0.0000  0.0000
                                            0.0000  0.0000  0.0000  0.0026  0.0092
                                           -0.0627  0.0168  0.0000  0.0000  0.0000
                                            0.0186 -0.6910  0.0728 -0.0201  0.6206
                                           -0.0792  0.0000  0.0000  0.0000  0.0000
                                            0.0000  0.0000  0.1874  0.0206  0.0000
                                            0.0000  0.0000  0.0000 -0.2646 -0.0313
                                            0.1190  0.0082  0.0000  0.0000  0.0000
                                            0.0000
    35. (0.00034) RY*(21) O   1           s(  0.65%)p34.00( 22.02%)d99.99( 74.47%)
                                                  f 4.41(  2.86%)
                                           -0.0000  0.0030 -0.0060  0.0608 -0.0523
                                            0.0019  0.0069  0.4238  0.1523  0.0051
                                            0.0136  0.0922  0.0930 -0.0000 -0.0000
                                           -0.0000 -0.0000  0.0388 -0.8290  0.0814
                                           -0.0000 -0.0000 -0.0000 -0.0000 -0.0000
                                           -0.0000  0.0089 -0.2064  0.0128  0.0155
                                           -0.0769 -0.0197 -0.0000 -0.0000 -0.0034
                                            0.0059 -0.0027 -0.0050 -0.0000 -0.0000
                                           -0.0000 -0.0000 -0.0104 -0.0181  0.1603
                                            0.0485
    36. (0.00034) RY*(22) O   1           s(  0.58%)p54.33( 31.38%)d39.94( 23.07%)
                                                  f77.87( 44.98%)
                                            0.0000  0.0002 -0.0038  0.0282  0.0705
                                            0.0017  0.0235 -0.4840 -0.1097 -0.0036
                                           -0.0083  0.1877  0.1777 -0.0000 -0.0000
                                           -0.0000 -0.0000  0.0228 -0.2097  0.0038
                                           -0.0000 -0.0000 -0.0000 -0.0000 -0.0000
                                           -0.0000 -0.0591 -0.1466  0.0541  0.0440
                                           -0.3935  0.0386 -0.0000 -0.0000  0.2406
                                            0.0077 -0.2612 -0.0671 -0.0000 -0.0000
                                           -0.0000 -0.0000 -0.4635 -0.0793 -0.2924
                                           -0.1117
    37. (0.00030) RY*(23) O   1           s(  3.67%)p 2.05(  7.55%)d 1.85(  6.80%)
                                                  f22.32( 81.98%)
                                           -0.0000  0.0057  0.0291  0.1678  0.0876
                                           -0.0059 -0.0007  0.2188  0.1107 -0.0060
                                           -0.0122  0.0739  0.0982 -0.0000 -0.0000
                                           -0.0000 -0.0000 -0.0649  0.0667  0.0060
                                           -0.0000 -0.0000 -0.0000 -0.0000 -0.0000
                                           -0.0000  0.0119 -0.1781  0.0368 -0.0295
                                           -0.1469 -0.0605 -0.0000 -0.0000 -0.2839
                                           -0.0813 -0.2096 -0.0822 -0.0000 -0.0000
                                           -0.0000 -0.0000  0.4176  0.1002 -0.6783
                                           -0.1932
    38. (0.00025) RY*(24) O   1           s( 27.99%)p 0.97( 27.27%)d 1.29( 36.20%)
                                                  f 0.31(  8.55%)
                                           -0.0000  0.0009  0.0460  0.4923  0.1881
                                            0.0016  0.0005  0.0229  0.0551  0.0009
                                           -0.0458  0.5062 -0.1039  0.0000  0.0000
                                            0.0000  0.0000 -0.0142 -0.0478 -0.0155
                                            0.0000  0.0000  0.0000  0.0000  0.0000
                                            0.0000 -0.0400  0.3269 -0.2040 -0.0496
[...]
                                           -0.0048 -0.0087  0.1050 -0.0225  0.0141
                                           -0.0000  0.0000  0.0000  0.0028  0.0045
                                           -0.0000  0.0000 -0.0000  0.0000 -0.0606
                                           -0.0076  0.0278 -0.0013
   120. (0.00374) RY*( 2) H   4           s(  9.14%)p 9.89( 90.36%)d 0.05(  0.50%)
                                           -0.0180  0.2483  0.1669  0.0395  0.6151
                                           -0.1317  0.0260  0.7122 -0.0012 -0.0094
                                           -0.0000  0.0000  0.0000  0.0376 -0.0215
                                            0.0000 -0.0000  0.0000 -0.0000 -0.0388
                                           -0.0207 -0.0303  0.0168
   121. (0.00373) RY*( 3) H   4           s(  0.00%)p 1.00( 99.63%)d 0.00(  0.37%)
                                            0.0000  0.0000 -0.0000 -0.0000  0.0001
                                           -0.0000 -0.0000 -0.0001 -0.0000 -0.0000
                                            0.9820  0.1780 -0.0181 -0.0000  0.0000
                                            0.0346 -0.0471  0.0163 -0.0077  0.0000
                                           -0.0000  0.0000  0.0000
   122. (0.00275) RY*( 4) H   4           s( 17.15%)p 4.77( 81.76%)d 0.06(  1.09%)
                                           -0.0019  0.3831  0.1554  0.0251  0.5554
                                           -0.2021 -0.0018 -0.6841 -0.0166 -0.0067
                                           -0.0001 -0.0000  0.0000 -0.0660  0.0248
                                            0.0000  0.0000 -0.0000  0.0000  0.0028
                                           -0.0589  0.0478  0.0141
   123. (0.00046) RY*( 5) H   4           s( 13.08%)p 6.08( 79.56%)d 0.56(  7.36%)
                                           -0.0025 -0.0407  0.2758 -0.2303 -0.1032
                                           -0.2153  0.0421 -0.0016  0.8517 -0.1066
                                            0.0000 -0.0001  0.0000 -0.0511 -0.0801
                                            0.0000  0.0000 -0.0000  0.0000 -0.2378
                                           -0.0014  0.0613  0.0659
   124. (0.00035) RY*( 6) H   4           s(  0.00%)p 1.00( 94.53%)d 0.06(  5.47%)
                                           -0.0000 -0.0002  0.0002  0.0001 -0.0003
                                           -0.0008  0.0006  0.0000 -0.0006  0.0000
                                            0.1715 -0.9566 -0.0272  0.0001  0.0001
                                            0.1902  0.1278  0.0465 -0.0077 -0.0004
                                           -0.0005  0.0004  0.0003
   125. (0.00034) RY*( 7) H   4           s(  3.33%)p18.19( 60.66%)d10.80( 36.01%)
                                           -0.0070 -0.1265  0.1308  0.0141 -0.1670
                                           -0.4871  0.4842  0.0261 -0.3259  0.0088
                                           -0.0002  0.0014  0.0001  0.0451  0.0536
                                           -0.0003 -0.0002 -0.0001  0.0000 -0.3089
                                           -0.3754  0.2653  0.2201
   126. (0.00020) RY*( 8) H   4           s( 12.51%)p 5.76( 72.02%)d 1.24( 15.46%)
                                           -0.0185 -0.0770  0.3266 -0.1105 -0.1758
                                           -0.5833 -0.5486  0.0313 -0.1921 -0.1016
                                           -0.0000  0.0001  0.0000  0.1906  0.0114
                                           -0.0000 -0.0000  0.0001 -0.0000  0.2890
                                            0.1548 -0.0018 -0.1034
   127. (0.00019) RY*( 9) H   4           s(  0.00%)p 1.00( 14.34%)d 5.97( 85.66%)
                                            0.0000  0.0000  0.0001 -0.0000 -0.0000
                                            0.0001 -0.0000 -0.0000 -0.0000 -0.0000
                                           -0.0784  0.1584 -0.3349  0.0001 -0.0000
                                            0.8508 -0.1656  0.3217 -0.0421 -0.0000
                                            0.0001  0.0002 -0.0000
   128. (0.00017) RY*(10) H   4           s(  2.55%)p 7.63( 19.47%)d30.58( 77.98%)
                                            0.0028  0.0247 -0.0280  0.1553  0.0309
                                            0.1159  0.0518 -0.0881  0.0299 -0.4110
                                            0.0000 -0.0000  0.0000  0.8369 -0.0462
                                           -0.0002  0.0000  0.0004  0.0000 -0.2128
                                           -0.0047 -0.1785  0.0063
   129. (0.00015) RY*(11) H   4           s(  0.00%)p 1.00(  0.01%)d99.99( 99.99%)
                                            0.0000 -0.0000 -0.0000 -0.0001 -0.0000
                                           -0.0000  0.0000  0.0000  0.0000  0.0002
                                            0.0021 -0.0105  0.0018 -0.0004  0.0000
                                           -0.3352  0.0783  0.9384  0.0299  0.0001
                                           -0.0000  0.0001  0.0000
   130. (0.00016) RY*(12) H   4           s( 11.49%)p 1.26( 14.49%)d 6.44( 74.01%)
                                            0.0072 -0.0023  0.3232 -0.1022  0.0278
                                            0.3637 -0.0484  0.0086 -0.0947 -0.0222
                                            0.0000 -0.0000  0.0001  0.1354  0.0011
                                           -0.0003  0.0000 -0.0001  0.0000 -0.0578
                                            0.2165  0.8117 -0.1129
   131. (0.00012) RY*(13) H   4           s( 15.14%)p 0.83( 12.62%)d 4.77( 72.23%)
                                           -0.0005 -0.0373  0.3163 -0.2236 -0.0174
                                            0.1203 -0.1237 -0.0413 -0.2805  0.1256
                                            0.0000  0.0000  0.0001 -0.1402 -0.0298
                                            0.0000 -0.0001  0.0000  0.0000 -0.6948
                                            0.2481 -0.3594 -0.1683
   132. (0.00010) RY*(14) H   4           s(  0.00%)p 1.00( 42.23%)d 1.37( 57.77%)
   133. (0.00009) RY*(15) H   4           s(  0.16%)p99.99( 30.06%)d99.99( 69.78%)
   134. (0.00006) RY*(16) H   4           s( 66.99%)p 0.19( 12.83%)d 0.30( 20.18%)
   135. (0.00005) RY*(17) H   4           s(  0.00%)p 1.00(  1.84%)d53.46( 98.16%)
   136. (0.00005) RY*(18) H   4           s(  0.92%)p 1.77(  1.62%)d99.99( 97.46%)
   137. (0.00004) RY*(19) H   4           s( 38.25%)p 0.71( 27.10%)d 0.91( 34.65%)
   138. (0.00003) RY*(20) H   4           s(  8.48%)p 3.71( 31.41%)d 7.09( 60.11%)
   139. (0.00003) RY*(21) H   4           s( 24.38%)p 1.76( 42.92%)d 1.34( 32.70%)
   140. (0.00003) RY*(22) H   4           s(  0.00%)p 1.00( 47.42%)d 1.11( 52.58%)
   141. (0.02156) BD*( 1) O   1 - H   2  
                ( 27.29%)   0.5224* O   1 s( 20.95%)p 3.75( 78.58%)d 0.02(  0.46%)
                                                  f 0.00(  0.01%)
                                           -0.0002 -0.4577  0.0057  0.0021  0.0023
                                            0.2632 -0.0214  0.0030 -0.0040 -0.8457
                                            0.0282 -0.0089  0.0025 -0.0000  0.0000
                                           -0.0000  0.0000  0.0084  0.0010 -0.0012
                                            0.0000  0.0000  0.0000  0.0000 -0.0000
                                           -0.0000  0.0570 -0.0051 -0.0041  0.0349
                                           -0.0018  0.0005  0.0000 -0.0000 -0.0025
                                            0.0001  0.0096 -0.0003 -0.0000  0.0000
                                            0.0000 -0.0000 -0.0040 -0.0019  0.0013
                                            0.0035
                ( 72.71%)  -0.8527* H   2 s( 99.87%)p 0.00(  0.12%)d 0.00(  0.00%)
                                           -0.9994 -0.0035  0.0001 -0.0002 -0.0046
                                            0.0028 -0.0033 -0.0207 -0.0275  0.0042
                                            0.0000  0.0000  0.0000 -0.0009  0.0028
                                            0.0000  0.0000  0.0000 -0.0000 -0.0010
                                           -0.0000  0.0010  0.0009
   142. (0.07127) BD*( 1) O   1 - H   4  
                ( 21.90%)   0.4680* O   1 s( 26.97%)p 2.69( 72.62%)d 0.02(  0.41%)
                                                  f 0.00(  0.01%)
                                           -0.0003 -0.5193  0.0013  0.0019  0.0008
                                           -0.8517  0.0169 -0.0068  0.0026  0.0132
                                           -0.0142  0.0003 -0.0010  0.0001 -0.0000
                                            0.0000 -0.0000 -0.0272  0.0041  0.0015
                                            0.0000 -0.0000  0.0000  0.0000 -0.0000
                                           -0.0000 -0.0452  0.0023  0.0001  0.0352
                                           -0.0024  0.0014 -0.0000  0.0000  0.0089
                                           -0.0003  0.0003 -0.0002  0.0000  0.0000
                                            0.0000 -0.0000 -0.0032 -0.0024  0.0009
                                           -0.0001
                ( 78.10%)  -0.8837* H   4 s( 99.90%)p 0.00(  0.09%)d 0.00(  0.00%)
                                           -0.9991 -0.0278 -0.0010  0.0005  0.0054
                                            0.0237  0.0090 -0.0158  0.0032  0.0010
                                            0.0000 -0.0000 -0.0000 -0.0005 -0.0021
                                            0.0000 -0.0000  0.0000  0.0000  0.0036
                                           -0.0001  0.0001  0.0013


 NHO Directionality and "Bond Bending" (deviations from line of nuclear centers)

         [Thresholds for printing:  angular deviation  >  1.0 degree]
                                    hybrid p-character > 25.0%
                                    orbital occupancy  >  0.10e

                                Line of Centers        Hybrid 1              Hybrid 2
                                ---------------  -------------------   ------------------
                NBO               Theta   Phi    Theta   Phi    Dev    Theta   Phi    Dev
 ========================================================================================
     1. BD (   1) O   1 - H   2    90.0  103.8    90.0  106.3   2.5      --     --    --
     2. BD (   1) O   1 - H   4    90.0    2.0    90.0    0.1   1.9      --     --    --
     9. LP (   1) O   1             --     --     90.0  229.7   --       --     --    --
    10. LP (   2) O   1             --     --      0.0    0.0   --       --     --    --
    12. LP (   2)Cl   3             --     --      0.0    0.0   --       --     --    --
    13. LP (   3)Cl   3             --     --     90.0   91.7   --       --     --    --
    14. LP (   4)Cl   3             --     --     90.0  181.6   --       --     --    --


 Natural Bond Orbitals (Summary):

           NBO                  Occupancy  
 -----------------------------------------------
 Molecular unit  1  (H2O)
     1. BD (   1) O   1 - H   2          1.96563
     2. BD (   1) O   1 - H   4          1.96809
     3. CR (   1) O   1                  1.99967
     9. LP (   1) O   1                  1.96959
    10. LP (   2) O   1                  1.95953
    15. RY*(   1) O   1                  0.01954
    16. RY*(   2) O   1                  0.01519
    17. RY*(   3) O   1                  0.00704
    18. RY*(   4) O   1                  0.00619
    19. RY*(   5) O   1                  0.00618
    20. RY*(   6) O   1                  0.00590
    21. RY*(   7) O   1                  0.00570
    22. RY*(   8) O   1                  0.00333
    23. RY*(   9) O   1                  0.00228
    24. RY*(  10) O   1                  0.00071
    25. RY*(  11) O   1                  0.00056
    26. RY*(  12) O   1                  0.00048
    27. RY*(  13) O   1                  0.00046
    28. RY*(  14) O   1                  0.00044
    29. RY*(  15) O   1                  0.00044
    30. RY*(  16) O   1                  0.00041
    31. RY*(  17) O   1                  0.00041
    32. RY*(  18) O   1                  0.00041
    33. RY*(  19) O   1                  0.00040
    34. RY*(  20) O   1                  0.00037
    35. RY*(  21) O   1                  0.00034
    36. RY*(  22) O   1                  0.00034
    37. RY*(  23) O   1                  0.00030
    38. RY*(  24) O   1                  0.00025
    39. RY*(  25) O   1                  0.00022
    40. RY*(  26) O   1                  0.00014
    41. RY*(  27) O   1                  0.00007
    42. RY*(  28) O   1                  0.00008
    43. RY*(  29) O   1                  0.00007
    44. RY*(  30) O   1                  0.00007
    45. RY*(  31) O   1                  0.00006
    46. RY*(  32) O   1                  0.00007
    47. RY*(  33) O   1                  0.00007
    48. RY*(  34) O   1                  0.00004
    49. RY*(  35) O   1                  0.00004
    50. RY*(  36) O   1                  0.00003
    51. RY*(  37) O   1                  0.00004
    52. RY*(  38) O   1                  0.00001
    53. RY*(  39) O   1                  0.00001
    54. RY*(  40) O   1                  0.00001
    55. RY*(  41) O   1                 -0.00005
    56. RY*(   1) H   2                  0.00518
    57. RY*(   2) H   2                  0.00228
    58. RY*(   3) H   2                  0.00189
    59. RY*(   4) H   2                  0.00086
    60. RY*(   5) H   2                  0.00029
    61. RY*(   6) H   2                  0.00021
    62. RY*(   7) H   2                  0.00018
    63. RY*(   8) H   2                  0.00010
    64. RY*(   9) H   2                  0.00011
    65. RY*(  10) H   2                  0.00010
    66. RY*(  11) H   2                  0.00010
    67. RY*(  12) H   2                  0.00007
    68. RY*(  13) H   2                  0.00007
    69. RY*(  14) H   2                  0.00004
    70. RY*(  15) H   2                  0.00003
    71. RY*(  16) H   2                  0.00004
    72. RY*(  17) H   2                  0.00002
    73. RY*(  18) H   2                  0.00003
    74. RY*(  19) H   2                  0.00003
    75. RY*(  20) H   2                  0.00002
    76. RY*(  21) H   2                  0.00002
    77. RY*(  22) H   2                  0.00002
   119. RY*(   1) H   4                  0.00876
   120. RY*(   2) H   4                  0.00374
   121. RY*(   3) H   4                  0.00373
   122. RY*(   4) H   4                  0.00275
   123. RY*(   5) H   4                  0.00046
   124. RY*(   6) H   4                  0.00035
   125. RY*(   7) H   4                  0.00034
   126. RY*(   8) H   4                  0.00020
   127. RY*(   9) H   4                  0.00019
   128. RY*(  10) H   4                  0.00017
   129. RY*(  11) H   4                  0.00015
   130. RY*(  12) H   4                  0.00016
   131. RY*(  13) H   4                  0.00012
   132. RY*(  14) H   4                  0.00010
   133. RY*(  15) H   4                  0.00009
   134. RY*(  16) H   4                  0.00006
   135. RY*(  17) H   4                  0.00005
   136. RY*(  18) H   4                  0.00005
   137. RY*(  19) H   4                  0.00004
   138. RY*(  20) H   4                  0.00003
   139. RY*(  21) H   4                  0.00003
   140. RY*(  22) H   4                  0.00003
   141. BD*(   1) O   1 - H   2          0.02156
   142. BD*(   1) O   1 - H   4          0.07127
       -------------------------------
              Total Lewis    9.86251  ( 97.9663%)
        Valence non-Lewis    0.09283  (  0.9221%)
        Rydberg non-Lewis    0.11190  (  1.1115%)
       -------------------------------
            Total unit  1   10.06724  (100.0000%)
           Charge unit  1   -0.06724

 Molecular unit  2  (Cl)
     4. CR (   1)Cl   3                  2.00001
     5. CR (   2)Cl   3                  2.00000
     6. CR (   3)Cl   3                  2.00002
     7. CR (   4)Cl   3                  2.00003
     8. CR (   5)Cl   3                  2.00003
    11. LP (   1)Cl   3                  1.97896
    12. LP (   2)Cl   3                  1.95278
    13. LP (   3)Cl   3                  1.95254
    14. LP (   4)Cl   3                  1.90131
    78. RY*(   1)Cl   3                  0.01836
    79. RY*(   2)Cl   3                  0.01833
    80. RY*(   3)Cl   3                  0.01825
    81. RY*(   4)Cl   3                  0.01825
    82. RY*(   5)Cl   3                  0.01789
    83. RY*(   6)Cl   3                  0.01318
    84. RY*(   7)Cl   3                  0.01316
    85. RY*(   8)Cl   3                  0.01078
    86. RY*(   9)Cl   3                  0.00243
    87. RY*(  10)Cl   3                  0.00130
    88. RY*(  11)Cl   3                  0.00130
    89. RY*(  12)Cl   3                  0.00129
    90. RY*(  13)Cl   3                  0.00128
    91. RY*(  14)Cl   3                  0.00128
    92. RY*(  15)Cl   3                  0.00128
    93. RY*(  16)Cl   3                  0.00126
    94. RY*(  17)Cl   3                  0.00098
    95. RY*(  18)Cl   3                  0.00098
    96. RY*(  19)Cl   3                  0.00075
    97. RY*(  20)Cl   3                  0.00073
    98. RY*(  21)Cl   3                  0.00069
    99. RY*(  22)Cl   3                  0.00054
   100. RY*(  23)Cl   3                  0.00054
   101. RY*(  24)Cl   3                  0.00052
   102. RY*(  25)Cl   3                  0.00020
   103. RY*(  26)Cl   3                  0.00014
   104. RY*(  27)Cl   3                  0.00014
   105. RY*(  28)Cl   3                  0.00015
   106. RY*(  29)Cl   3                  0.00014
   107. RY*(  30)Cl   3                  0.00014
   108. RY*(  31)Cl   3                  0.00015
   109. RY*(  32)Cl   3                  0.00014
   110. RY*(  33)Cl   3                  0.00010
   111. RY*(  34)Cl   3                  0.00010
   112. RY*(  35)Cl   3                  0.00008
   113. RY*(  36)Cl   3                  0.00007
   114. RY*(  37)Cl   3                  0.00008
   115. RY*(  38)Cl   3                  0.00005
   116. RY*(  39)Cl   3                  0.00002
   117. RY*(  40)Cl   3                  0.00000
   118. RY*(  41)Cl   3                  0.00001
       -------------------------------
              Total Lewis   17.78567  ( 99.1798%)
        Valence non-Lewis    0.00000  (  0.0000%)
        Rydberg non-Lewis    0.14708  (  0.8202%)
       -------------------------------
            Total unit  2   17.93276  (100.0000%)
           Charge unit  2   -0.93276
 Leave Link  607 at Wed Oct  6 17:24:51 2021, MaxMem= 16106127360 cpu:              68.0 elap:               2.4
 (Enter /sw/contrib/gaussian/g16/B01/g16/l9999.exe)
 1\1\GINC-N2124\POpt\RMP2-FC\Aug-CC-pVTZ\Cl1H2O1(1-)\CGAVINH\06-Oct-202
 1\1\\#p pop=NBO opt=(z-matrix) mp2/aug-cc-pvtz density=current\\title\
 \-1,1\O\X,1,10.\H,1,r1,2,90.\Cl,1,r2,2,90.,3,a1,0\H,1,r3,2,OOP,3,a1,0\
 \r3=0.99267806\OOP=90.00347395\r1=0.96061628\r2=3.08954942\a1=101.7172
 0655\\Version=ES64L-G16RevB.01\State=1-A\HF=-535.6504229\MP2=-536.1339
 931\RMSD=3.338e-09\RMSF=1.217e-03\Dipole=-1.0182357,0.5372353,-0.00002
 29\Quadrupole=-5.4919536,3.5010683,1.9908853,-2.7856707,0.0000252,0.00
 0013\PG=C01 [X(Cl1H2O1)]\\@


 ERWIN WITH HIS PSI CAN DO
 CALCULATIONS QUITE A FEW.
 BUT ONE THING HAS NOT BEEN SEEN
 JUST WHAT DOES PSI REALLY MEAN.
 -- WALTER HUCKEL, TRANS. BY FELIX BLOCH
 Job cpu time:       0 days  0 hours 24 minutes 11.7 seconds.
 Elapsed time:       0 days  0 hours  1 minutes  4.5 seconds.
 File lengths (MBytes):  RWF=     15 Int=      0 D2E=      0 Chk=      8 Scr=      1
 Normal termination of Gaussian 16 at Wed Oct  6 17:24:52 2021.
