 Entering Gaussian System, Link 0=g16
 Input=clhod_oop_10_sp.gjf
 Output=clhod_oop_10_sp.log
 Initial command:
 /sw/contrib/gaussian/g16/B01/g16/l1.exe "/scr/Gau-1570.inp" -scrdir="/scr/"
 Entering Link 1 = /sw/contrib/gaussian/g16/B01/g16/l1.exe PID=      1571.
  
 Copyright (c) 1988-2017, Gaussian, Inc.  All Rights Reserved.
  
 This is part of the Gaussian(R) 16 program.  It is based on
 the Gaussian(R) 09 system (copyright 2009, Gaussian, Inc.),
 the Gaussian(R) 03 system (copyright 2003, Gaussian, Inc.),
 the Gaussian(R) 98 system (copyright 1998, Gaussian, Inc.),
 the Gaussian(R) 94 system (copyright 1995, Gaussian, Inc.),
 the Gaussian 92(TM) system (copyright 1992, Gaussian, Inc.),
 the Gaussian 90(TM) system (copyright 1990, Gaussian, Inc.),
 the Gaussian 88(TM) system (copyright 1988, Gaussian, Inc.),
 the Gaussian 86(TM) system (copyright 1986, Carnegie Mellon
 University), and the Gaussian 82(TM) system (copyright 1983,
 Carnegie Mellon University). Gaussian is a federally registered
 trademark of Gaussian, Inc.
  
 This software contains proprietary and confidential information,
 including trade secrets, belonging to Gaussian, Inc.
  
 This software is provided under written license and may be
 used, copied, transmitted, or stored only in accord with that
 written license.
  
 The following legend is applicable only to US Government
 contracts under FAR:
  
                    RESTRICTED RIGHTS LEGEND
  
 Use, reproduction and disclosure by the US Government is
 subject to restrictions as set forth in subparagraphs (a)
 and (c) of the Commercial Computer Software - Restricted
 Rights clause in FAR 52.227-19.
  
 Gaussian, Inc.
 340 Quinnipiac St., Bldg. 40, Wallingford CT 06492
  
  
 ---------------------------------------------------------------
 Warning -- This program may not be used in any manner that
 competes with the business of Gaussian, Inc. or will provide
 assistance to any competitor of Gaussian, Inc.  The licensee
 of this program is prohibited from giving any competitor of
 Gaussian, Inc. access to this program.  By using this program,
 the user acknowledges that Gaussian, Inc. is engaged in the
 business of creating and licensing software in the field of
 computational chemistry and represents and warrants to the
 licensee that it is not a competitor of Gaussian, Inc. and that
 it will not use this program in any manner prohibited above.
 ---------------------------------------------------------------
  

 Cite this work as:
 Gaussian 16, Revision B.01,
 M. J. Frisch, G. W. Trucks, H. B. Schlegel, G. E. Scuseria, 
 M. A. Robb, J. R. Cheeseman, G. Scalmani, V. Barone, 
 G. A. Petersson, H. Nakatsuji, X. Li, M. Caricato, A. V. Marenich, 
 J. Bloino, B. G. Janesko, R. Gomperts, B. Mennucci, H. P. Hratchian, 
 J. V. Ortiz, A. F. Izmaylov, J. L. Sonnenberg, D. Williams-Young, 
 F. Ding, F. Lipparini, F. Egidi, J. Goings, B. Peng, A. Petrone, 
 T. Henderson, D. Ranasinghe, V. G. Zakrzewski, J. Gao, N. Rega, 
 G. Zheng, W. Liang, M. Hada, M. Ehara, K. Toyota, R. Fukuda, 
 J. Hasegawa, M. Ishida, T. Nakajima, Y. Honda, O. Kitao, H. Nakai, 
 T. Vreven, K. Throssell, J. A. Montgomery, Jr., J. E. Peralta, 
 F. Ogliaro, M. J. Bearpark, J. J. Heyd, E. N. Brothers, K. N. Kudin, 
 V. N. Staroverov, T. A. Keith, R. Kobayashi, J. Normand, 
 K. Raghavachari, A. P. Rendell, J. C. Burant, S. S. Iyengar, 
 J. Tomasi, M. Cossi, J. M. Millam, M. Klene, C. Adamo, R. Cammi, 
 J. W. Ochterski, R. L. Martin, K. Morokuma, O. Farkas, 
 J. B. Foresman, and D. J. Fox, Gaussian, Inc., Wallingford CT, 2016.
 
 ******************************************
 Gaussian 16:  ES64L-G16RevB.01 20-Dec-2017
                19-Oct-2021 
 ******************************************
 %nproc=28
 Will use up to   28 processors via shared memory.
 %mem=120GB
 %chk=/gscratch/ilahie/mccoygrp/coire_hocl/oop_s_rOH_opt/clhod/clhod_oop_10_sp.ch
 k
 ----------------------------------------------------
 #p pop=NBO SP NoSymm mp2/aug-cc-pvtz density=current
 ----------------------------------------------------
 1/30=1,38=1,172=1/1;
 2/12=2,15=1,17=6,18=5,40=1/2;
 3/5=16,6=1,7=10,11=9,25=1,30=1,71=1/1,2,3;
 4//1;
 5/5=2,38=5/2;
 8/6=4,10=1/1;
 9/15=1,16=-3/6;
 10/5=1,13=10,31=1/2;
 6/7=2,8=2,9=2,10=2,22=-1,40=1/1,7;
 99/5=1,9=1/99;
 Leave Link    1 at Tue Oct 19 16:01:02 2021, MaxMem= 16106127360 cpu:              26.8 elap:               1.0
 (Enter /sw/contrib/gaussian/g16/B01/g16/l101.exe)
 -----
 title
 -----
 Symbolic Z-matrix:
 Charge = -1 Multiplicity = 1
 O
 X                    1     10. 
 H(iso=2)             1    r1       2     90. 
 Cl                   1    r2       2     90.      3    a1       0
 H                    1    r3       2    oop      3    a1       0
       Variables:
  r1                    0.96062                  
  r2                    3.08955                  
  r3                    0.99095                  
  a1                  101.71721                  
  OOP                  80.                       
 
 ITRead=  0  0  0  0
 MicOpt= -1 -1 -1 -1
 NAtoms=      4 NQM=        4 NQMF=       0 NMMI=      0 NMMIF=      0
                NMic=       0 NMicF=      0.
                    Isotopes and Nuclear Properties:
 (Nuclear quadrupole moments (NQMom) in fm**2, nuclear magnetic moments (NMagM)
  in nuclear magnetons)

  Atom         1           2           3           4
 IAtWgt=          16           2          35           1
 AtmWgt=  15.9949146   2.0141018  34.9688527   1.0078250
 NucSpn=           0           2           3           1
 AtZEff=  -0.0000000  -0.0000000  -0.0000000  -0.0000000
 NQMom=    0.0000000   0.2860000  -8.1650000   0.0000000
 NMagM=    0.0000000   0.8574380   0.8218740   2.7928460
 AtZNuc=   8.0000000   1.0000000  17.0000000   1.0000000
 Leave Link  101 at Tue Oct 19 16:01:02 2021, MaxMem= 16106127360 cpu:               2.1 elap:               0.1
 (Enter /sw/contrib/gaussian/g16/B01/g16/l202.exe)
                          Input orientation:                          
 ---------------------------------------------------------------------
 Center     Atomic      Atomic             Coordinates (Angstroms)
 Number     Number       Type             X           Y           Z
 ---------------------------------------------------------------------
      1          8           0        0.000000    0.000000    0.000000
      2          1           0        0.960616    0.000000    0.000000
      3         17           0       -0.627430   -3.025169    0.000000
      4          1           0       -0.198186   -0.955559    0.172077
 ---------------------------------------------------------------------
                    Distance matrix (angstroms):
                    1          2          3          4
     1  O    0.000000
     2  H    0.960616   0.000000
     3  Cl   3.089549   3.416656   0.000000
     4  H    0.990950   1.511796   2.120647   0.000000
 Symmetry turned off by external request.
 Stoichiometry    ClH2O(1-)
 Framework group  C1[X(ClH2O)]
 Deg. of freedom     6
 Full point group                 C1      NOp   1
 Rotational constants (GHZ):         317.4514845           4.3407303           4.2842757
 Leave Link  202 at Tue Oct 19 16:01:02 2021, MaxMem= 16106127360 cpu:               0.2 elap:               0.0
 (Enter /sw/contrib/gaussian/g16/B01/g16/l301.exe)
 Standard basis: Aug-CC-pVTZ (5D, 7F)
 Ernie: Thresh=  0.10000D-02 Tol=  0.10000D-05 Strict=F.
 Ernie:  16 primitive shells out of 116 were deleted.
   142 basis functions,   240 primitive gaussians,   164 cartesian basis functions
    14 alpha electrons       14 beta electrons
       nuclear repulsion energy        39.1982320837 Hartrees.
 IExCor=    0 DFT=F Ex=HF Corr=None ExCW=0 ScaHFX=  1.000000
 ScaDFX=  1.000000  1.000000  1.000000  1.000000 ScalE2=  1.000000  1.000000
 IRadAn=      5 IRanWt=     -1 IRanGd=            0 ICorTp=0 IEmpDi=  4
 NAtoms=    4 NActive=    4 NUniq=    4 SFac= 1.00D+00 NAtFMM=   60 NAOKFM=F Big=F
 Integral buffers will be    131072 words long.
 Raffenetti 1 integral format.
 Two-electron integral symmetry is turned off.
 Leave Link  301 at Tue Oct 19 16:01:02 2021, MaxMem= 16106127360 cpu:               1.1 elap:               0.1
 (Enter /sw/contrib/gaussian/g16/B01/g16/l302.exe)
 NPDir=0 NMtPBC=     1 NCelOv=     1 NCel=       1 NClECP=     1 NCelD=      1
         NCelK=      1 NCelE2=     1 NClLst=     1 CellRange=     0.0.
 One-electron integrals computed using PRISM.
 NBasis=   142 RedAO= T EigKep=  2.92D-04  NBF=   142
 NBsUse=   142 1.00D-06 EigRej= -1.00D+00 NBFU=   142
 Leave Link  302 at Tue Oct 19 16:01:03 2021, MaxMem= 16106127360 cpu:               3.8 elap:               0.2
 (Enter /sw/contrib/gaussian/g16/B01/g16/l303.exe)
 DipDrv:  MaxL=1.
 Leave Link  303 at Tue Oct 19 16:01:03 2021, MaxMem= 16106127360 cpu:               0.8 elap:               0.1
 (Enter /sw/contrib/gaussian/g16/B01/g16/l401.exe)
 ExpMin= 2.53D-02 ExpMax= 4.56D+05 ExpMxC= 1.44D+03 IAcc=3 IRadAn=         5 AccDes= 0.00D+00
 Harris functional with IExCor=  205 and IRadAn=       5 diagonalized for initial guess.
 HarFok:  IExCor=  205 AccDes= 0.00D+00 IRadAn=         5 IDoV= 1 UseB2=F ITyADJ=14
 ICtDFT=  3500011 ScaDFX=  1.000000  1.000000  1.000000  1.000000
 FoFCou: FMM=F IPFlag=           0 FMFlag=      100000 FMFlg1=           0
         NFxFlg=           0 DoJE=T BraDBF=F KetDBF=T FulRan=T
         wScrn=  0.000000 ICntrl=       500 IOpCl=  0 I1Cent=   200000004 NGrid=           0
         NMat0=    1 NMatS0=      1 NMatT0=    0 NMatD0=    1 NMtDS0=    0 NMtDT0=    0
 Symmetry not used in FoFCou.
 Harris En= -535.445785688963    
 JPrj=0 DoOrth=F DoCkMO=F.
 Leave Link  401 at Tue Oct 19 16:01:03 2021, MaxMem= 16106127360 cpu:               5.7 elap:               0.2
 (Enter /sw/contrib/gaussian/g16/B01/g16/l502.exe)
 Keep R1 ints in memory in canonical form, NReq=65346247.
 FoFCou: FMM=F IPFlag=           0 FMFlag=           0 FMFlg1=           0
         NFxFlg=           0 DoJE=F BraDBF=F KetDBF=F FulRan=T
         wScrn=  0.000000 ICntrl=       600 IOpCl=  0 I1Cent=           0 NGrid=           0
         NMat0=    1 NMatS0=  10153 NMatT0=    0 NMatD0=    1 NMtDS0=    0 NMtDT0=    0
 Symmetry not used in FoFCou.
 Two-electron integral symmetry not used.
 Closed shell SCF:
 Using DIIS extrapolation, IDIIS=  1040.
 NGot= 16106127360 LenX= 16054521101 LenY= 16054493764
 Requested convergence on RMS density matrix=1.00D-08 within 128 cycles.
 Requested convergence on MAX density matrix=1.00D-06.
 Requested convergence on             energy=1.00D-06.
 No special actions if energy rises.

 Cycle   1  Pass 1  IDiag  1:
 E= -535.512900186842    
 DIIS: error= 3.80D-02 at cycle   1 NSaved=   1.
 NSaved= 1 IEnMin= 1 EnMin= -535.512900186842     IErMin= 1 ErrMin= 3.80D-02
 ErrMax= 3.80D-02  0.00D+00 EMaxC= 1.00D-01 BMatC= 3.43D-01 BMatP= 3.43D-01
 IDIUse=3 WtCom= 6.20D-01 WtEn= 3.80D-01
 Coeff-Com:  0.100D+01
 Coeff-En:   0.100D+01
 Coeff:      0.100D+01
 Gap=     0.385 Goal=   None    Shift=    0.000
 GapD=    0.385 DampG=1.000 DampE=0.500 DampFc=0.5000 IDamp=-1.
 Damping current iteration by 5.00D-01
 RMSDP=2.23D-03 MaxDP=5.75D-02              OVMax= 1.31D-01

 Cycle   2  Pass 1  IDiag  1:
 E= -535.585390931074     Delta-E=       -0.072490744231 Rises=F Damp=T
 DIIS: error= 1.40D-02 at cycle   2 NSaved=   2.
 NSaved= 2 IEnMin= 2 EnMin= -535.585390931074     IErMin= 2 ErrMin= 1.40D-02
 ErrMax= 1.40D-02  0.00D+00 EMaxC= 1.00D-01 BMatC= 6.28D-02 BMatP= 3.43D-01
 IDIUse=3 WtCom= 8.60D-01 WtEn= 1.40D-01
 Coeff-Com: -0.477D+00 0.148D+01
 Coeff-En:   0.000D+00 0.100D+01
 Coeff:     -0.410D+00 0.141D+01
 Gap=     0.317 Goal=   None    Shift=    0.000
 RMSDP=9.32D-04 MaxDP=3.41D-02 DE=-7.25D-02 OVMax= 6.74D-02

 Cycle   3  Pass 1  IDiag  1:
 E= -535.647799030399     Delta-E=       -0.062408099325 Rises=F Damp=F
 DIIS: error= 5.08D-03 at cycle   3 NSaved=   3.
 NSaved= 3 IEnMin= 3 EnMin= -535.647799030399     IErMin= 3 ErrMin= 5.08D-03
 ErrMax= 5.08D-03  0.00D+00 EMaxC= 1.00D-01 BMatC= 2.56D-03 BMatP= 6.28D-02
 IDIUse=3 WtCom= 9.49D-01 WtEn= 5.08D-02
 Coeff-Com: -0.155D+00 0.283D+00 0.872D+00
 Coeff-En:   0.000D+00 0.000D+00 0.100D+01
 Coeff:     -0.148D+00 0.269D+00 0.879D+00
 Gap=     0.319 Goal=   None    Shift=    0.000
 RMSDP=1.72D-04 MaxDP=4.08D-03 DE=-6.24D-02 OVMax= 1.17D-02

 Cycle   4  Pass 1  IDiag  1:
 E= -535.649451141358     Delta-E=       -0.001652110959 Rises=F Damp=F
 DIIS: error= 5.12D-04 at cycle   4 NSaved=   4.
 NSaved= 4 IEnMin= 4 EnMin= -535.649451141358     IErMin= 4 ErrMin= 5.12D-04
 ErrMax= 5.12D-04  0.00D+00 EMaxC= 1.00D-01 BMatC= 4.85D-05 BMatP= 2.56D-03
 IDIUse=3 WtCom= 9.95D-01 WtEn= 5.12D-03
 Coeff-Com: -0.243D-01 0.419D-01 0.181D+00 0.802D+00
 Coeff-En:   0.000D+00 0.000D+00 0.000D+00 0.100D+01
 Coeff:     -0.242D-01 0.417D-01 0.180D+00 0.803D+00
 Gap=     0.314 Goal=   None    Shift=    0.000
 RMSDP=3.85D-05 MaxDP=9.35D-04 DE=-1.65D-03 OVMax= 2.31D-03

 Cycle   5  Pass 1  IDiag  1:
 E= -535.649502246209     Delta-E=       -0.000051104851 Rises=F Damp=F
 DIIS: error= 1.49D-04 at cycle   5 NSaved=   5.
 NSaved= 5 IEnMin= 5 EnMin= -535.649502246209     IErMin= 5 ErrMin= 1.49D-04
 ErrMax= 1.49D-04  0.00D+00 EMaxC= 1.00D-01 BMatC= 3.73D-06 BMatP= 4.85D-05
 IDIUse=3 WtCom= 9.99D-01 WtEn= 1.49D-03
 Coeff-Com:  0.155D-01-0.295D-01-0.894D-01-0.467D-01 0.115D+01
 Coeff-En:   0.000D+00 0.000D+00 0.000D+00 0.000D+00 0.100D+01
 Coeff:      0.154D-01-0.295D-01-0.892D-01-0.466D-01 0.115D+01
 Gap=     0.314 Goal=   None    Shift=    0.000
 RMSDP=2.08D-05 MaxDP=5.24D-04 DE=-5.11D-05 OVMax= 1.57D-03

 Cycle   6  Pass 1  IDiag  1:
 E= -535.649511903649     Delta-E=       -0.000009657440 Rises=F Damp=F
 DIIS: error= 4.01D-05 at cycle   6 NSaved=   6.
 NSaved= 6 IEnMin= 6 EnMin= -535.649511903649     IErMin= 6 ErrMin= 4.01D-05
 ErrMax= 4.01D-05  0.00D+00 EMaxC= 1.00D-01 BMatC= 2.39D-07 BMatP= 3.73D-06
 IDIUse=1 WtCom= 1.00D+00 WtEn= 0.00D+00
 Coeff-Com: -0.207D-02 0.453D-02 0.112D-01-0.132D-01-0.361D+00 0.136D+01
 Coeff:     -0.207D-02 0.453D-02 0.112D-01-0.132D-01-0.361D+00 0.136D+01
 Gap=     0.314 Goal=   None    Shift=    0.000
 RMSDP=6.94D-06 MaxDP=1.44D-04 DE=-9.66D-06 OVMax= 5.17D-04

 Cycle   7  Pass 1  IDiag  1:
 E= -535.649512749812     Delta-E=       -0.000000846163 Rises=F Damp=F
 DIIS: error= 7.80D-06 at cycle   7 NSaved=   7.
 NSaved= 7 IEnMin= 7 EnMin= -535.649512749812     IErMin= 7 ErrMin= 7.80D-06
 ErrMax= 7.80D-06  0.00D+00 EMaxC= 1.00D-01 BMatC= 7.59D-09 BMatP= 2.39D-07
 IDIUse=1 WtCom= 1.00D+00 WtEn= 0.00D+00
 Coeff-Com:  0.159D-04-0.218D-03-0.209D-03 0.463D-02 0.701D-01-0.419D+00
 Coeff-Com:  0.135D+01
 Coeff:      0.159D-04-0.218D-03-0.209D-03 0.463D-02 0.701D-01-0.419D+00
 Coeff:      0.135D+01
 Gap=     0.314 Goal=   None    Shift=    0.000
 RMSDP=1.20D-06 MaxDP=3.06D-05 DE=-8.46D-07 OVMax= 8.28D-05

 Cycle   8  Pass 1  IDiag  1:
 E= -535.649512774497     Delta-E=       -0.000000024685 Rises=F Damp=F
 DIIS: error= 1.36D-06 at cycle   8 NSaved=   8.
 NSaved= 8 IEnMin= 8 EnMin= -535.649512774497     IErMin= 8 ErrMin= 1.36D-06
 ErrMax= 1.36D-06  0.00D+00 EMaxC= 1.00D-01 BMatC= 2.65D-10 BMatP= 7.59D-09
 IDIUse=1 WtCom= 1.00D+00 WtEn= 0.00D+00
 Coeff-Com:  0.577D-04-0.127D-03-0.339D-03 0.227D-03 0.110D-01-0.382D-01
 Coeff-Com: -0.226D-01 0.105D+01
 Coeff:      0.577D-04-0.127D-03-0.339D-03 0.227D-03 0.110D-01-0.382D-01
 Coeff:     -0.226D-01 0.105D+01
 Gap=     0.314 Goal=   None    Shift=    0.000
 RMSDP=1.65D-07 MaxDP=3.68D-06 DE=-2.47D-08 OVMax= 1.15D-05

 Cycle   9  Pass 1  IDiag  1:
 E= -535.649512775102     Delta-E=       -0.000000000605 Rises=F Damp=F
 DIIS: error= 4.32D-07 at cycle   9 NSaved=   9.
 NSaved= 9 IEnMin= 9 EnMin= -535.649512775102     IErMin= 9 ErrMin= 4.32D-07
 ErrMax= 4.32D-07  0.00D+00 EMaxC= 1.00D-01 BMatC= 2.57D-11 BMatP= 2.65D-10
 IDIUse=1 WtCom= 1.00D+00 WtEn= 0.00D+00
 Coeff-Com: -0.127D-04 0.433D-04 0.794D-04-0.414D-03-0.785D-02 0.436D-01
 Coeff-Com: -0.125D+00-0.113D+00 0.120D+01
 Coeff:     -0.127D-04 0.433D-04 0.794D-04-0.414D-03-0.785D-02 0.436D-01
 Coeff:     -0.125D+00-0.113D+00 0.120D+01
 Gap=     0.314 Goal=   None    Shift=    0.000
 RMSDP=5.10D-08 MaxDP=1.02D-06 DE=-6.05D-10 OVMax= 4.07D-06

 Cycle  10  Pass 1  IDiag  1:
 E= -535.649512775171     Delta-E=       -0.000000000069 Rises=F Damp=F
 DIIS: error= 8.63D-08 at cycle  10 NSaved=  10.
 NSaved=10 IEnMin=10 EnMin= -535.649512775171     IErMin=10 ErrMin= 8.63D-08
 ErrMax= 8.63D-08  0.00D+00 EMaxC= 1.00D-01 BMatC= 1.06D-12 BMatP= 2.57D-11
 IDIUse=1 WtCom= 1.00D+00 WtEn= 0.00D+00
 Coeff-Com: -0.103D-05 0.844D-06 0.353D-05 0.246D-04 0.306D-03-0.269D-02
 Coeff-Com:  0.147D-01-0.394D-01-0.114D+00 0.114D+01
 Coeff:     -0.103D-05 0.844D-06 0.353D-05 0.246D-04 0.306D-03-0.269D-02
 Coeff:      0.147D-01-0.394D-01-0.114D+00 0.114D+01
 Gap=     0.314 Goal=   None    Shift=    0.000
 RMSDP=1.54D-08 MaxDP=4.60D-07 DE=-6.89D-11 OVMax= 8.21D-07

 Cycle  11  Pass 1  IDiag  1:
 E= -535.649512775175     Delta-E=       -0.000000000004 Rises=F Damp=F
 DIIS: error= 2.09D-08 at cycle  11 NSaved=  11.
 NSaved=11 IEnMin=11 EnMin= -535.649512775175     IErMin=11 ErrMin= 2.09D-08
 ErrMax= 2.09D-08  0.00D+00 EMaxC= 1.00D-01 BMatC= 5.87D-14 BMatP= 1.06D-12
 IDIUse=1 WtCom= 1.00D+00 WtEn= 0.00D+00
 Coeff-Com:  0.104D-05-0.289D-05-0.536D-05 0.212D-04 0.406D-03-0.214D-02
 Coeff-Com:  0.527D-02 0.990D-02-0.619D-01-0.110D+00 0.116D+01
 Coeff:      0.104D-05-0.289D-05-0.536D-05 0.212D-04 0.406D-03-0.214D-02
 Coeff:      0.527D-02 0.990D-02-0.619D-01-0.110D+00 0.116D+01
 Gap=     0.314 Goal=   None    Shift=    0.000
 RMSDP=5.47D-09 MaxDP=1.89D-07 DE=-3.52D-12 OVMax= 2.10D-07

 SCF Done:  E(RHF) =  -535.649512775     A.U. after   11 cycles
            NFock= 11  Conv=0.55D-08     -V/T= 2.0002
 KE= 5.355431154844D+02 PE=-1.361192091383D+03 EE= 2.508012310396D+02
 Leave Link  502 at Tue Oct 19 16:01:04 2021, MaxMem= 16106127360 cpu:              18.2 elap:               1.4
 (Enter /sw/contrib/gaussian/g16/B01/g16/l801.exe)
 ExpMin= 2.53D-02 ExpMax= 4.56D+05 ExpMxC= 1.44D+03 IAcc=3 IRadAn=         5 AccDes= 0.00D+00
 HarFok:  IExCor=  205 AccDes= 0.00D+00 IRadAn=         5 IDoV=-2 UseB2=F ITyADJ=14
 ICtDFT= 12500011 ScaDFX=  1.000000  1.000000  1.000000  1.000000
 Largest valence mixing into a core orbital is  4.53D-04
 Largest core mixing into a valence orbital is  1.83D-04
 Range of M.O.s used for correlation:     7   142
 NBasis=   142 NAE=    14 NBE=    14 NFC=     6 NFV=     0
 NROrb=    136 NOA=     8 NOB=     8 NVA=   128 NVB=   128

 **** Warning!!: The largest alpha MO coefficient is  0.15863703D+02

 Leave Link  801 at Tue Oct 19 16:01:04 2021, MaxMem= 16106127360 cpu:               2.2 elap:               0.1
 (Enter /sw/contrib/gaussian/g16/B01/g16/l906.exe)
 Frozen-core derivative calculation, NFC=   6 NFV=   0.
 FulOut=F Deriv=T AODrv=F NAtomX=     4
   MMem=         252  MDisk=           8 MDiskD=           8
  W3Min=      326032 MinDsk=      657538 NBas6D=         164
 NBas2D=       13905    NTT=       13530    LW2=     3500000
    MDV= 16105867658 MDiskM=      490971 NBas2p=       13814
 Fully in-core method, ICMem=   205321089.
 IMap=   1   2   3   4   5   6   7   8   9  10  11  12  13  14
 JobTyp=1 Pass  1 fully in-core, NPsUse= 28.
 Compute canonical integrals.
 FoFCou: FMM=F IPFlag=           0 FMFlag=           0 FMFlg1=           0
         NFxFlg=           0 DoJE=F BraDBF=F KetDBF=F FulRan=T
         wScrn=  0.000000 ICntrl=       600 IOpCl=  1 I1Cent=           0 NGrid=           0
         NMat0=    1 NMatS0=  13905 NMatT0=    0 NMatD0=    1 NMtDS0=    0 NMtDT0=    0
 Symmetry not used in FoFCou.
 Spin components of T(2) and E(2):
     alpha-alpha T2 =       0.1963740224D-01 E2=     -0.6017142456D-01
     alpha-beta  T2 =       0.1073868892D+00 E2=     -0.3630309806D+00
     beta-beta   T2 =       0.1963740224D-01 E2=     -0.6017142456D-01
 The integrals were generated   1 times.
 ANorm=    0.1070822905D+01
 E2 =    -0.4833738297D+00 EUMP2 =    -0.53613288660487D+03
 Leave Link  906 at Tue Oct 19 16:01:06 2021, MaxMem= 16106127360 cpu:              57.5 elap:               2.1
 (Enter /sw/contrib/gaussian/g16/B01/g16/l1002.exe)
 Minotr:  Closed shell wavefunction.
          Computing MP2/KS-MP2 derivatives.
          Using Z-Vector for PSCF gradient.
          Skipping F1 and S1 gradient terms here.
          Frozen-core window.
          Direct CPHF calculation.
          Differentiating once with respect to electric field.
                with respect to dipole field.
          Electric field/nuclear overlap derivatives assumed to be zero.
          Requested convergence is 1.0D-10 RMS, and 1.0D-09 maximum.
          NewPWx=F KeepS1=T KeepF1=T KeepIn=T MapXYZ=F SortEE=F KeepMc=T.
 Keep R1 ints in memory in canonical form, NReq=65349028.
 FoFCou: FMM=F IPFlag=           0 FMFlag=           0 FMFlg1=           0
         NFxFlg=           0 DoJE=F BraDBF=F KetDBF=F FulRan=T
         wScrn=  0.000000 ICntrl=       600 IOpCl=  0 I1Cent=           0 NGrid=           0
         NMat0=    1 NMatS0=  10153 NMatT0=    0 NMatD0=    1 NMtDS0=    0 NMtDT0=    0
 Symmetry not used in FoFCou.
 Two-electron integral symmetry not used.
          MDV=   16106127360 using IRadAn=       5.
          Solving linear equations separately, MaxMat=       0.
          There are     1 degrees of freedom in the 1st order CPHF.  IDoFFX=0 NUNeed=     1.
 LinEq1:  Iter=  0 NonCon=     1 RMS=3.01D-03 Max=3.69D-02 NDo=     1
 AX will form     1 AO Fock derivatives at one time.
 LinEq1:  Iter=  1 NonCon=     1 RMS=3.76D-04 Max=5.46D-03 NDo=     1
 LinEq1:  Iter=  2 NonCon=     1 RMS=1.13D-04 Max=1.11D-03 NDo=     1
 LinEq1:  Iter=  3 NonCon=     1 RMS=3.71D-05 Max=3.21D-04 NDo=     1
 LinEq1:  Iter=  4 NonCon=     1 RMS=1.07D-05 Max=9.40D-05 NDo=     1
 LinEq1:  Iter=  5 NonCon=     1 RMS=2.70D-06 Max=2.54D-05 NDo=     1
 LinEq1:  Iter=  6 NonCon=     1 RMS=6.74D-07 Max=8.93D-06 NDo=     1
 LinEq1:  Iter=  7 NonCon=     1 RMS=1.70D-07 Max=1.43D-06 NDo=     1
 LinEq1:  Iter=  8 NonCon=     1 RMS=3.99D-08 Max=4.13D-07 NDo=     1
 LinEq1:  Iter=  9 NonCon=     1 RMS=7.54D-09 Max=8.45D-08 NDo=     1
 LinEq1:  Iter= 10 NonCon=     1 RMS=1.36D-09 Max=1.42D-08 NDo=     1
 LinEq1:  Iter= 11 NonCon=     1 RMS=3.14D-10 Max=2.87D-09 NDo=     1
 LinEq1:  Iter= 12 NonCon=     0 RMS=7.92D-11 Max=7.95D-10 NDo=     1
 Linear equations converged to 1.000D-10 1.000D-09 after    12 iterations.
 End of Minotr F.D. properties file   721 does not exist.
 End of Minotr F.D. properties file   722 does not exist.
 End of Minotr F.D. properties file   788 does not exist.
 Leave Link 1002 at Tue Oct 19 16:01:09 2021, MaxMem= 16106127360 cpu:              28.2 elap:               2.0
 (Enter /sw/contrib/gaussian/g16/B01/g16/l601.exe)
 Copying SCF densities to generalized density rwf, IOpCl= 0 IROHF=0.

 **********************************************************************

            Population analysis using the MP2 Density.

 **********************************************************************

 Alpha  occ. eigenvalues -- -104.52889 -20.37884 -10.25334  -7.71943  -7.71937
 Alpha  occ. eigenvalues --   -7.71936  -1.15966  -0.76380  -0.51680  -0.40700
 Alpha  occ. eigenvalues --   -0.32395  -0.18079  -0.17632  -0.17571
 Alpha virt. eigenvalues --    0.13862   0.18163   0.25666   0.26690   0.27756
 Alpha virt. eigenvalues --    0.28799   0.30519   0.30773   0.35239   0.39799
 Alpha virt. eigenvalues --    0.41192   0.42097   0.43371   0.49369   0.54870
 Alpha virt. eigenvalues --    0.55956   0.58160   0.59700   0.61271   0.67061
 Alpha virt. eigenvalues --    0.67443   0.69634   0.72807   0.80971   0.85791
 Alpha virt. eigenvalues --    0.86900   0.88860   0.90066   0.91465   0.93066
 Alpha virt. eigenvalues --    1.00245   1.03578   1.05748   1.06662   1.09773
 Alpha virt. eigenvalues --    1.10060   1.10772   1.12173   1.16469   1.18645
 Alpha virt. eigenvalues --    1.20139   1.20166   1.21731   1.25616   1.28480
 Alpha virt. eigenvalues --    1.30484   1.31870   1.39951   1.42189   1.44672
 Alpha virt. eigenvalues --    1.44895   1.50164   1.56913   1.58375   1.61367
 Alpha virt. eigenvalues --    1.66734   1.70250   1.73555   1.78341   1.82597
 Alpha virt. eigenvalues --    1.86794   1.90690   2.09368   2.12512   2.25221
 Alpha virt. eigenvalues --    2.46409   2.51440   2.56195   2.61879   2.63419
 Alpha virt. eigenvalues --    2.64482   2.67298   2.73276   2.80659   2.81109
 Alpha virt. eigenvalues --    2.86106   2.89828   2.91553   2.92487   2.97473
 Alpha virt. eigenvalues --    2.99432   3.00921   3.08504   3.15796   3.16785
 Alpha virt. eigenvalues --    3.34612   3.34634   3.39338   3.39578   3.40262
 Alpha virt. eigenvalues --    3.51261   3.53291   3.59781   3.88025   4.18636
 Alpha virt. eigenvalues --    4.24508   4.34297   4.39342   4.45412   4.46415
 Alpha virt. eigenvalues --    4.56661   4.58377   4.63548   4.77430   4.96714
 Alpha virt. eigenvalues --    5.10893   5.30430   5.37822   5.46600   5.51188
 Alpha virt. eigenvalues --    5.69290   5.80116   6.22413   6.46096   6.72091
 Alpha virt. eigenvalues --    6.92157   7.11692   7.29967   7.43968   7.45653
 Alpha virt. eigenvalues --    7.48514   7.55305   7.62937   7.79765   8.08695
 Alpha virt. eigenvalues --    8.14202   8.96720  16.11595
          Condensed to atoms (all electrons):
               1          2          3          4
     1  O    8.255011   0.209713  -0.068571   0.141917
     2  H    0.209713   0.605900   0.004647   0.013216
     3  Cl  -0.068571   0.004647  17.930534   0.048365
     4  H    0.141917   0.013216   0.048365   0.509981
 Mulliken charges:
               1
     1  O   -0.538071
     2  H    0.166524
     3  Cl  -0.914975
     4  H    0.286521
 Sum of Mulliken charges =  -1.00000
 Mulliken charges with hydrogens summed into heavy atoms:
               1
     1  O   -0.085025
     3  Cl  -0.914975
 Electronic spatial extent (au):  <R**2>=            669.8260
 Charge=             -1.0000 electrons
 Dipole moment (field-independent basis, Debye):
    X=              3.7223    Y=             11.5939    Z=              0.1389  Tot=             12.1775
 Quadrupole moment (field-independent basis, Debye-Ang):
   XX=            -24.1539   YY=            -63.1469   ZZ=            -25.0715
   XY=             -7.5260   XZ=             -0.0638   YZ=             -0.1447
 Traceless Quadrupole moment (field-independent basis, Debye-Ang):
   XX=             13.3035   YY=            -25.6894   ZZ=             12.3859
   XY=             -7.5260   XZ=             -0.0638   YZ=             -0.1447
 Octapole moment (field-independent basis, Debye-Ang**2):
  XXX=             32.8946  YYY=            273.8848  ZZZ=             -0.6132  XYY=             33.9646
  XXY=             56.6221  XXZ=             -0.2356  XZZ=              9.9796  YZZ=             51.6560
  YYZ=             -0.7640  XYZ=             -0.1206
 Hexadecapole moment (field-independent basis, Debye-Ang**3):
 XXXX=            -76.6252 YYYY=          -1325.1778 ZZZZ=            -37.6404 XXXY=            -98.9441
 XXXZ=              0.1130 YYYX=           -167.5300 YYYZ=              3.0714 ZZZX=              0.1072
 ZZZY=              0.7211 XXYY=           -189.3321 XXZZ=            -19.2982 YYZZ=           -168.0191
 XXYZ=              0.3305 YYXZ=              0.5093 ZZXY=            -31.9954
 N-N= 3.919823208367D+01 E-N=-1.361137654401D+03  KE= 5.360243099549D+02
 No NMR shielding tensors so no spin-rotation constants.
 Leave Link  601 at Tue Oct 19 16:01:09 2021, MaxMem= 16106127360 cpu:               4.1 elap:               0.2
 (Enter /sw/contrib/gaussian/g16/B01/g16/l607.exe)
 ******************************Gaussian NBO Version 3.1******************************
             N A T U R A L   A T O M I C   O R B I T A L   A N D
          N A T U R A L   B O N D   O R B I T A L   A N A L Y S I S
 ******************************Gaussian NBO Version 3.1******************************
       /RESON  / : Allow strongly delocalized NBO set

 Analyzing the MP2 density

 Job title: title                                                           

 Storage needed:     61222 in NPA,     81148 in NBO (********** available)
 GSVD:  LWork=       -1046 too small for GESVD, short by       42557 words or       42557 for optimal perf.


 NATURAL POPULATIONS:  Natural atomic orbital occupancies 
                                                          
   NAO  Atom  No  lang   Type(AO)    Occupancy
 --------------------------------------------
     1    O    1  S      Cor( 1S)     1.99967
     2    O    1  S      Val( 2S)     1.74254
     3    O    1  S      Ryd( 3S)     0.00594
     4    O    1  S      Ryd( 4S)     0.00046
     5    O    1  S      Ryd( 5S)     0.00018
     6    O    1  px     Val( 2p)     1.52144
     7    O    1  px     Ryd( 3p)     0.00987
     8    O    1  px     Ryd( 4p)     0.00052
     9    O    1  px     Ryd( 5p)     0.00007
    10    O    1  py     Val( 2p)     1.68161
    11    O    1  py     Ryd( 3p)     0.01168
    12    O    1  py     Ryd( 4p)     0.00061
    13    O    1  py     Ryd( 5p)     0.00009
    14    O    1  pz     Val( 2p)     1.94364
    15    O    1  pz     Ryd( 3p)     0.02056
    16    O    1  pz     Ryd( 4p)     0.00060
    17    O    1  pz     Ryd( 5p)     0.00002
    18    O    1  dxy    Ryd( 3d)     0.00813
    19    O    1  dxy    Ryd( 4d)     0.00041
    20    O    1  dxy    Ryd( 5d)     0.00006
    21    O    1  dxz    Ryd( 3d)     0.00823
    22    O    1  dxz    Ryd( 4d)     0.00045
    23    O    1  dxz    Ryd( 5d)     0.00006
    24    O    1  dyz    Ryd( 3d)     0.00796
    25    O    1  dyz    Ryd( 4d)     0.00047
    26    O    1  dyz    Ryd( 5d)     0.00010
    27    O    1  dx2y2  Ryd( 3d)     0.01223
    28    O    1  dx2y2  Ryd( 4d)     0.00031
    29    O    1  dx2y2  Ryd( 5d)     0.00009
    30    O    1  dz2    Ryd( 3d)     0.00889
    31    O    1  dz2    Ryd( 4d)     0.00045
    32    O    1  dz2    Ryd( 5d)     0.00010
    33    O    1  f(0)   Ryd( 4f)     0.00062
    34    O    1  f(0)   Ryd( 5f)     0.00010
    35    O    1  f(C1)  Ryd( 4f)     0.00055
    36    O    1  f(C1)  Ryd( 5f)     0.00008
    37    O    1  f(S1)  Ryd( 4f)     0.00058
    38    O    1  f(S1)  Ryd( 5f)     0.00009
    39    O    1  f(C2)  Ryd( 4f)     0.00046
    40    O    1  f(C2)  Ryd( 5f)     0.00009
    41    O    1  f(S2)  Ryd( 4f)     0.00047
    42    O    1  f(S2)  Ryd( 5f)     0.00008
    43    O    1  f(C3)  Ryd( 4f)     0.00042
    44    O    1  f(C3)  Ryd( 5f)     0.00012
    45    O    1  f(S3)  Ryd( 4f)     0.00040
    46    O    1  f(S3)  Ryd( 5f)     0.00009

    47    H    2  S      Val( 1S)     0.55122
    48    H    2  S      Ryd( 2S)     0.00166
    49    H    2  S      Ryd( 3S)     0.00017
    50    H    2  S      Ryd( 4S)     0.00007
    51    H    2  px     Ryd( 2p)     0.00158
    52    H    2  px     Ryd( 3p)     0.00053
    53    H    2  px     Ryd( 4p)     0.00013
    54    H    2  py     Ryd( 2p)     0.00192
    55    H    2  py     Ryd( 3p)     0.00022
    56    H    2  py     Ryd( 4p)     0.00009
    57    H    2  pz     Ryd( 2p)     0.00500
    58    H    2  pz     Ryd( 3p)     0.00019
    59    H    2  pz     Ryd( 4p)     0.00006
    60    H    2  dxy    Ryd( 3d)     0.00006
    61    H    2  dxy    Ryd( 4d)     0.00005
    62    H    2  dxz    Ryd( 3d)     0.00008
    63    H    2  dxz    Ryd( 4d)     0.00006
    64    H    2  dyz    Ryd( 3d)     0.00012
    65    H    2  dyz    Ryd( 4d)     0.00004
    66    H    2  dx2y2  Ryd( 3d)     0.00009
    67    H    2  dx2y2  Ryd( 4d)     0.00004
    68    H    2  dz2    Ryd( 3d)     0.00011
    69    H    2  dz2    Ryd( 4d)     0.00006

    70   Cl    3  S      Cor( 1S)     2.00001
    71   Cl    3  S      Cor( 2S)     2.00000
    72   Cl    3  S      Val( 3S)     1.97616
    73   Cl    3  S      Ryd( 4S)     0.00237
    74   Cl    3  S      Ryd( 5S)     0.00025
    75   Cl    3  S      Ryd( 6S)     0.00006
    76   Cl    3  px     Cor( 2p)     2.00003
    77   Cl    3  px     Val( 3p)     1.95044
    78   Cl    3  px     Ryd( 4p)     0.01318
    79   Cl    3  px     Ryd( 5p)     0.00058
    80   Cl    3  px     Ryd( 6p)     0.00002
    81   Cl    3  py     Cor( 2p)     2.00002
    82   Cl    3  py     Val( 3p)     1.91048
    83   Cl    3  py     Ryd( 4p)     0.01132
    84   Cl    3  py     Ryd( 5p)     0.00055
    85   Cl    3  py     Ryd( 6p)     0.00009
    86   Cl    3  pz     Cor( 2p)     2.00003
    87   Cl    3  pz     Val( 3p)     1.95194
    88   Cl    3  pz     Ryd( 4p)     0.01321
    89   Cl    3  pz     Ryd( 5p)     0.00058
    90   Cl    3  pz     Ryd( 6p)     0.00001
    91   Cl    3  dxy    Ryd( 3d)     0.01839
    92   Cl    3  dxy    Ryd( 4d)     0.00074
    93   Cl    3  dxy    Ryd( 5d)     0.00011
    94   Cl    3  dxz    Ryd( 3d)     0.01828
    95   Cl    3  dxz    Ryd( 4d)     0.00097
    96   Cl    3  dxz    Ryd( 5d)     0.00011
    97   Cl    3  dyz    Ryd( 3d)     0.01843
    98   Cl    3  dyz    Ryd( 4d)     0.00076
    99   Cl    3  dyz    Ryd( 5d)     0.00011
   100   Cl    3  dx2y2  Ryd( 3d)     0.01812
   101   Cl    3  dx2y2  Ryd( 4d)     0.00086
   102   Cl    3  dx2y2  Ryd( 5d)     0.00012
   103   Cl    3  dz2    Ryd( 3d)     0.01822
   104   Cl    3  dz2    Ryd( 4d)     0.00094
   105   Cl    3  dz2    Ryd( 5d)     0.00011
   106   Cl    3  f(0)   Ryd( 4f)     0.00128
   107   Cl    3  f(0)   Ryd( 5f)     0.00015
   108   Cl    3  f(C1)  Ryd( 4f)     0.00129
   109   Cl    3  f(C1)  Ryd( 5f)     0.00014
   110   Cl    3  f(S1)  Ryd( 4f)     0.00128
   111   Cl    3  f(S1)  Ryd( 5f)     0.00016
   112   Cl    3  f(C2)  Ryd( 4f)     0.00128
   113   Cl    3  f(C2)  Ryd( 5f)     0.00015
   114   Cl    3  f(S2)  Ryd( 4f)     0.00130
   115   Cl    3  f(S2)  Ryd( 5f)     0.00015
   116   Cl    3  f(C3)  Ryd( 4f)     0.00126
   117   Cl    3  f(C3)  Ryd( 5f)     0.00015
   118   Cl    3  f(S3)  Ryd( 4f)     0.00127
   119   Cl    3  f(S3)  Ryd( 5f)     0.00016

   120    H    4  S      Val( 1S)     0.48599
   121    H    4  S      Ryd( 2S)     0.00679
   122    H    4  S      Ryd( 3S)     0.00031
   123    H    4  S      Ryd( 4S)     0.00009
   124    H    4  px     Ryd( 2p)     0.00329
   125    H    4  px     Ryd( 3p)     0.00040
   126    H    4  px     Ryd( 4p)     0.00008
   127    H    4  py     Ryd( 2p)     0.00427
   128    H    4  py     Ryd( 3p)     0.00056
   129    H    4  py     Ryd( 4p)     0.00020
   130    H    4  pz     Ryd( 2p)     0.00352
   131    H    4  pz     Ryd( 3p)     0.00045
   132    H    4  pz     Ryd( 4p)     0.00009
   133    H    4  dxy    Ryd( 3d)     0.00017
   134    H    4  dxy    Ryd( 4d)     0.00009
   135    H    4  dxz    Ryd( 3d)     0.00015
   136    H    4  dxz    Ryd( 4d)     0.00005
   137    H    4  dyz    Ryd( 3d)     0.00019
   138    H    4  dyz    Ryd( 4d)     0.00009
   139    H    4  dx2y2  Ryd( 3d)     0.00017
   140    H    4  dx2y2  Ryd( 4d)     0.00009
   141    H    4  dz2    Ryd( 3d)     0.00016
   142    H    4  dz2    Ryd( 4d)     0.00007


 Summary of Natural Population Analysis:                  
                                                          
                                       Natural Population 
                Natural  -----------------------------------------------
    Atom  No    Charge         Core      Valence    Rydberg      Total
 -----------------------------------------------------------------------
      O    1   -0.99160      1.99967     6.88923    0.10270     8.99160
      H    2    0.43645      0.00000     0.55122    0.01232     0.56355
     Cl    3   -0.93761     10.00009     7.78902    0.14850    17.93761
      H    4    0.49276      0.00000     0.48599    0.02126     0.50724
 =======================================================================
   * Total *   -1.00000     11.99976    15.71546    0.28479    28.00000

                                 Natural Population      
 --------------------------------------------------------
   Core                      11.99976 ( 99.9980% of  12)
   Valence                   15.71546 ( 98.2216% of  16)
   Natural Minimal Basis     27.71521 ( 98.9829% of  28)
   Natural Rydberg Basis      0.28479 (  1.0171% of  28)
 --------------------------------------------------------

    Atom  No          Natural Electron Configuration
 ----------------------------------------------------------------------------
      O    1      [core]2S( 1.74)2p( 5.15)3S( 0.01)3p( 0.04)3d( 0.05)
      H    2            1S( 0.55)2p( 0.01)
     Cl    3      [core]3S( 1.98)3p( 5.81)3d( 0.09)4p( 0.04)4f( 0.01)
      H    4            1S( 0.49)2S( 0.01)2p( 0.01)


 NATURAL BOND ORBITAL ANALYSIS:
 Warning:  a bond orbital has occupanc of -0.00004

                       Occupancies       Lewis Structure    Low   High
           Occ.    -------------------  -----------------   occ   occ
  Cycle   Thresh.   Lewis   Non-Lewis     CR  BD  3C  LP    (L)   (NL)   Dev
 =============================================================================
   1(1)    1.90    27.65267   0.34733      6   2   0   6     0      0    0.07
 -----------------------------------------------------------------------------

 Structure accepted: No low occupancy Lewis orbitals

 --------------------------------------------------------
   Core                     11.99976 ( 99.998% of  12)
   Valence Lewis            15.65291 ( 97.831% of  16)
  ==================       ============================
   Total Lewis              27.65267 ( 98.760% of  28)
  -----------------------------------------------------
   Valence non-Lewis         0.08841 (  0.316% of  28)
   Rydberg non-Lewis         0.25892 (  0.925% of  28)
  ==================       ============================
   Total non-Lewis           0.34733 (  1.240% of  28)
 --------------------------------------------------------


       (Occupancy)   Bond orbital/ Coefficients/ Hybrids
 ---------------------------------------------------------------------------------
     1. (1.96570) BD ( 1) O   1 - H   2  
                ( 72.72%)   0.8528* O   1 s( 20.94%)p 3.75( 78.59%)d 0.02(  0.46%)
                                                  f 0.00(  0.01%)
                                            0.0002  0.4575 -0.0054 -0.0018 -0.0023
                                            0.8840 -0.0322  0.0093 -0.0033  0.0545
                                           -0.0140  0.0008 -0.0033 -0.0065  0.0028
                                           -0.0001  0.0003 -0.0185  0.0031  0.0007
                                            0.0046 -0.0009 -0.0005 -0.0013 -0.0001
                                           -0.0008  0.0544 -0.0040 -0.0041 -0.0348
                                            0.0018 -0.0003  0.0001 -0.0000 -0.0096
                                            0.0001 -0.0002  0.0000 -0.0005  0.0003
                                           -0.0021  0.0011  0.0039  0.0038  0.0021
                                           -0.0008
                ( 27.28%)   0.5223* H   2 s( 99.88%)p 0.00(  0.12%)d 0.00(  0.00%)
                                            0.9994  0.0035 -0.0001  0.0002  0.0187
                                            0.0273 -0.0049 -0.0089 -0.0037 -0.0022
                                            0.0038  0.0012  0.0003 -0.0003  0.0025
                                            0.0001 -0.0005 -0.0009 -0.0003 -0.0013
                                            0.0013 -0.0008 -0.0009
     2. (1.96804) BD ( 1) O   1 - H   4  
                ( 77.95%)   0.8829* O   1 s( 26.67%)p 2.73( 72.91%)d 0.02(  0.41%)
                                                  f 0.00(  0.01%)
                                           -0.0003 -0.5164  0.0015  0.0017  0.0009
                                            0.2135 -0.0180  0.0019 -0.0014  0.8113
                                           -0.0133  0.0064 -0.0021 -0.1575  0.0016
                                           -0.0015  0.0014  0.0036 -0.0025 -0.0013
                                           -0.0007  0.0006  0.0005  0.0219 -0.0017
                                            0.0001  0.0506 -0.0037 -0.0008  0.0316
                                           -0.0020  0.0014  0.0038 -0.0003 -0.0017
                                           -0.0001 -0.0074  0.0003  0.0027  0.0003
                                           -0.0011 -0.0004 -0.0026 -0.0015 -0.0015
                                           -0.0019
                ( 22.05%)   0.4695* H   4 s( 99.90%)p 0.00(  0.10%)d 0.00(  0.00%)
                                           -0.9991 -0.0264 -0.0009  0.0004 -0.0168
                                           -0.0024 -0.0011 -0.0025 -0.0234 -0.0088
                                           -0.0064  0.0047  0.0016  0.0020  0.0018
                                           -0.0006 -0.0004  0.0004 -0.0005 -0.0031
                                            0.0010  0.0003  0.0013
     3. (1.99967) CR ( 1) O   1           s(100.00%)
                                            1.0000 -0.0004  0.0000  0.0000  0.0000
                                           -0.0001  0.0000 -0.0000  0.0000  0.0001
                                           -0.0000  0.0000  0.0000 -0.0000  0.0000
                                           -0.0000  0.0000 -0.0000 -0.0000 -0.0000
                                            0.0000  0.0000  0.0000  0.0000 -0.0000
                                            0.0000 -0.0000 -0.0000  0.0000  0.0000
                                           -0.0000  0.0000  0.0000  0.0000  0.0000
                                            0.0000 -0.0000 -0.0000  0.0000  0.0000
                                           -0.0000 -0.0000 -0.0000 -0.0000 -0.0000
                                           -0.0000
     4. (2.00001) CR ( 1)Cl   3           s(100.00%)
                                            1.0000 -0.0000  0.0000  0.0000 -0.0000
                                            0.0000  0.0000  0.0000  0.0000 -0.0000
                                            0.0000  0.0000  0.0001 -0.0000 -0.0000
                                            0.0000  0.0000  0.0000  0.0000 -0.0000
                                            0.0000  0.0000  0.0000  0.0000  0.0000
                                            0.0000 -0.0000  0.0000  0.0000  0.0000
                                           -0.0000 -0.0000  0.0000 -0.0000 -0.0000
                                           -0.0000 -0.0000 -0.0000 -0.0000 -0.0000
                                           -0.0000 -0.0000 -0.0000 -0.0000  0.0000
                                            0.0000 -0.0000 -0.0000 -0.0000 -0.0000
     5. (2.00000) CR ( 2)Cl   3           s(100.00%)
                                           -0.0000  1.0000  0.0000  0.0000 -0.0000
                                            0.0000  0.0000  0.0000  0.0000 -0.0000
                                            0.0000  0.0000  0.0000 -0.0000 -0.0000
                                            0.0000  0.0000  0.0000  0.0000 -0.0000
                                            0.0000  0.0000  0.0000  0.0000  0.0000
                                            0.0000 -0.0000  0.0000  0.0000  0.0000
                                           -0.0000 -0.0000  0.0000 -0.0000 -0.0000
                                           -0.0000 -0.0000 -0.0000 -0.0000 -0.0000
                                           -0.0000 -0.0000 -0.0000 -0.0000  0.0000
                                            0.0000 -0.0000 -0.0000 -0.0000 -0.0000
     6. (2.00003) CR ( 3)Cl   3           s(  0.00%)p 1.00(100.00%)
                                            0.0000  0.0000 -0.0000 -0.0000  0.0000
                                           -0.0000  1.0000  0.0000  0.0000  0.0000
                                           -0.0000 -0.0000 -0.0000  0.0000  0.0000
                                           -0.0000 -0.0000 -0.0000 -0.0000  0.0000
                                           -0.0000  0.0000  0.0000 -0.0000  0.0000
                                            0.0000  0.0000 -0.0000 -0.0000 -0.0000
                                            0.0000  0.0000  0.0000  0.0000  0.0000
                                           -0.0000  0.0000  0.0000 -0.0000 -0.0000
                                            0.0000  0.0000  0.0000  0.0000  0.0000
                                            0.0000 -0.0000 -0.0000  0.0000  0.0000
     7. (2.00002) CR ( 4)Cl   3           s(  0.00%)p 1.00(100.00%)
                                            0.0000  0.0000 -0.0000 -0.0000 -0.0000
                                           -0.0000 -0.0000 -0.0000 -0.0000  0.0000
                                           -0.0000  1.0000 -0.0001  0.0000  0.0000
                                           -0.0000 -0.0000 -0.0000 -0.0000  0.0000
                                           -0.0000 -0.0000 -0.0000 -0.0000 -0.0000
                                           -0.0000 -0.0000 -0.0000 -0.0000 -0.0000
                                            0.0000  0.0000 -0.0000  0.0000  0.0000
                                            0.0000  0.0000  0.0000  0.0000  0.0000
                                            0.0000  0.0000  0.0000  0.0000 -0.0000
                                           -0.0000  0.0000  0.0000  0.0000  0.0000
     8. (2.00003) CR ( 5)Cl   3           s(  0.00%)p 1.00(100.00%)
                                            0.0000  0.0000 -0.0000 -0.0000  0.0000
                                           -0.0000 -0.0000 -0.0000 -0.0000  0.0000
                                           -0.0000 -0.0000 -0.0000  0.0000  0.0000
                                           -0.0000  1.0000  0.0000  0.0000  0.0000
                                           -0.0000 -0.0000 -0.0000 -0.0000  0.0000
                                            0.0000  0.0000  0.0000  0.0000 -0.0000
                                            0.0000  0.0000 -0.0000  0.0000  0.0000
                                            0.0000 -0.0000 -0.0000  0.0000  0.0000
                                            0.0000  0.0000 -0.0000 -0.0000  0.0000
                                            0.0000  0.0000  0.0000  0.0000  0.0000
     9. (1.96972) LP ( 1) O   1           s( 52.30%)p 0.91( 47.59%)d 0.00(  0.11%)
                                                  f 0.00(  0.00%)
                                            0.0002  0.7232  0.0028  0.0018  0.0012
                                           -0.4078 -0.0045  0.0022  0.0001  0.5456
                                            0.0086 -0.0047  0.0008 -0.1085 -0.0018
                                            0.0007  0.0004  0.0282 -0.0039  0.0015
                                           -0.0062  0.0010  0.0001  0.0063 -0.0009
                                           -0.0004  0.0047 -0.0001  0.0014  0.0129
                                           -0.0018 -0.0011  0.0014 -0.0005  0.0027
                                           -0.0006 -0.0025  0.0008  0.0007 -0.0003
                                            0.0011 -0.0006  0.0010 -0.0015  0.0011
                                           -0.0003
    10. (1.95954) LP ( 2) O   1           s(  0.00%)p 1.00( 99.80%)d 0.00(  0.19%)
                                                  f 0.00(  0.01%)
                                           -0.0000  0.0001  0.0032  0.0025 -0.0004
                                           -0.0045  0.0005 -0.0001  0.0001  0.1914
                                            0.0051 -0.0011  0.0003  0.9800  0.0283
                                           -0.0069  0.0034  0.0064 -0.0007  0.0002
                                            0.0328 -0.0036  0.0008 -0.0248  0.0022
                                           -0.0042  0.0053 -0.0005  0.0007  0.0109
                                           -0.0014  0.0003 -0.0084  0.0023 -0.0007
                                            0.0003 -0.0046  0.0018 -0.0002  0.0013
                                            0.0021 -0.0005 -0.0004 -0.0001  0.0001
                                            0.0001
    11. (1.97913) LP ( 1)Cl   3           s( 96.03%)p 0.04(  3.97%)d 0.00(  0.00%)
                                                  f 0.00(  0.00%)
                                            0.0000  0.0000  0.9800 -0.0003  0.0000
                                           -0.0001  0.0000 -0.0400  0.0004 -0.0001
                                            0.0001  0.0000 -0.1939  0.0010 -0.0006
                                            0.0003  0.0000 -0.0219  0.0001 -0.0001
                                            0.0001  0.0003  0.0002 -0.0002 -0.0000
                                            0.0000 -0.0000  0.0001  0.0001 -0.0001
                                           -0.0007 -0.0002  0.0003 -0.0006 -0.0002
                                            0.0002 -0.0001 -0.0001 -0.0001 -0.0001
                                           -0.0004 -0.0003 -0.0001 -0.0001  0.0000
                                            0.0000 -0.0003 -0.0002 -0.0004 -0.0002
    12. (1.95274) LP ( 2)Cl   3           s(  0.00%)p 1.00( 99.99%)d 0.00(  0.01%)
                                                  f 0.00(  0.00%)
                                           -0.0000 -0.0000  0.0023  0.0002 -0.0007
                                            0.0008 -0.0000  0.1593  0.0003  0.0002
                                           -0.0001 -0.0000  0.0898 -0.0004 -0.0002
                                            0.0003  0.0000 -0.9831 -0.0006 -0.0009
                                            0.0001  0.0014  0.0004 -0.0001 -0.0022
                                           -0.0011 -0.0006 -0.0058 -0.0011  0.0008
                                           -0.0001  0.0003  0.0004 -0.0022 -0.0010
                                           -0.0004  0.0014  0.0010 -0.0003 -0.0002
                                           -0.0010 -0.0007  0.0014  0.0009 -0.0008
                                           -0.0006 -0.0004 -0.0002  0.0000  0.0001
    13. (1.95252) LP ( 3)Cl   3           s(  0.00%)p 1.00( 99.99%)d 0.00(  0.01%)
                                                  f 0.00(  0.00%)
                                           -0.0000 -0.0000  0.0018 -0.0002 -0.0017
                                            0.0014  0.0000 -0.9651 -0.0019 -0.0012
                                            0.0007 -0.0000  0.2238 -0.0003 -0.0001
                                            0.0007  0.0000 -0.1360 -0.0000 -0.0001
                                            0.0000 -0.0061 -0.0012  0.0006 -0.0016
                                           -0.0008 -0.0004 -0.0004 -0.0000  0.0002
                                           -0.0044 -0.0016 -0.0004  0.0003  0.0005
                                            0.0005  0.0002  0.0001  0.0007  0.0005
                                           -0.0002 -0.0001 -0.0000 -0.0000 -0.0007
                                           -0.0005  0.0015  0.0009 -0.0015 -0.0010
    14. (1.90553) LP ( 4)Cl   3           s(  3.97%)p24.20( 96.00%)d 0.01(  0.03%)
                                                  f 0.00(  0.00%)
                                           -0.0001 -0.0000  0.1991  0.0015 -0.0001
                                            0.0005  0.0000  0.2039  0.0002 -0.0005
                                            0.0002  0.0001  0.9508 -0.0024 -0.0022
                                            0.0006  0.0000  0.1203  0.0008 -0.0003
                                            0.0001  0.0066  0.0015  0.0001  0.0011
                                            0.0003 -0.0000  0.0048  0.0013  0.0002
                                           -0.0119 -0.0022  0.0006 -0.0080 -0.0019
                                           -0.0001 -0.0009 -0.0004 -0.0005 -0.0003
                                           -0.0023 -0.0012 -0.0010 -0.0005  0.0004
                                            0.0001 -0.0018 -0.0007 -0.0023 -0.0009
    15. (0.01951) RY*( 1) O   1           s(  0.02%)p99.99( 98.53%)d78.24(  1.43%)
                                                  f 1.09(  0.02%)
                                            0.0000 -0.0003  0.0118  0.0065 -0.0010
                                            0.0004 -0.0014 -0.0005  0.0001 -0.0058
                                            0.1877  0.0063 -0.0039 -0.0331  0.9735
                                            0.0294 -0.0160  0.0196 -0.0028 -0.0006
                                            0.0970 -0.0143 -0.0057 -0.0568  0.0115
                                            0.0024  0.0111 -0.0022 -0.0011  0.0271
                                           -0.0057 -0.0039 -0.0072  0.0085  0.0006
                                            0.0004 -0.0049  0.0056 -0.0032  0.0022
                                           -0.0012 -0.0010  0.0008 -0.0004 -0.0002
                                            0.0000
    16. (0.01513) RY*( 2) O   1           s( 20.51%)p 3.75( 76.89%)d 0.12(  2.52%)
                                                  f 0.00(  0.08%)
                                            0.0000 -0.0095  0.4527  0.0038  0.0011
                                            0.0074 -0.4756 -0.0134  0.0061 -0.0087
                                            0.7219  0.0102 -0.0104  0.0011 -0.1448
                                           -0.0041  0.0043  0.1515 -0.0162 -0.0012
                                           -0.0340  0.0046  0.0025  0.0133 -0.0030
                                            0.0003 -0.0041  0.0031  0.0035  0.0217
                                           -0.0106 -0.0036 -0.0020 -0.0002  0.0018
                                           -0.0011  0.0030  0.0012 -0.0043  0.0010
                                            0.0064 -0.0043  0.0207 -0.0125  0.0116
                                           -0.0039
    17. (0.00701) RY*( 3) O   1           s(  1.80%)p40.24( 72.30%)d14.15( 25.43%)
                                                  f 0.26(  0.47%)
                                           -0.0000 -0.0005  0.1262 -0.0426  0.0153
                                           -0.0597 -0.6942 -0.0413  0.0222 -0.0357
                                           -0.4752 -0.0215  0.0017  0.0053  0.0876
                                            0.0068 -0.0083 -0.2058 -0.0095 -0.0027
                                           -0.0136 -0.0003 -0.0013 -0.0097  0.0070
                                            0.0074  0.4549  0.0434  0.0258  0.0441
                                            0.0065  0.0074  0.0044 -0.0002 -0.0286
                                            0.0149 -0.0195  0.0089  0.0060 -0.0020
                                           -0.0031  0.0002  0.0228 -0.0157 -0.0434
                                            0.0220
    18. (0.00621) RY*( 4) O   1           s(  7.12%)p 0.33(  2.32%)d12.57( 89.53%)
                                                  f 0.14(  1.03%)
                                           -0.0000  0.0105  0.2665  0.0086  0.0038
                                            0.0085  0.1409  0.0083 -0.0079  0.0206
                                            0.0487 -0.0007 -0.0083 -0.0085 -0.0126
                                            0.0023 -0.0012 -0.6433 -0.0195  0.0017
                                           -0.2641 -0.0185 -0.0067 -0.5468 -0.0254
                                            0.0020 -0.1405 -0.0019  0.0001  0.3017
                                            0.0239  0.0078 -0.0185  0.0116 -0.0003
                                            0.0054 -0.0066  0.0026 -0.0595  0.0325
                                           -0.0116  0.0049 -0.0582  0.0234 -0.0298
                                            0.0123
    19. (0.00615) RY*( 5) O   1           s(  6.05%)p 0.01(  0.08%)d15.35( 92.86%)
                                                  f 0.17(  1.01%)
                                           -0.0000  0.0097  0.2457 -0.0021  0.0046
                                           -0.0050  0.0220 -0.0010 -0.0025  0.0150
                                           -0.0063 -0.0059  0.0002 -0.0004 -0.0026
                                           -0.0026 -0.0018 -0.5526 -0.0136  0.0032
                                            0.5020  0.0258  0.0056  0.5443  0.0348
                                            0.0064 -0.2531 -0.0080  0.0026 -0.0930
                                            0.0011  0.0078  0.0010  0.0001 -0.0066
                                            0.0075  0.0384 -0.0222  0.0588 -0.0284
                                           -0.0169  0.0092 -0.0531  0.0200 -0.0128
                                            0.0031
    20. (0.00590) RY*( 6) O   1           s(  0.05%)p32.65(  1.58%)d99.99( 97.52%)
                                                  f17.75(  0.86%)
                                           -0.0000  0.0009  0.0219  0.0000  0.0005
                                            0.0018  0.0146  0.0005 -0.0008 -0.0076
                                           -0.0237 -0.0012 -0.0047 -0.0388 -0.1154
                                           -0.0079 -0.0039  0.1789  0.0121  0.0025
                                            0.8023  0.0586  0.0150 -0.4952 -0.0338
                                           -0.0005  0.0886  0.0070 -0.0003  0.2029
                                            0.0154  0.0013 -0.0627  0.0327  0.0147
                                           -0.0072 -0.0243  0.0131  0.0271 -0.0139
                                           -0.0341  0.0158  0.0097 -0.0046  0.0077
                                           -0.0036
    21. (0.00569) RY*( 7) O   1           s(  7.48%)p 0.66(  4.92%)d11.63( 87.00%)
                                                  f 0.08(  0.60%)
                                           -0.0000  0.0214  0.2725 -0.0088  0.0043
                                            0.0330  0.1490  0.0094 -0.0046 -0.0377
                                           -0.1530 -0.0160 -0.0091  0.0067  0.0250
                                            0.0011 -0.0001  0.2501  0.0162  0.0022
                                           -0.0676 -0.0052 -0.0017  0.3411  0.0308
                                            0.0038  0.0263  0.0037 -0.0026  0.8241
                                            0.0723  0.0081  0.0249 -0.0126  0.0466
                                           -0.0219 -0.0393  0.0204  0.0139 -0.0070
                                            0.0163 -0.0078 -0.0002 -0.0002  0.0034
                                            0.0003
    22. (0.00327) RY*( 8) O   1           s( 14.78%)p 1.50( 22.19%)d 4.20( 62.02%)
                                                  f 0.07(  1.01%)
                                            0.0000 -0.0056  0.3844 -0.0024  0.0043
                                            0.0307 -0.1913 -0.0047 -0.0110  0.0281
                                           -0.4150 -0.0409 -0.0580 -0.0051  0.0771
                                            0.0109 -0.0072  0.3037  0.0342 -0.0093
                                           -0.0523 -0.0076 -0.0017 -0.1567 -0.0078
                                            0.0187 -0.6781 -0.0536  0.0556 -0.1799
                                           -0.0244  0.0134 -0.0175  0.0166  0.0196
                                           -0.0116  0.0273 -0.0220 -0.0273  0.0185
                                            0.0070 -0.0081 -0.0066 -0.0110  0.0733
                                           -0.0326
    23. (0.00228) RY*( 9) O   1           s( 40.98%)p 0.54( 21.96%)d 0.89( 36.48%)
                                                  f 0.01(  0.58%)
                                            0.0000 -0.0053  0.6383 -0.0120 -0.0472
                                           -0.0180  0.4477  0.0316 -0.0070 -0.0059
                                           -0.1143 -0.0518 -0.0411 -0.0002  0.0179
                                            0.0060 -0.0022  0.1089  0.0260  0.0183
                                           -0.0230 -0.0063 -0.0036 -0.0171 -0.0038
                                            0.0073  0.4517  0.1097 -0.0515 -0.3462
                                           -0.1089  0.0243 -0.0098  0.0082 -0.0159
                                            0.0383  0.0076 -0.0047 -0.0053  0.0076
                                            0.0072 -0.0019  0.0380 -0.0458 -0.0106
                                           -0.0034
    24. (0.00071) RY*(10) O   1           s( 44.39%)p 1.05( 46.48%)d 0.17(  7.70%)
                                                  f 0.03(  1.44%)
                                            0.0000 -0.0050 -0.0370  0.6613 -0.0721
                                            0.0004 -0.0392  0.0906 -0.1082 -0.0016
                                            0.0082 -0.6642 -0.0399 -0.0026 -0.0032
                                            0.0086  0.0211 -0.0170  0.1122  0.1323
                                            0.0035  0.0193  0.0086  0.0122  0.0349
                                           -0.0242  0.0128 -0.0180 -0.0606  0.0214
                                           -0.0985 -0.1728 -0.0574  0.0040  0.0088
                                           -0.0019  0.0079  0.0298 -0.0642  0.0059
                                            0.0264 -0.0042 -0.0055  0.0444  0.0218
                                            0.0521
    25. (0.00056) RY*(11) O   1           s(  0.14%)p99.99( 60.22%)d99.99( 36.76%)
                                                  f20.51(  2.88%)
                                            0.0000 -0.0004 -0.0082  0.0357  0.0077
                                           -0.0005 -0.0015  0.0199 -0.0035  0.0010
                                            0.0005  0.1082 -0.0165  0.0019 -0.0406
                                            0.7668  0.0139  0.0022 -0.0436 -0.0061
                                            0.0211 -0.2412 -0.0632 -0.0154  0.5149
                                            0.0937  0.0077 -0.0865 -0.0234  0.0064
                                           -0.1398 -0.0348 -0.1270  0.0306  0.0175
                                            0.0011 -0.0707  0.0199 -0.0632  0.0042
                                           -0.0429 -0.0054  0.0038  0.0064 -0.0088
                                            0.0057
    26. (0.00048) RY*(12) O   1           s(  4.85%)p 3.82( 18.53%)d12.05( 58.47%)
                                                  f 3.74( 18.15%)
                                           -0.0000  0.0042 -0.0011  0.2024  0.0867
                                            0.0053  0.0098 -0.3161 -0.0357 -0.0052
                                           -0.0297  0.2688 -0.0213 -0.0012  0.0004
                                           -0.1015 -0.0098 -0.0338 -0.3124  0.0362
                                            0.0087  0.0305 -0.0083  0.0225 -0.1452
                                           -0.0485 -0.0036 -0.1577 -0.0112  0.0637
                                           -0.6345 -0.1673 -0.0390 -0.0030  0.1706
                                           -0.0101 -0.0170  0.0109 -0.0821 -0.0005
                                            0.0896 -0.0036  0.3490  0.0039  0.1167
                                            0.0118
    27. (0.00046) RY*(13) O   1           s(  0.12%)p89.19( 10.82%)d77.43(  9.39%)
                                                  f99.99( 79.66%)
                                            0.0000  0.0001  0.0011  0.0339  0.0081
                                            0.0010  0.0011 -0.0184 -0.0049 -0.0002
                                           -0.0034  0.0419  0.0109  0.0022 -0.0016
                                            0.3145  0.0840 -0.0032  0.0085  0.0083
                                            0.0135  0.1903  0.0064 -0.0202 -0.2361
                                            0.0094  0.0045  0.0233 -0.0021  0.0136
                                            0.0022 -0.0185  0.1609  0.0082 -0.2030
                                            0.0015  0.1309  0.0034  0.1660  0.0002
                                            0.8131 -0.0029 -0.1442  0.0007  0.0536
                                            0.0018
    28. (0.00044) RY*(14) O   1           s(  0.13%)p 8.00(  1.03%)d76.62(  9.82%)
                                                  f99.99( 89.02%)
                                           -0.0000  0.0006 -0.0030  0.0355  0.0038
                                           -0.0020 -0.0033 -0.0351 -0.0146  0.0002
                                           -0.0082  0.0479  0.0008  0.0020 -0.0019
                                           -0.0788 -0.0149  0.0428 -0.0344 -0.0425
                                            0.0068 -0.1243 -0.0065 -0.0312  0.1209
                                            0.0420  0.0303 -0.0707 -0.0303  0.0702
                                           -0.2100 -0.0682  0.2159 -0.0009 -0.3721
                                           -0.0059  0.7761  0.0183  0.0596 -0.0001
                                           -0.2227  0.0004 -0.2212  0.0040  0.0193
                                            0.0060
    29. (0.00044) RY*(15) O   1           s(  0.03%)p60.37(  1.59%)d99.99(  9.45%)
                                                  f99.99( 88.94%)
                                           -0.0000  0.0009 -0.0030  0.0154  0.0041
                                           -0.0018 -0.0017 -0.0247 -0.0115 -0.0012
                                           -0.0077  0.1106  0.0024 -0.0031  0.0033
                                            0.0517  0.0110  0.0321  0.0109 -0.0330
                                           -0.0190  0.1549  0.0193  0.0787 -0.2272
                                           -0.0873  0.0052  0.0190 -0.0059  0.0224
                                           -0.0314 -0.0141 -0.7371 -0.0111 -0.3631
                                           -0.0041  0.0391  0.0076 -0.3890 -0.0097
                                           -0.0344 -0.0012 -0.2285  0.0042 -0.0871
                                            0.0019
    30. (0.00041) RY*(16) O   1           s(  1.04%)p36.64( 38.17%)d10.47( 10.91%)
                                                  f47.87( 49.88%)
                                           -0.0000 -0.0012 -0.0006  0.0781  0.0657
                                           -0.0104 -0.0400  0.5447  0.0077 -0.0064
                                           -0.0140  0.2558 -0.0267 -0.0003  0.0060
                                           -0.1258 -0.0316 -0.0368  0.1840  0.0567
                                           -0.0306  0.0898  0.0415 -0.0017  0.0902
                                           -0.0064  0.0704 -0.1622 -0.0622  0.0062
                                           -0.1282 -0.0127 -0.1919 -0.0165  0.2027
                                            0.0384  0.0191  0.0160  0.1824  0.0096
                                            0.0269  0.0075 -0.2109 -0.0192  0.5816
                                            0.0348
    31. (0.00041) RY*(17) O   1           s(  0.06%)p99.99(  8.70%)d99.99( 15.01%)
                                                  f99.99( 76.23%)
                                            0.0000 -0.0010  0.0010  0.0134  0.0210
                                           -0.0041 -0.0202  0.2769  0.0297 -0.0013
                                           -0.0072  0.0834  0.0176  0.0012 -0.0073
                                            0.0295  0.0274 -0.0004  0.0654 -0.0071
                                            0.0845 -0.2591 -0.1169  0.0343 -0.2061
                                           -0.0218  0.0353 -0.0993 -0.0070 -0.0134
                                            0.0456  0.0173  0.3044  0.0146  0.2598
                                            0.0294  0.1251  0.0123 -0.7505 -0.0498
                                            0.1204  0.0089 -0.0587 -0.0085 -0.0378
                                           -0.0061
    32. (0.00042) RY*(18) O   1           s(  0.05%)p99.99( 24.88%)d99.99( 38.34%)
                                                  f99.99( 36.73%)
                                            0.0000 -0.0007  0.0045  0.0227 -0.0017
                                            0.0011 -0.0027  0.0469  0.0194  0.0018
                                           -0.0024  0.0027  0.0502  0.0092  0.0082
                                            0.4646  0.1663 -0.0140  0.1042  0.0073
                                           -0.0459  0.3336  0.0487  0.0232 -0.4999
                                            0.0325  0.0094 -0.0080  0.0094  0.0022
                                            0.0685 -0.0101  0.0145  0.0062  0.3034
                                            0.0183  0.2678  0.0107  0.1502 -0.0012
                                           -0.3934 -0.0141  0.1576  0.0023 -0.0204
                                           -0.0050
    33. (0.00040) RY*(19) O   1           s(  0.83%)p 4.87(  4.04%)d13.87( 11.51%)
                                                  f99.99( 83.62%)
                                           -0.0000  0.0006 -0.0056  0.0769  0.0484
                                           -0.0036 -0.0047  0.0035 -0.0638 -0.0044
                                           -0.0031  0.0644 -0.0607  0.0038 -0.0010
                                            0.1494  0.0779 -0.0008 -0.0819  0.0245
                                            0.0143  0.0743 -0.0309  0.0164 -0.1858
                                           -0.0139 -0.0237  0.2343 -0.0504  0.0148
                                           -0.0821 -0.0342  0.3935  0.0292 -0.4740
                                           -0.0312 -0.4175 -0.0285 -0.1292 -0.0108
                                           -0.3012 -0.0190 -0.1262 -0.0109  0.3932
                                            0.0350
    34. (0.00037) RY*(20) O   1           s(  0.07%)p12.84(  0.93%)d99.99( 85.70%)
                                                  f99.99( 13.29%)
                                            0.0000 -0.0005 -0.0046  0.0140  0.0226
                                           -0.0002 -0.0026  0.0141 -0.0012 -0.0011
                                            0.0003 -0.0654 -0.0280 -0.0028 -0.0096
                                            0.0594 -0.0206 -0.0012 -0.1639  0.0235
                                            0.0226 -0.7842  0.0852  0.0173 -0.4348
                                            0.0558  0.0025  0.0787 -0.0092  0.0030
                                            0.0879 -0.0182 -0.1968 -0.0211 -0.0082
                                            0.0007 -0.0009 -0.0031  0.2681  0.0297
                                            0.0083 -0.0044 -0.0089 -0.0031  0.1429
                                            0.0184
    35. (0.00034) RY*(21) O   1           s(  0.70%)p34.67( 24.42%)d99.99( 71.01%)
                                                  f 5.50(  3.87%)
                                           -0.0000  0.0030 -0.0062  0.0651 -0.0525
                                           -0.0008 -0.0026 -0.4269 -0.1395  0.0055
                                            0.0149  0.1736  0.1086 -0.0013 -0.0041
                                           -0.0171 -0.0033 -0.0390  0.8060 -0.0756
                                            0.0083 -0.1703  0.0200  0.0032  0.0034
                                           -0.0039 -0.0018  0.1447 -0.0242  0.0113
                                           -0.0382 -0.0237 -0.0074 -0.0018  0.0221
                                           -0.0062  0.0117  0.0015 -0.0409 -0.0095
                                            0.0298  0.0074  0.0836  0.0429  0.1582
                                            0.0382
    36. (0.00034) RY*(22) O   1           s(  0.73%)p39.36( 28.54%)d37.03( 26.85%)
                                                  f60.51( 43.88%)
                                           -0.0000  0.0002 -0.0086  0.0325  0.0783
                                           -0.0024 -0.0248  0.4857  0.1346 -0.0026
                                            0.0001  0.0837  0.1512 -0.0003 -0.0015
                                           -0.0188 -0.0247 -0.0024  0.3005 -0.0307
                                            0.0031 -0.0929  0.0102  0.0015 -0.1142
                                            0.0139 -0.0645 -0.0163  0.0419  0.0471
                                           -0.3814  0.0373  0.0591  0.0161 -0.2883
                                           -0.0232 -0.1614 -0.0544  0.1594  0.0400
                                           -0.0153 -0.0003  0.2417  0.0089 -0.4690
                                           -0.1290
    37. (0.00030) RY*(23) O   1           s(  4.63%)p 1.54(  7.12%)d 1.39(  6.45%)
                                                  f17.67( 81.79%)
                                           -0.0000  0.0057  0.0264  0.1811  0.1129
                                            0.0047 -0.0027 -0.1855 -0.0866 -0.0071
                                           -0.0107  0.1240  0.1170  0.0008  0.0002
                                           -0.0087 -0.0013  0.0539  0.0152 -0.0196
                                           -0.0088 -0.0252  0.0157 -0.0025 -0.0910
                                           -0.0014  0.0342 -0.1594  0.0293 -0.0270
                                           -0.1400 -0.0633  0.1079  0.0379  0.2461
                                            0.0685 -0.2168 -0.0809  0.1463  0.0498
                                           -0.0941 -0.0258 -0.7104 -0.1906 -0.3183
                                           -0.1017
    38. (0.00025) RY*(24) O   1           s( 25.27%)p 1.13( 28.64%)d 1.45( 36.58%)
                                                  f 0.38(  9.51%)
                                           -0.0000  0.0008  0.0533  0.4844  0.1232
                                           -0.0025 -0.0091  0.0876 -0.0668  0.0009
                                           -0.0474  0.5107 -0.0831 -0.0003  0.0052
                                           -0.0632  0.0120  0.0283 -0.0996  0.0993
                                           -0.0036 -0.0031  0.0091 -0.0117  0.0867
                                           -0.0403 -0.0278  0.2700 -0.1691 -0.0517
                                            0.4074 -0.2549  0.0193 -0.0052 -0.0169
                                            0.0061  0.0564  0.1217  0.0584  0.0131
                                           -0.0050  0.0014  0.1152  0.1162 -0.2143
                                           -0.0078
    39. (0.00022) RY*(25) O   1           s( 28.70%)p 0.22(  6.25%)d 1.92( 55.01%)
                                                  f 0.35( 10.05%)
                                            0.0000  0.0006 -0.0733 -0.1133  0.5184
                                            0.0104 -0.0245  0.0458 -0.0368  0.0042
                                            0.0227 -0.1537 -0.1818 -0.0001 -0.0029
                                            0.0140 -0.0310 -0.0009 -0.0028 -0.0634
                                           -0.0016  0.0281 -0.0329  0.0001  0.0656
                                           -0.0333 -0.0677  0.6690 -0.0855  0.0377
                                           -0.2439  0.1354 -0.0605 -0.0230  0.2079
                                            0.1237  0.1189  0.0412 -0.0286 -0.0117
                                            0.0445  0.0289 -0.0823 -0.0894 -0.0266
                                           -0.0517
    40. (0.00014) RY*(26) O   1           s( 56.10%)p 0.12(  6.49%)d 0.54( 30.46%)
                                                  f 0.12(  6.95%)
                                           -0.0000 -0.0005  0.0472  0.0807  0.7432
                                           -0.0046  0.0636 -0.0971  0.1096 -0.0024
                                            0.0129 -0.0795 -0.1768  0.0008 -0.0026
                                            0.0147 -0.0373 -0.0073  0.1048 -0.1592
                                           -0.0008  0.0002 -0.0326  0.0030 -0.0139
                                           -0.0184  0.0868 -0.4039  0.2242 -0.0458
                                            0.2087 -0.0066  0.0116  0.0280 -0.1241
                                           -0.1859 -0.0175 -0.0434  0.0010  0.0043
                                           -0.0164 -0.0297  0.0962  0.0462  0.0584
                                            0.0207
    41. (0.00007) RY*(27) O   1           s(  0.12%)p 3.21(  0.39%)d67.87(  8.31%)
                                                  f99.99( 91.18%)
    42. (0.00007) RY*(28) O   1           s(  0.47%)p 3.11(  1.47%)d28.81( 13.59%)
                                                  f99.99( 84.47%)
    43. (0.00007) RY*(29) O   1           s(  0.05%)p 1.03(  0.05%)d43.15(  2.12%)
                                                  f99.99( 97.78%)
    44. (0.00007) RY*(30) O   1           s(  0.02%)p24.28(  0.40%)d99.99(  6.13%)
                                                  f99.99( 93.45%)
    45. (0.00007) RY*(31) O   1           s(  0.80%)p 4.53(  3.63%)d29.98( 23.99%)
                                                  f89.47( 71.59%)
    46. (0.00006) RY*(32) O   1           s(  0.19%)p 6.51(  1.26%)d65.03( 12.63%)
                                                  f99.99( 85.91%)
    47. (0.00007) RY*(33) O   1           s(  1.02%)p 9.02(  9.17%)d 3.43(  3.48%)
                                                  f84.95( 86.33%)
    48. (0.00005) RY*(34) O   1           s(  0.07%)p53.88(  3.77%)d99.99( 90.09%)
                                                  f86.95(  6.08%)
    49. (0.00004) RY*(35) O   1           s(  5.32%)p 2.88( 15.30%)d11.93( 63.46%)
                                                  f 2.99( 15.92%)
    50. (0.00004) RY*(36) O   1           s(  0.11%)p 4.58(  0.48%)d99.99( 78.90%)
                                                  f99.99( 20.51%)
    51. (0.00003) RY*(37) O   1           s(  8.42%)p 2.64( 22.22%)d 5.61( 47.20%)
                                                  f 2.63( 22.17%)
    52. (0.00001) RY*(38) O   1           s(  3.08%)p 0.39(  1.19%)d29.25( 89.97%)
                                                  f 1.87(  5.76%)
    53. (0.00001) RY*(39) O   1           s(  6.33%)p 7.40( 46.88%)d 5.62( 35.62%)
                                                  f 1.76( 11.16%)
    54. (0.00001) RY*(40) O   1           s(  7.16%)p11.27( 80.67%)d 0.95(  6.78%)
                                                  f 0.75(  5.40%)
    55. (-.00004) RY*(41) O   1           s(  0.32%)p99.99( 96.64%)d 7.42(  2.34%)
                                                  f 2.23(  0.70%)
    56. (0.00515) RY*( 1) H   2           s(  0.12%)p99.99( 99.00%)d 7.05(  0.88%)
                                           -0.0030 -0.0162  0.0303  0.0073  0.0453
                                           -0.0023 -0.0109  0.1591 -0.0073 -0.0018
                                            0.9804 -0.0345  0.0002 -0.0162 -0.0036
                                           -0.0826 -0.0237  0.0216  0.0206 -0.0079
                                           -0.0107  0.0008  0.0046
    57. (0.00228) RY*( 2) H   2           s(  3.39%)p28.15( 95.34%)d 0.38(  1.27%)
                                            0.0179  0.1437 -0.0438  0.1048 -0.5901
                                           -0.0338 -0.0465  0.7604 -0.1121 -0.0437
                                           -0.0944  0.0113  0.0077 -0.0512 -0.0205
                                            0.0041  0.0032  0.0188  0.0172  0.0854
                                            0.0376 -0.0170  0.0013
    58. (0.00189) RY*( 3) H   2           s( 78.76%)p 0.26( 20.27%)d 0.01(  0.97%)
[...]
                                            0.0022  0.0256 -0.0029
   120. (0.00389) RY*( 2) H   4           s(  8.33%)p10.94( 91.11%)d 0.07(  0.56%)
                                           -0.0079  0.2696  0.1004  0.0222  0.2431
                                            0.0190 -0.0088 -0.5910  0.0827 -0.0102
                                           -0.6907 -0.1349  0.0085 -0.0264 -0.0025
                                           -0.0065 -0.0038  0.0359 -0.0424  0.0101
                                            0.0322 -0.0105  0.0228
   121. (0.00350) RY*( 3) H   4           s(  2.91%)p33.28( 96.68%)d 0.14(  0.41%)
                                           -0.0166  0.1039  0.1318  0.0242  0.5541
                                            0.0219 -0.0089 -0.4689  0.0852 -0.0217
                                            0.6473  0.1118 -0.0120 -0.0471  0.0161
                                            0.0022  0.0003 -0.0125  0.0191  0.0143
                                            0.0100 -0.0281  0.0020
   122. (0.00264) RY*( 4) H   4           s( 17.46%)p 4.67( 81.50%)d 0.06(  1.04%)
                                           -0.0028  0.3810  0.1694  0.0266 -0.7535
                                            0.0320 -0.0076 -0.3751  0.2051  0.0010
                                            0.2466  0.0442 -0.0262  0.0574 -0.0463
                                            0.0171 -0.0018  0.0065 -0.0001  0.0261
                                            0.0394  0.0474  0.0126
   123. (0.00046) RY*( 5) H   4           s( 14.13%)p 5.51( 77.92%)d 0.56(  7.95%)
                                           -0.0023 -0.0530  0.3053 -0.2128  0.0326
                                            0.8194 -0.1092  0.1194  0.0800 -0.0301
                                           -0.0804  0.2547 -0.0437 -0.0618  0.0540
                                            0.0170 -0.0136  0.0590  0.0234  0.2355
                                            0.0452  0.0877  0.0553
   124. (0.00039) RY*( 6) H   4           s(  2.96%)p29.43( 87.25%)d 3.30(  9.79%)
                                           -0.0033 -0.0741  0.1077  0.1120  0.0537
                                           -0.3622 -0.0231  0.1042  0.4476 -0.1801
                                           -0.1551  0.6857 -0.0019 -0.0943 -0.1198
                                            0.0047  0.0352  0.1684  0.0800  0.0306
                                            0.1120  0.1540  0.0381
   125. (0.00029) RY*( 7) H   4           s(  0.76%)p82.27( 62.77%)d47.81( 36.47%)
                                            0.0040  0.0857 -0.0000  0.0163 -0.0286
                                            0.0526  0.1134 -0.0820 -0.2812  0.5196
                                           -0.0676  0.4971  0.0610  0.1429  0.2025
                                           -0.0311  0.0097  0.1392  0.0094 -0.2923
                                           -0.3174 -0.1821 -0.2518
   126. (0.00021) RY*( 8) H   4           s(  3.96%)p 4.04( 15.97%)d20.24( 80.07%)
                                            0.0035  0.0055  0.1959 -0.0340 -0.0044
                                           -0.0876 -0.0395  0.0226 -0.1815 -0.0073
                                            0.0724 -0.1990  0.2686 -0.1522  0.0387
                                           -0.0799 -0.0071  0.7601 -0.1572 -0.0055
                                           -0.0795  0.4006 -0.0174
   127. (0.00019) RY*( 9) H   4           s( 11.31%)p 5.39( 60.97%)d 2.45( 27.71%)
                                           -0.0166 -0.0744  0.3165 -0.0845  0.0431
                                           -0.0356 -0.0697  0.1576  0.5345  0.4488
                                            0.0091 -0.2783 -0.1105 -0.2463  0.0362
                                           -0.2827 -0.0242 -0.1011 -0.0972 -0.3304
                                           -0.0680 -0.0187 -0.0292
   128. (0.00018) RY*(10) H   4           s(  5.72%)p 3.90( 22.31%)d12.58( 71.97%)
                                            0.0083  0.0515 -0.1625  0.1675 -0.1036
                                            0.0545 -0.3094 -0.0672 -0.2679 -0.1379
                                            0.0020  0.1342  0.0169 -0.6481  0.0123
                                           -0.4827 -0.0124 -0.0358  0.0771 -0.0557
                                            0.0787 -0.2215  0.0275
   129. (0.00013) RY*(11) H   4           s(  0.68%)p11.42(  7.79%)d99.99( 91.53%)
                                            0.0001 -0.0033  0.0741  0.0363 -0.0364
                                           -0.0609 -0.2224  0.0114 -0.0599  0.1066
                                           -0.0042 -0.0068 -0.0909 -0.4881  0.0375
                                            0.8025  0.0216 -0.0196 -0.1281 -0.0596
                                           -0.0414 -0.0886 -0.0340
   130. (0.00014) RY*(12) H   4           s( 10.19%)p 1.98( 20.14%)d 6.84( 69.67%)
                                            0.0081 -0.0106  0.3003 -0.1074 -0.0091
                                           -0.2009  0.0164 -0.0419 -0.3367  0.0161
                                           -0.0368  0.0872 -0.1908 -0.1168  0.0837
                                           -0.1001 -0.0200 -0.4724  0.0207  0.1105
                                           -0.1654  0.6256 -0.1054
   131. (0.00010) RY*(13) H   4           s(  0.94%)p41.46( 38.77%)d64.48( 60.30%)
                                            0.0036 -0.0083  0.0940  0.0207 -0.0043
                                           -0.0847  0.0999  0.0229 -0.1208 -0.0680
                                            0.0073  0.0903 -0.5853  0.0670  0.0375
                                           -0.1187 -0.2054  0.1457 -0.6711  0.1305
                                            0.0685 -0.2004  0.0855
   132. (0.00011) RY*(14) H   4           s( 11.58%)p 1.19( 13.79%)d 6.45( 74.63%)
                                           -0.0027 -0.0377  0.2404 -0.2378 -0.0331
                                           -0.2586  0.1427  0.0232  0.0345  0.0941
                                           -0.0107 -0.0547  0.1894 -0.1402  0.0825
                                           -0.0683  0.0386  0.0099  0.0976  0.6851
                                           -0.1814 -0.4057 -0.1930
   133. (0.00009) RY*(15) H   4           s(  0.22%)p99.99( 31.49%)d99.99( 68.30%)
   134. (0.00005) RY*(16) H   4           s(  0.52%)p 3.17(  1.64%)d99.99( 97.85%)
   135. (0.00005) RY*(17) H   4           s( 58.45%)p 0.25( 14.51%)d 0.46( 27.04%)
   136. (0.00004) RY*(18) H   4           s( 49.85%)p 0.44( 21.89%)d 0.57( 28.26%)
   137. (0.00005) RY*(19) H   4           s(  1.21%)p 2.69(  3.25%)d79.08( 95.54%)
   138. (0.00003) RY*(20) H   4           s(  2.76%)p13.08( 36.15%)d22.11( 61.09%)
   139. (0.00003) RY*(21) H   4           s(  0.31%)p99.99( 46.18%)d99.99( 53.51%)
   140. (0.00003) RY*(22) H   4           s( 21.33%)p 2.01( 42.87%)d 1.68( 35.80%)
   141. (0.02155) BD*( 1) O   1 - H   2  
                ( 27.28%)   0.5223* O   1 s( 20.94%)p 3.75( 78.59%)d 0.02(  0.46%)
                                                  f 0.00(  0.01%)
                                           -0.0002 -0.4575  0.0054  0.0018  0.0023
                                           -0.8840  0.0322 -0.0093  0.0033 -0.0545
                                            0.0140 -0.0008  0.0033  0.0065 -0.0028
                                            0.0001 -0.0003  0.0185 -0.0031 -0.0007
                                           -0.0046  0.0009  0.0005  0.0013  0.0001
                                            0.0008 -0.0544  0.0040  0.0041  0.0348
                                           -0.0018  0.0003 -0.0001  0.0000  0.0096
                                           -0.0001  0.0002 -0.0000  0.0005 -0.0003
                                            0.0021 -0.0011 -0.0039 -0.0038 -0.0021
                                            0.0008
                ( 72.72%)  -0.8528* H   2 s( 99.88%)p 0.00(  0.12%)d 0.00(  0.00%)
                                           -0.9994 -0.0035  0.0001 -0.0002 -0.0187
                                           -0.0273  0.0049  0.0089  0.0037  0.0022
                                           -0.0038 -0.0012 -0.0003  0.0003 -0.0025
                                           -0.0001  0.0005  0.0009  0.0003  0.0013
                                           -0.0013  0.0008  0.0009
   142. (0.06685) BD*( 1) O   1 - H   4  
                ( 22.05%)   0.4695* O   1 s( 26.67%)p 2.73( 72.91%)d 0.02(  0.41%)
                                                  f 0.00(  0.01%)
                                            0.0003  0.5164 -0.0015 -0.0017 -0.0009
                                           -0.2135  0.0180 -0.0019  0.0014 -0.8113
                                            0.0133 -0.0064  0.0021  0.1575 -0.0016
                                            0.0015 -0.0014 -0.0036  0.0025  0.0013
                                            0.0007 -0.0006 -0.0005 -0.0219  0.0017
                                           -0.0001 -0.0506  0.0037  0.0008 -0.0316
                                            0.0020 -0.0014 -0.0038  0.0003  0.0017
                                            0.0001  0.0074 -0.0003 -0.0027 -0.0003
                                            0.0011  0.0004  0.0026  0.0015  0.0015
                                            0.0019
                ( 77.95%)  -0.8829* H   4 s( 99.90%)p 0.00(  0.10%)d 0.00(  0.00%)
                                            0.9991  0.0264  0.0009 -0.0004  0.0168
                                            0.0024  0.0011  0.0025  0.0234  0.0088
                                            0.0064 -0.0047 -0.0016 -0.0020 -0.0018
                                            0.0006  0.0004 -0.0004  0.0005  0.0031
                                           -0.0010 -0.0003 -0.0013


 NHO Directionality and "Bond Bending" (deviations from line of nuclear centers)

         [Thresholds for printing:  angular deviation  >  1.0 degree]
                                    hybrid p-character > 25.0%
                                    orbital occupancy  >  0.10e

                                Line of Centers        Hybrid 1              Hybrid 2
                                ---------------  -------------------   ------------------
                NBO               Theta   Phi    Theta   Phi    Dev    Theta   Phi    Dev
 ========================================================================================
     1. BD (   1) O   1 - H   2    90.0    0.0    90.2    2.5   2.6      --     --    --
     2. BD (   1) O   1 - H   4    80.0  258.3    79.3  256.3   2.1      --     --    --
     9. LP (   1) O   1             --     --     99.0  126.7   --       --     --    --
    10. LP (   2) O   1             --     --     11.0   91.2   --       --     --    --
    12. LP (   2)Cl   3             --     --    169.5   29.3   --       --     --    --
    13. LP (   3)Cl   3             --     --     97.8  167.0   --       --     --    --
    14. LP (   4)Cl   3             --     --     82.9   77.9   --       --     --    --


 Natural Bond Orbitals (Summary):

           NBO                  Occupancy  
 -----------------------------------------------
 Molecular unit  1  (H2O)
     1. BD (   1) O   1 - H   2          1.96570
     2. BD (   1) O   1 - H   4          1.96804
     3. CR (   1) O   1                  1.99967
     9. LP (   1) O   1                  1.96972
    10. LP (   2) O   1                  1.95954
    15. RY*(   1) O   1                  0.01951
    16. RY*(   2) O   1                  0.01513
    17. RY*(   3) O   1                  0.00701
    18. RY*(   4) O   1                  0.00621
    19. RY*(   5) O   1                  0.00615
    20. RY*(   6) O   1                  0.00590
    21. RY*(   7) O   1                  0.00569
    22. RY*(   8) O   1                  0.00327
    23. RY*(   9) O   1                  0.00228
    24. RY*(  10) O   1                  0.00071
    25. RY*(  11) O   1                  0.00056
    26. RY*(  12) O   1                  0.00048
    27. RY*(  13) O   1                  0.00046
    28. RY*(  14) O   1                  0.00044
    29. RY*(  15) O   1                  0.00044
    30. RY*(  16) O   1                  0.00041
    31. RY*(  17) O   1                  0.00041
    32. RY*(  18) O   1                  0.00042
    33. RY*(  19) O   1                  0.00040
    34. RY*(  20) O   1                  0.00037
    35. RY*(  21) O   1                  0.00034
    36. RY*(  22) O   1                  0.00034
    37. RY*(  23) O   1                  0.00030
    38. RY*(  24) O   1                  0.00025
    39. RY*(  25) O   1                  0.00022
    40. RY*(  26) O   1                  0.00014
    41. RY*(  27) O   1                  0.00007
    42. RY*(  28) O   1                  0.00007
    43. RY*(  29) O   1                  0.00007
    44. RY*(  30) O   1                  0.00007
    45. RY*(  31) O   1                  0.00007
    46. RY*(  32) O   1                  0.00006
    47. RY*(  33) O   1                  0.00007
    48. RY*(  34) O   1                  0.00005
    49. RY*(  35) O   1                  0.00004
    50. RY*(  36) O   1                  0.00004
    51. RY*(  37) O   1                  0.00003
    52. RY*(  38) O   1                  0.00001
    53. RY*(  39) O   1                  0.00001
    54. RY*(  40) O   1                  0.00001
    55. RY*(  41) O   1                 -0.00004
    56. RY*(   1) H   2                  0.00515
    57. RY*(   2) H   2                  0.00228
    58. RY*(   3) H   2                  0.00189
    59. RY*(   4) H   2                  0.00084
    60. RY*(   5) H   2                  0.00029
    61. RY*(   6) H   2                  0.00021
    62. RY*(   7) H   2                  0.00018
    63. RY*(   8) H   2                  0.00010
    64. RY*(   9) H   2                  0.00011
    65. RY*(  10) H   2                  0.00011
    66. RY*(  11) H   2                  0.00009
    67. RY*(  12) H   2                  0.00007
    68. RY*(  13) H   2                  0.00007
    69. RY*(  14) H   2                  0.00005
    70. RY*(  15) H   2                  0.00003
    71. RY*(  16) H   2                  0.00004
    72. RY*(  17) H   2                  0.00003
    73. RY*(  18) H   2                  0.00002
    74. RY*(  19) H   2                  0.00002
    75. RY*(  20) H   2                  0.00003
    76. RY*(  21) H   2                  0.00001
    77. RY*(  22) H   2                  0.00001
   119. RY*(   1) H   4                  0.00862
   120. RY*(   2) H   4                  0.00389
   121. RY*(   3) H   4                  0.00350
   122. RY*(   4) H   4                  0.00264
   123. RY*(   5) H   4                  0.00046
   124. RY*(   6) H   4                  0.00039
   125. RY*(   7) H   4                  0.00029
   126. RY*(   8) H   4                  0.00021
   127. RY*(   9) H   4                  0.00019
   128. RY*(  10) H   4                  0.00018
   129. RY*(  11) H   4                  0.00013
   130. RY*(  12) H   4                  0.00014
   131. RY*(  13) H   4                  0.00010
   132. RY*(  14) H   4                  0.00011
   133. RY*(  15) H   4                  0.00009
   134. RY*(  16) H   4                  0.00005
   135. RY*(  17) H   4                  0.00005
   136. RY*(  18) H   4                  0.00004
   137. RY*(  19) H   4                  0.00005
   138. RY*(  20) H   4                  0.00003
   139. RY*(  21) H   4                  0.00003
   140. RY*(  22) H   4                  0.00003
   141. BD*(   1) O   1 - H   2          0.02155
   142. BD*(   1) O   1 - H   4          0.06685
       -------------------------------
              Total Lewis    9.86267  ( 98.0152%)
        Valence non-Lewis    0.08841  (  0.8786%)
        Rydberg non-Lewis    0.11132  (  1.1063%)
       -------------------------------
            Total unit  1   10.06239  (100.0000%)
           Charge unit  1   -0.06239

 Molecular unit  2  (Cl)
     4. CR (   1)Cl   3                  2.00001
     5. CR (   2)Cl   3                  2.00000
     6. CR (   3)Cl   3                  2.00003
     7. CR (   4)Cl   3                  2.00002
     8. CR (   5)Cl   3                  2.00003
    11. LP (   1)Cl   3                  1.97913
    12. LP (   2)Cl   3                  1.95274
    13. LP (   3)Cl   3                  1.95252
    14. LP (   4)Cl   3                  1.90553
    78. RY*(   1)Cl   3                  0.01836
    79. RY*(   2)Cl   3                  0.01834
    80. RY*(   3)Cl   3                  0.01826
    81. RY*(   4)Cl   3                  0.01826
    82. RY*(   5)Cl   3                  0.01792
    83. RY*(   6)Cl   3                  0.01326
    84. RY*(   7)Cl   3                  0.01322
    85. RY*(   8)Cl   3                  0.01094
    86. RY*(   9)Cl   3                  0.00254
    87. RY*(  10)Cl   3                  0.00130
    88. RY*(  11)Cl   3                  0.00129
    89. RY*(  12)Cl   3                  0.00130
    90. RY*(  13)Cl   3                  0.00128
    91. RY*(  14)Cl   3                  0.00128
    92. RY*(  15)Cl   3                  0.00128
    93. RY*(  16)Cl   3                  0.00126
    94. RY*(  17)Cl   3                  0.00098
    95. RY*(  18)Cl   3                  0.00098
    96. RY*(  19)Cl   3                  0.00076
    97. RY*(  20)Cl   3                  0.00074
    98. RY*(  21)Cl   3                  0.00070
    99. RY*(  22)Cl   3                  0.00055
   100. RY*(  23)Cl   3                  0.00054
   101. RY*(  24)Cl   3                  0.00052
   102. RY*(  25)Cl   3                  0.00021
   103. RY*(  26)Cl   3                  0.00014
   104. RY*(  27)Cl   3                  0.00014
   105. RY*(  28)Cl   3                  0.00015
   106. RY*(  29)Cl   3                  0.00014
   107. RY*(  30)Cl   3                  0.00014
   108. RY*(  31)Cl   3                  0.00014
   109. RY*(  32)Cl   3                  0.00014
   110. RY*(  33)Cl   3                  0.00010
   111. RY*(  34)Cl   3                  0.00010
   112. RY*(  35)Cl   3                  0.00008
   113. RY*(  36)Cl   3                  0.00008
   114. RY*(  37)Cl   3                  0.00007
   115. RY*(  38)Cl   3                  0.00005
   116. RY*(  39)Cl   3                  0.00002
   117. RY*(  40)Cl   3                  0.00002
   118. RY*(  41)Cl   3                  0.00000
       -------------------------------
              Total Lewis   17.79000  ( 99.1771%)
        Valence non-Lewis    0.00000  (  0.0000%)
        Rydberg non-Lewis    0.14761  (  0.8229%)
       -------------------------------
            Total unit  2   17.93761  (100.0000%)
           Charge unit  2   -0.93761
 Leave Link  607 at Tue Oct 19 16:01:11 2021, MaxMem= 16106127360 cpu:              69.8 elap:               2.5
 (Enter /sw/contrib/gaussian/g16/B01/g16/l9999.exe)
 1\1\GINC-N2098\SP\RMP2-FC\Aug-CC-pVTZ\Cl1H2O1(1-)\CGAVINH\19-Oct-2021\
 0\\#p pop=NBO SP NoSymm mp2/aug-cc-pvtz density=current\\title\\-1,1\O
 \X,1,10.\H,1,0.96061628,2,90.\Cl,1,3.08954942,2,90.,3,101.71720655,0\H
 ,1,0.99095,2,80.,3,101.71720655,0\\Version=ES64L-G16RevB.01\HF=-535.64
 95128\MP2=-536.1328866\RMSD=5.473e-09\Dipole=0.771282,0.8950684,0.0666
 752\Quadrupole=9.8908367,-19.0994762,9.2086395,-5.5953632,-0.0473992,-
 0.1075915\PG=C01 [X(Cl1H2O1)]\\@


 ONLY THE DAY DAWNS TO WHICH YOU ARE AWAKE.

                                 -- THOREAU
 Job cpu time:       0 days  0 hours  3 minutes 42.0 seconds.
 Elapsed time:       0 days  0 hours  0 minutes 10.1 seconds.
 File lengths (MBytes):  RWF=     10 Int=      0 D2E=      0 Chk=      8 Scr=      1
 Normal termination of Gaussian 16 at Tue Oct 19 16:01:12 2021.
