 Entering Gaussian System, Link 0=g16
 Input=clhod_oop_s.gjf
 Output=clhod_oop_s.log
 Initial command:
 /sw/contrib/gaussian/g16/B01/g16/l1.exe "/scr/Gau-10881.inp" -scrdir="/scr/"
 Entering Link 1 = /sw/contrib/gaussian/g16/B01/g16/l1.exe PID=     10882.
  
 Copyright (c) 1988-2017, Gaussian, Inc.  All Rights Reserved.
  
 This is part of the Gaussian(R) 16 program.  It is based on
 the Gaussian(R) 09 system (copyright 2009, Gaussian, Inc.),
 the Gaussian(R) 03 system (copyright 2003, Gaussian, Inc.),
 the Gaussian(R) 98 system (copyright 1998, Gaussian, Inc.),
 the Gaussian(R) 94 system (copyright 1995, Gaussian, Inc.),
 the Gaussian 92(TM) system (copyright 1992, Gaussian, Inc.),
 the Gaussian 90(TM) system (copyright 1990, Gaussian, Inc.),
 the Gaussian 88(TM) system (copyright 1988, Gaussian, Inc.),
 the Gaussian 86(TM) system (copyright 1986, Carnegie Mellon
 University), and the Gaussian 82(TM) system (copyright 1983,
 Carnegie Mellon University). Gaussian is a federally registered
 trademark of Gaussian, Inc.
  
 This software contains proprietary and confidential information,
 including trade secrets, belonging to Gaussian, Inc.
  
 This software is provided under written license and may be
 used, copied, transmitted, or stored only in accord with that
 written license.
  
 The following legend is applicable only to US Government
 contracts under FAR:
  
                    RESTRICTED RIGHTS LEGEND
  
 Use, reproduction and disclosure by the US Government is
 subject to restrictions as set forth in subparagraphs (a)
 and (c) of the Commercial Computer Software - Restricted
 Rights clause in FAR 52.227-19.
  
 Gaussian, Inc.
 340 Quinnipiac St., Bldg. 40, Wallingford CT 06492
  
  
 ---------------------------------------------------------------
 Warning -- This program may not be used in any manner that
 competes with the business of Gaussian, Inc. or will provide
 assistance to any competitor of Gaussian, Inc.  The licensee
 of this program is prohibited from giving any competitor of
 Gaussian, Inc. access to this program.  By using this program,
 the user acknowledges that Gaussian, Inc. is engaged in the
 business of creating and licensing software in the field of
 computational chemistry and represents and warrants to the
 licensee that it is not a competitor of Gaussian, Inc. and that
 it will not use this program in any manner prohibited above.
 ---------------------------------------------------------------
  

 Cite this work as:
 Gaussian 16, Revision B.01,
 M. J. Frisch, G. W. Trucks, H. B. Schlegel, G. E. Scuseria, 
 M. A. Robb, J. R. Cheeseman, G. Scalmani, V. Barone, 
 G. A. Petersson, H. Nakatsuji, X. Li, M. Caricato, A. V. Marenich, 
 J. Bloino, B. G. Janesko, R. Gomperts, B. Mennucci, H. P. Hratchian, 
 J. V. Ortiz, A. F. Izmaylov, J. L. Sonnenberg, D. Williams-Young, 
 F. Ding, F. Lipparini, F. Egidi, J. Goings, B. Peng, A. Petrone, 
 T. Henderson, D. Ranasinghe, V. G. Zakrzewski, J. Gao, N. Rega, 
 G. Zheng, W. Liang, M. Hada, M. Ehara, K. Toyota, R. Fukuda, 
 J. Hasegawa, M. Ishida, T. Nakajima, Y. Honda, O. Kitao, H. Nakai, 
 T. Vreven, K. Throssell, J. A. Montgomery, Jr., J. E. Peralta, 
 F. Ogliaro, M. J. Bearpark, J. J. Heyd, E. N. Brothers, K. N. Kudin, 
 V. N. Staroverov, T. A. Keith, R. Kobayashi, J. Normand, 
 K. Raghavachari, A. P. Rendell, J. C. Burant, S. S. Iyengar, 
 J. Tomasi, M. Cossi, J. M. Millam, M. Klene, C. Adamo, R. Cammi, 
 J. W. Ochterski, R. L. Martin, K. Morokuma, O. Farkas, 
 J. B. Foresman, and D. J. Fox, Gaussian, Inc., Wallingford CT, 2016.
 
 ******************************************
 Gaussian 16:  ES64L-G16RevB.01 20-Dec-2017
                19-Oct-2021 
 ******************************************
 %nproc=28
 Will use up to   28 processors via shared memory.
 %mem=120GB
 %chk=/gscratch/ilahie/mccoygrp/coire_hocl/oop_s_rOH_opt/clhod/clhod_oop_s.chk
 -------------------------------------------------
 #p opt=(z-matrix) mp2/aug-cc-pvtz density=current
 -------------------------------------------------
 1/10=7,18=40,38=1/1,3;
 2/12=2,17=6,18=5,29=3,40=1/2;
 3/5=16,6=1,7=10,11=9,25=1,30=1,71=1/1,2,3;
 4//1;
 5/5=2,38=5/2;
 8/6=4,10=1/1;
 9/15=2,16=-3/6;
 10/5=1/2;
 6/7=2,8=2,9=2,10=2,22=-1/1;
 7/12=2,29=1/1,2,3,16;
 1/10=7,18=40/3(2);
 2/29=3/2;
 99//99;
 2/29=3/2;
 3/5=16,6=1,7=10,11=9,25=1,30=1,71=1/1,2,3;
 4/5=5,16=3,69=1/1;
 5/5=2,38=5/2;
 8/6=4,10=1/1;
 9/15=2,16=-3/6;
 10/5=1/2;
 7/12=2/1,2,3,16;
 1/18=40/3(-8);
 2/29=3/2;
 6/7=2,8=2,9=2,10=2,22=-1/1;
 99/9=10/99;
 Leave Link    1 at Tue Oct 19 15:21:30 2021, MaxMem= 16106127360 cpu:               2.1 elap:               0.1
 (Enter /sw/contrib/gaussian/g16/B01/g16/l101.exe)
 -----
 title
 -----
 Symbolic Z-matrix:
 Charge = -1 Multiplicity = 1
 O
 X                    1     10. 
 H(iso=2)             1    r1       2     90. 
 Cl                   1    r2       2     90.      3    a1       0
 H                    1    r3       2    oop      3    a1       0
       Variables:
  r1                    0.96062 -1        0.     
  r2                    3.08955 -1        0.     
  r3                    0.9926                   
  a1                  101.71721 -1        0.     
  OOP                  90.     Scan 10   -5.     
 
 ITRead=  0  0  0  0
 MicOpt= -1 -1 -1 -1
 NAtoms=      4 NQM=        4 NQMF=       0 NMMI=      0 NMMIF=      0
                NMic=       0 NMicF=      0.
                    Isotopes and Nuclear Properties:
 (Nuclear quadrupole moments (NQMom) in fm**2, nuclear magnetic moments (NMagM)
  in nuclear magnetons)

  Atom         1           2           3           4
 IAtWgt=          16           2          35           1
 AtmWgt=  15.9949146   2.0141018  34.9688527   1.0078250
 NucSpn=           0           2           3           1
 AtZEff=  -0.0000000  -0.0000000  -0.0000000  -0.0000000
 NQMom=    0.0000000   0.2860000  -8.1650000   0.0000000
 NMagM=    0.0000000   0.8574380   0.8218740   2.7928460
 AtZNuc=   8.0000000   1.0000000  17.0000000   1.0000000
 Leave Link  101 at Tue Oct 19 15:21:30 2021, MaxMem= 16106127360 cpu:               4.2 elap:               0.2
 (Enter /sw/contrib/gaussian/g16/B01/g16/l103.exe)

 GradGradGradGradGradGradGradGradGradGradGradGradGradGradGradGradGradGrad
 Berny optimization.
 Initialization pass.
                       ----------------------------
                       !    Initial Parameters    !
                       ! (Angstroms and Degrees)  !
 ----------------------                            ----------------------
 !      Name          Value   Derivative information (Atomic Units)     !
 ------------------------------------------------------------------------
 !       r1          0.9606   Frozen                                    !
 !       r2          3.0895   Frozen                                    !
 !       r3          0.9926   estimate D2E/DX2                          !
 !       a1        101.7172   Frozen                                    !
 !       OOP        90.0      Scan                                      !
 ------------------------------------------------------------------------
 Trust Radius=3.00D-01 FncErr=1.00D-07 GrdErr=1.00D-07 EigMax=2.50D+02 EigMin=1.00D-04
 Number of optimizations in scan=  11
 Number of steps in this run=     20 maximum allowed number of steps=    100.
 GradGradGradGradGradGradGradGradGradGradGradGradGradGradGradGradGradGrad

 Leave Link  103 at Tue Oct 19 15:21:30 2021, MaxMem= 16106127360 cpu:               0.7 elap:               0.1
 (Enter /sw/contrib/gaussian/g16/B01/g16/l202.exe)
 ---------------------------------------------------------------------------------------------------
                            Z-MATRIX (ANGSTROMS AND DEGREES)
   CD    Cent   Atom    N1       Length/X        N2       Alpha/Y        N3        Beta/Z          J
 ---------------------------------------------------------------------------------------------------
      1      1  O 
      2         X        1  10.000000(     1)
      3      2  H        1   0.960616(     2)      2   90.000(     5)
      4      3  Cl       1   3.089549(     3)      2   90.000(     6)      3  101.717(     8)      0
      5      4  H        1   0.992602(     4)      2   90.000(     7)      3  101.717(     9)      0
 ---------------------------------------------------------------------------------------------------
                         Z-Matrix orientation:                         
 ---------------------------------------------------------------------
 Center     Atomic      Atomic             Coordinates (Angstroms)
 Number     Number       Type             X           Y           Z
 ---------------------------------------------------------------------
      1          8           0        0.000000    0.000000    0.000000
      2         -1           0        0.000000    0.000000   10.000000
      3          1           0        0.960616    0.000000    0.000000
      4         17           0       -0.627430   -3.025169    0.000000
      5          1           0       -0.201579   -0.971918    0.000000
 ---------------------------------------------------------------------
                    Distance matrix (angstroms):
                    1          2          3          4          5
     1  O    0.000000
     2  X   10.000000   0.000000
     3  H    0.960616  10.046033   0.000000
     4  Cl   3.089549  10.466390   3.416656   0.000000
     5  H    0.992602  10.049142   1.515032   2.096948   0.000000
 Stoichiometry    ClH2O(1-)
 Framework group  CS[SG(ClH2O)]
 Deg. of freedom     5
 Full point group                 CS      NOp   2
 Largest Abelian subgroup         CS      NOp   2
 Largest concise Abelian subgroup C1      NOp   1
                         Standard orientation:                         
 ---------------------------------------------------------------------
 Center     Atomic      Atomic             Coordinates (Angstroms)
 Number     Number       Type             X           Y           Z
 ---------------------------------------------------------------------
      1          8           0        0.034837    1.974810    0.000000
      2          1           0       -0.905762    2.169893   -0.000000
      3         17           0        0.034837   -1.114740    0.000000
      4          1           0        0.034837    0.982208    0.000000
 ---------------------------------------------------------------------
 Rotational constants (GHZ):         323.3617180           4.3431069           4.2855473
 Leave Link  202 at Tue Oct 19 15:21:30 2021, MaxMem= 16106127360 cpu:               2.5 elap:               0.1
 (Enter /sw/contrib/gaussian/g16/B01/g16/l301.exe)
 Standard basis: Aug-CC-pVTZ (5D, 7F)
 Ernie: Thresh=  0.10000D-02 Tol=  0.10000D-05 Strict=F.
 Ernie:  16 primitive shells out of 116 were deleted.
 There are   113 symmetry adapted cartesian basis functions of A'  symmetry.
 There are    51 symmetry adapted cartesian basis functions of A"  symmetry.
 There are    95 symmetry adapted basis functions of A'  symmetry.
 There are    47 symmetry adapted basis functions of A"  symmetry.
   142 basis functions,   240 primitive gaussians,   164 cartesian basis functions
    14 alpha electrons       14 beta electrons
       nuclear repulsion energy        39.2383188933 Hartrees.
 IExCor=    0 DFT=F Ex=HF Corr=None ExCW=0 ScaHFX=  1.000000
 ScaDFX=  1.000000  1.000000  1.000000  1.000000 ScalE2=  1.000000  1.000000
 IRadAn=      5 IRanWt=     -1 IRanGd=            0 ICorTp=0 IEmpDi=  4
 NAtoms=    4 NActive=    4 NUniq=    4 SFac= 1.00D+00 NAtFMM=   60 NAOKFM=F Big=F
 Integral buffers will be    131072 words long.
 Raffenetti 1 integral format.
 Two-electron integral symmetry is turned on.
 Leave Link  301 at Tue Oct 19 15:21:31 2021, MaxMem= 16106127360 cpu:               2.4 elap:               0.1
 (Enter /sw/contrib/gaussian/g16/B01/g16/l302.exe)
 NPDir=0 NMtPBC=     1 NCelOv=     1 NCel=       1 NClECP=     1 NCelD=      1
         NCelK=      1 NCelE2=     1 NClLst=     1 CellRange=     0.0.
 One-electron integrals computed using PRISM.
 One-electron integral symmetry used in STVInt
 NBasis=   142 RedAO= T EigKep=  2.85D-04  NBF=    95    47
 NBsUse=   142 1.00D-06 EigRej= -1.00D+00 NBFU=    95    47
 Leave Link  302 at Tue Oct 19 15:21:31 2021, MaxMem= 16106127360 cpu:               8.3 elap:               0.4
 (Enter /sw/contrib/gaussian/g16/B01/g16/l303.exe)
 DipDrv:  MaxL=1.
 Leave Link  303 at Tue Oct 19 15:21:31 2021, MaxMem= 16106127360 cpu:               0.9 elap:               0.1
 (Enter /sw/contrib/gaussian/g16/B01/g16/l401.exe)
 ExpMin= 2.53D-02 ExpMax= 4.56D+05 ExpMxC= 1.44D+03 IAcc=3 IRadAn=         5 AccDes= 0.00D+00
 Harris functional with IExCor=  205 and IRadAn=       5 diagonalized for initial guess.
 HarFok:  IExCor=  205 AccDes= 0.00D+00 IRadAn=         5 IDoV= 1 UseB2=F ITyADJ=14
 ICtDFT=  3500011 ScaDFX=  1.000000  1.000000  1.000000  1.000000
 FoFCou: FMM=F IPFlag=           0 FMFlag=      100000 FMFlg1=           0
         NFxFlg=           0 DoJE=T BraDBF=F KetDBF=T FulRan=T
         wScrn=  0.000000 ICntrl=       500 IOpCl=  0 I1Cent=   200000004 NGrid=           0
         NMat0=    1 NMatS0=      1 NMatT0=    0 NMatD0=    1 NMtDS0=    0 NMtDT0=    0
 Petite list used in FoFCou.
 Harris En= -535.446675690068    
 JPrj=0 DoOrth=F DoCkMO=F.
 Initial guess orbital symmetries:
       Occupied  (A') (A') (A') (A') (A') (A") (A') (A') (A') (A')
                 (A") (A') (A') (A")
       Virtual   (A') (A') (A') (A") (A') (A') (A') (A") (A') (A')
                 (A') (A') (A") (A") (A') (A') (A") (A') (A') (A")
                 (A') (A') (A') (A') (A") (A') (A') (A") (A') (A")
                 (A') (A") (A') (A") (A') (A') (A') (A") (A') (A')
                 (A') (A") (A") (A') (A') (A") (A') (A") (A") (A')
                 (A') (A') (A') (A') (A') (A") (A") (A') (A") (A')
                 (A") (A') (A') (A') (A') (A") (A') (A") (A') (A')
                 (A") (A') (A") (A') (A') (A") (A') (A') (A") (A')
                 (A") (A') (A') (A") (A') (A") (A') (A") (A') (A')
                 (A") (A') (A') (A') (A") (A') (A") (A') (A") (A')
                 (A") (A") (A') (A') (A') (A') (A") (A') (A') (A')
                 (A") (A') (A') (A') (A') (A") (A') (A") (A") (A')
                 (A') (A") (A") (A') (A') (A') (A') (A')
 The electronic state of the initial guess is 1-A'.
 Leave Link  401 at Tue Oct 19 15:21:32 2021, MaxMem= 16106127360 cpu:               8.5 elap:               0.4
 (Enter /sw/contrib/gaussian/g16/B01/g16/l502.exe)
 Keep R1 ints in memory in symmetry-blocked form, NReq=77720007.
 FoFCou: FMM=F IPFlag=           0 FMFlag=           0 FMFlg1=           0
         NFxFlg=           0 DoJE=F BraDBF=F KetDBF=F FulRan=T
         wScrn=  0.000000 ICntrl=       600 IOpCl=  0 I1Cent=           0 NGrid=           0
         NMat0=    1 NMatS0=  10153 NMatT0=    0 NMatD0=    1 NMtDS0=    0 NMtDT0=    0
 Petite list used in FoFCou.
 Closed shell SCF:
 Using DIIS extrapolation, IDIIS=  1040.
 NGot= 16106127360 LenX= 16079895157 LenY= 16079867820
 Requested convergence on RMS density matrix=1.00D-08 within 128 cycles.
 Requested convergence on MAX density matrix=1.00D-06.
 Requested convergence on             energy=1.00D-06.
 No special actions if energy rises.

 Cycle   1  Pass 1  IDiag  1:
 E= -535.513927096989    
 DIIS: error= 4.71D-02 at cycle   1 NSaved=   1.
 NSaved= 1 IEnMin= 1 EnMin= -535.513927096989     IErMin= 1 ErrMin= 4.71D-02
 ErrMax= 4.71D-02  0.00D+00 EMaxC= 1.00D-01 BMatC= 3.43D-01 BMatP= 3.43D-01
 IDIUse=3 WtCom= 5.29D-01 WtEn= 4.71D-01
 Coeff-Com:  0.100D+01
 Coeff-En:   0.100D+01
 Coeff:      0.100D+01
 Gap=     0.388 Goal=   None    Shift=    0.000
 GapD=    0.388 DampG=1.000 DampE=0.500 DampFc=0.5000 IDamp=-1.
 Damping current iteration by 5.00D-01
 RMSDP=2.24D-03 MaxDP=5.77D-02              OVMax= 1.32D-01

 Cycle   2  Pass 1  IDiag  1:
 E= -535.586334886141     Delta-E=       -0.072407789152 Rises=F Damp=T
 DIIS: error= 1.63D-02 at cycle   2 NSaved=   2.
 NSaved= 2 IEnMin= 2 EnMin= -535.586334886141     IErMin= 2 ErrMin= 1.63D-02
 ErrMax= 1.63D-02  0.00D+00 EMaxC= 1.00D-01 BMatC= 6.29D-02 BMatP= 3.43D-01
 IDIUse=3 WtCom= 8.37D-01 WtEn= 1.63D-01
 Coeff-Com: -0.477D+00 0.148D+01
 Coeff-En:   0.000D+00 0.100D+01
 Coeff:     -0.399D+00 0.140D+01
 Gap=     0.313 Goal=   None    Shift=    0.000
 RMSDP=9.38D-04 MaxDP=3.35D-02 DE=-7.24D-02 OVMax= 6.72D-02

 Cycle   3  Pass 1  IDiag  1:
 E= -535.648827208339     Delta-E=       -0.062492322198 Rises=F Damp=F
 DIIS: error= 5.74D-03 at cycle   3 NSaved=   3.
 NSaved= 3 IEnMin= 3 EnMin= -535.648827208339     IErMin= 3 ErrMin= 5.74D-03
 ErrMax= 5.74D-03  0.00D+00 EMaxC= 1.00D-01 BMatC= 2.36D-03 BMatP= 6.29D-02
 IDIUse=3 WtCom= 9.43D-01 WtEn= 5.74D-02
 Coeff-Com: -0.149D+00 0.271D+00 0.879D+00
 Coeff-En:   0.000D+00 0.000D+00 0.100D+01
 Coeff:     -0.141D+00 0.255D+00 0.886D+00
 Gap=     0.321 Goal=   None    Shift=    0.000
 RMSDP=1.71D-04 MaxDP=4.30D-03 DE=-6.25D-02 OVMax= 1.13D-02

 Cycle   4  Pass 1  IDiag  1:
 E= -535.650364768741     Delta-E=       -0.001537560403 Rises=F Damp=F
 DIIS: error= 6.06D-04 at cycle   4 NSaved=   4.
 NSaved= 4 IEnMin= 4 EnMin= -535.650364768741     IErMin= 4 ErrMin= 6.06D-04
 ErrMax= 6.06D-04  0.00D+00 EMaxC= 1.00D-01 BMatC= 4.92D-05 BMatP= 2.36D-03
 IDIUse=3 WtCom= 9.94D-01 WtEn= 6.06D-03
 Coeff-Com: -0.225D-01 0.383D-01 0.182D+00 0.803D+00
 Coeff-En:   0.000D+00 0.000D+00 0.000D+00 0.100D+01
 Coeff:     -0.224D-01 0.381D-01 0.181D+00 0.804D+00
 Gap=     0.315 Goal=   None    Shift=    0.000
 RMSDP=3.88D-05 MaxDP=9.51D-04 DE=-1.54D-03 OVMax= 2.32D-03

 Cycle   5  Pass 1  IDiag  1:
 E= -535.650416351241     Delta-E=       -0.000051582500 Rises=F Damp=F
 DIIS: error= 1.69D-04 at cycle   5 NSaved=   5.
 NSaved= 5 IEnMin= 5 EnMin= -535.650416351241     IErMin= 5 ErrMin= 1.69D-04
 ErrMax= 1.69D-04  0.00D+00 EMaxC= 1.00D-01 BMatC= 3.73D-06 BMatP= 4.92D-05
 IDIUse=3 WtCom= 9.98D-01 WtEn= 1.69D-03
 Coeff-Com:  0.148D-01-0.281D-01-0.897D-01-0.454D-01 0.115D+01
 Coeff-En:   0.000D+00 0.000D+00 0.000D+00 0.000D+00 0.100D+01
 Coeff:      0.147D-01-0.281D-01-0.895D-01-0.453D-01 0.115D+01
 Gap=     0.316 Goal=   None    Shift=    0.000
 RMSDP=2.10D-05 MaxDP=5.56D-04 DE=-5.16D-05 OVMax= 1.61D-03

 Cycle   6  Pass 1  IDiag  1:
 E= -535.650425983655     Delta-E=       -0.000009632414 Rises=F Damp=F
 DIIS: error= 5.14D-05 at cycle   6 NSaved=   6.
 NSaved= 6 IEnMin= 6 EnMin= -535.650425983655     IErMin= 6 ErrMin= 5.14D-05
 ErrMax= 5.14D-05  0.00D+00 EMaxC= 1.00D-01 BMatC= 2.39D-07 BMatP= 3.73D-06
 IDIUse=1 WtCom= 1.00D+00 WtEn= 0.00D+00
 Coeff-Com: -0.200D-02 0.437D-02 0.111D-01-0.134D-01-0.361D+00 0.136D+01
 Coeff:     -0.200D-02 0.437D-02 0.111D-01-0.134D-01-0.361D+00 0.136D+01
 Gap=     0.316 Goal=   None    Shift=    0.000
 RMSDP=6.95D-06 MaxDP=1.59D-04 DE=-9.63D-06 OVMax= 5.29D-04

 Cycle   7  Pass 1  IDiag  1:
 E= -535.650426831617     Delta-E=       -0.000000847962 Rises=F Damp=F
 DIIS: error= 1.09D-05 at cycle   7 NSaved=   7.
 NSaved= 7 IEnMin= 7 EnMin= -535.650426831617     IErMin= 7 ErrMin= 1.09D-05
 ErrMax= 1.09D-05  0.00D+00 EMaxC= 1.00D-01 BMatC= 7.69D-09 BMatP= 2.39D-07
 IDIUse=1 WtCom= 1.00D+00 WtEn= 0.00D+00
 Coeff-Com:  0.130D-04-0.211D-03-0.126D-03 0.472D-02 0.694D-01-0.419D+00
 Coeff-Com:  0.135D+01
 Coeff:      0.130D-04-0.211D-03-0.126D-03 0.472D-02 0.694D-01-0.419D+00
 Coeff:      0.135D+01
 Gap=     0.316 Goal=   None    Shift=    0.000
 RMSDP=1.18D-06 MaxDP=3.11D-05 DE=-8.48D-07 OVMax= 8.36D-05

 Cycle   8  Pass 1  IDiag  1:
 E= -535.650426856463     Delta-E=       -0.000000024846 Rises=F Damp=F
 DIIS: error= 1.86D-06 at cycle   8 NSaved=   8.
 NSaved= 8 IEnMin= 8 EnMin= -535.650426856463     IErMin= 8 ErrMin= 1.86D-06
 ErrMax= 1.86D-06  0.00D+00 EMaxC= 1.00D-01 BMatC= 2.67D-10 BMatP= 7.69D-09
 IDIUse=1 WtCom= 1.00D+00 WtEn= 0.00D+00
 Coeff-Com:  0.557D-04-0.124D-03-0.342D-03 0.248D-03 0.114D-01-0.402D-01
 Coeff-Com: -0.154D-01 0.104D+01
 Coeff:      0.557D-04-0.124D-03-0.342D-03 0.248D-03 0.114D-01-0.402D-01
 Coeff:     -0.154D-01 0.104D+01
 Gap=     0.316 Goal=   None    Shift=    0.000
 RMSDP=1.63D-07 MaxDP=3.99D-06 DE=-2.48D-08 OVMax= 1.15D-05

 Cycle   9  Pass 1  IDiag  1:
 E= -535.650426857062     Delta-E=       -0.000000000599 Rises=F Damp=F
 DIIS: error= 5.59D-07 at cycle   9 NSaved=   9.
 NSaved= 9 IEnMin= 9 EnMin= -535.650426857062     IErMin= 9 ErrMin= 5.59D-07
 ErrMax= 5.59D-07  0.00D+00 EMaxC= 1.00D-01 BMatC= 2.59D-11 BMatP= 2.67D-10
 IDIUse=1 WtCom= 1.00D+00 WtEn= 0.00D+00
 Coeff-Com: -0.123D-04 0.425D-04 0.730D-04-0.425D-03-0.784D-02 0.439D-01
 Coeff-Com: -0.126D+00-0.112D+00 0.120D+01
 Coeff:     -0.123D-04 0.425D-04 0.730D-04-0.425D-03-0.784D-02 0.439D-01
 Coeff:     -0.126D+00-0.112D+00 0.120D+01
 Gap=     0.316 Goal=   None    Shift=    0.000
 RMSDP=5.10D-08 MaxDP=1.10D-06 DE=-5.99D-10 OVMax= 4.14D-06

 Cycle  10  Pass 1  IDiag  1:
 E= -535.650426857129     Delta-E=       -0.000000000067 Rises=F Damp=F
 DIIS: error= 9.09D-08 at cycle  10 NSaved=  10.
 NSaved=10 IEnMin=10 EnMin= -535.650426857129     IErMin=10 ErrMin= 9.09D-08
 ErrMax= 9.09D-08  0.00D+00 EMaxC= 1.00D-01 BMatC= 1.05D-12 BMatP= 2.59D-11
 IDIUse=1 WtCom= 1.00D+00 WtEn= 0.00D+00
 Coeff-Com: -0.940D-06 0.646D-06 0.407D-05 0.254D-04 0.321D-03-0.278D-02
 Coeff-Com:  0.149D-01-0.387D-01-0.118D+00 0.114D+01
 Coeff:     -0.940D-06 0.646D-06 0.407D-05 0.254D-04 0.321D-03-0.278D-02
 Coeff:      0.149D-01-0.387D-01-0.118D+00 0.114D+01
 Gap=     0.316 Goal=   None    Shift=    0.000
 RMSDP=1.57D-08 MaxDP=5.09D-07 DE=-6.70D-11 OVMax= 8.40D-07

 Cycle  11  Pass 1  IDiag  1:
 E= -535.650426857134     Delta-E=       -0.000000000005 Rises=F Damp=F
 DIIS: error= 2.15D-08 at cycle  11 NSaved=  11.
 NSaved=11 IEnMin=11 EnMin= -535.650426857134     IErMin=11 ErrMin= 2.15D-08
 ErrMax= 2.15D-08  0.00D+00 EMaxC= 1.00D-01 BMatC= 5.75D-14 BMatP= 1.05D-12
 IDIUse=1 WtCom= 1.00D+00 WtEn= 0.00D+00
 Coeff-Com:  0.989D-06-0.278D-05-0.498D-05 0.214D-04 0.398D-03-0.212D-02
 Coeff-Com:  0.523D-02 0.976D-02-0.607D-01-0.109D+00 0.116D+01
 Coeff:      0.989D-06-0.278D-05-0.498D-05 0.214D-04 0.398D-03-0.212D-02
 Coeff:      0.523D-02 0.976D-02-0.607D-01-0.109D+00 0.116D+01
 Gap=     0.316 Goal=   None    Shift=    0.000
 RMSDP=5.52D-09 MaxDP=2.04D-07 DE=-5.34D-12 OVMax= 2.13D-07

 SCF Done:  E(RHF) =  -535.650426857     A.U. after   11 cycles
            NFock= 11  Conv=0.55D-08     -V/T= 2.0002
 KE= 5.355427882078D+02 PE=-1.361265158123D+03 EE= 2.508336241652D+02
 Leave Link  502 at Tue Oct 19 15:21:33 2021, MaxMem= 16106127360 cpu:              22.9 elap:               1.1
 (Enter /sw/contrib/gaussian/g16/B01/g16/l801.exe)
 ExpMin= 2.53D-02 ExpMax= 4.56D+05 ExpMxC= 1.44D+03 IAcc=3 IRadAn=         5 AccDes= 0.00D+00
 HarFok:  IExCor=  205 AccDes= 0.00D+00 IRadAn=         5 IDoV=-2 UseB2=F ITyADJ=14
 ICtDFT= 12500011 ScaDFX=  1.000000  1.000000  1.000000  1.000000
 Largest valence mixing into a core orbital is  4.53D-04
 Largest core mixing into a valence orbital is  1.83D-04
 Range of M.O.s used for correlation:     7   142
 NBasis=   142 NAE=    14 NBE=    14 NFC=     6 NFV=     0
 NROrb=    136 NOA=     8 NOB=     8 NVA=   128 NVB=   128

 **** Warning!!: The largest alpha MO coefficient is  0.16837691D+02

 Leave Link  801 at Tue Oct 19 15:21:33 2021, MaxMem= 16106127360 cpu:               3.4 elap:               0.2
 (Enter /sw/contrib/gaussian/g16/B01/g16/l906.exe)
 Frozen-core derivative calculation, NFC=   6 NFV=   0.
 FulOut=F Deriv=T AODrv=T NAtomX=     4
   MMem=         252  MDisk=           8 MDiskD=           8
  W3Min=      326032 MinDsk=      657538 NBas6D=         164
 NBas2D=       13905    NTT=       13530    LW2=     3500000
    MDV= 16105837521 MDiskM=      490970 NBas2p=       13825
 Fully direct method using O(ONN) memory.
 IMap=   1   2   3   4   5   6   7   8   9  10  11  12  13  14
 JobTyp=1 Pass  1:  I=   7 to  14 NPSUse= 28 ParTrn=T ParDer=T DoDerP=T.
 Spin components of T(2) and E(2):
     alpha-alpha T2 =       0.1964717393D-01 E2=     -0.6021498416D-01
     alpha-beta  T2 =       0.1073843353D+00 E2=     -0.3631362209D+00
     beta-beta   T2 =       0.1964717393D-01 E2=     -0.6021498416D-01
 The integrals were generated   1 times.
 ANorm=    0.1070830838D+01
 E2 =    -0.4835661892D+00 EUMP2 =    -0.53613399304637D+03
 Leave Link  906 at Tue Oct 19 15:21:38 2021, MaxMem= 16106127360 cpu:             121.9 elap:               4.5
 (Enter /sw/contrib/gaussian/g16/B01/g16/l1002.exe)
 Minotr:  Closed shell wavefunction.
          Computing MP2/KS-MP2 derivatives.
          Using Z-Vector for PSCF gradient.
          Skipping F1 and S1 gradient terms here.
          IDoAtm=1111
          Frozen-core window.
          Direct CPHF calculation.
          Differentiating once with respect to electric field.
                with respect to dipole field.
          Differentiating once with respect to nuclear coordinates.
          Using symmetry in CPHF.
          Requested convergence is 1.0D-10 RMS, and 1.0D-09 maximum.
          NewPWx=F KeepS1=T KeepF1=T KeepIn=T MapXYZ=F SortEE=F KeepMc=T.
 Keep R1 ints in memory in symmetry-blocked form, NReq=77720971.
 FoFCou: FMM=F IPFlag=           0 FMFlag=           0 FMFlg1=           0
         NFxFlg=           0 DoJE=F BraDBF=F KetDBF=F FulRan=T
         wScrn=  0.000000 ICntrl=       600 IOpCl=  0 I1Cent=           0 NGrid=           0
         NMat0=    1 NMatS0=  10153 NMatT0=    0 NMatD0=    1 NMtDS0=    0 NMtDT0=    0
 Petite list used in FoFCou.
          MDV=   16106127360 using IRadAn=       5.
          Solving linear equations separately, MaxMat=       0.
          There are     1 degrees of freedom in the 1st order CPHF.  IDoFFX=0 NUNeed=     1.
 LinEq1:  Iter=  0 NonCon=     1 RMS=3.01D-03 Max=3.98D-02 NDo=     1
 AX will form     1 AO Fock derivatives at one time.
 LinEq1:  Iter=  1 NonCon=     1 RMS=3.75D-04 Max=5.50D-03 NDo=     1
 LinEq1:  Iter=  2 NonCon=     1 RMS=1.13D-04 Max=1.25D-03 NDo=     1
 LinEq1:  Iter=  3 NonCon=     1 RMS=3.67D-05 Max=3.45D-04 NDo=     1
 LinEq1:  Iter=  4 NonCon=     1 RMS=1.06D-05 Max=9.35D-05 NDo=     1
 LinEq1:  Iter=  5 NonCon=     1 RMS=2.65D-06 Max=2.83D-05 NDo=     1
 LinEq1:  Iter=  6 NonCon=     1 RMS=6.50D-07 Max=8.55D-06 NDo=     1
 LinEq1:  Iter=  7 NonCon=     1 RMS=1.62D-07 Max=1.64D-06 NDo=     1
 LinEq1:  Iter=  8 NonCon=     1 RMS=3.80D-08 Max=4.13D-07 NDo=     1
 LinEq1:  Iter=  9 NonCon=     1 RMS=6.46D-09 Max=9.51D-08 NDo=     1
 LinEq1:  Iter= 10 NonCon=     1 RMS=9.32D-10 Max=8.42D-09 NDo=     1
 LinEq1:  Iter= 11 NonCon=     1 RMS=2.21D-10 Max=2.42D-09 NDo=     1
 LinEq1:  Iter= 12 NonCon=     0 RMS=4.98D-11 Max=5.75D-10 NDo=     1
 Linear equations converged to 1.000D-10 1.000D-09 after    12 iterations.
 End of Minotr F.D. properties file   721 does not exist.
 End of Minotr F.D. properties file   722 does not exist.
 End of Minotr F.D. properties file   788 does not exist.
 Leave Link 1002 at Tue Oct 19 15:21:40 2021, MaxMem= 16106127360 cpu:              31.6 elap:               1.5
 (Enter /sw/contrib/gaussian/g16/B01/g16/l601.exe)
 Copying SCF densities to generalized density rwf, IOpCl= 0 IROHF=0.

 **********************************************************************

            Population analysis using the MP2 Density.

 **********************************************************************

 Orbital symmetries:
       Occupied  (A') (A') (A') (A') (A') (A") (A') (A') (A') (A')
                 (A") (A') (A') (A")
       Virtual   (A') (A') (A') (A") (A') (A') (A') (A") (A') (A')
                 (A') (A") (A') (A") (A') (A') (A") (A') (A') (A')
                 (A") (A') (A') (A') (A') (A') (A") (A") (A") (A')
                 (A') (A") (A') (A') (A") (A') (A') (A") (A') (A')
                 (A') (A") (A') (A') (A") (A') (A") (A") (A') (A")
                 (A') (A') (A') (A') (A") (A') (A") (A') (A') (A")
                 (A") (A') (A') (A') (A') (A") (A') (A") (A') (A")
                 (A') (A') (A') (A") (A') (A') (A") (A') (A") (A')
                 (A") (A') (A') (A") (A') (A") (A') (A") (A') (A')
                 (A") (A') (A') (A') (A') (A") (A') (A") (A") (A')
                 (A") (A') (A") (A') (A') (A') (A") (A') (A') (A')
                 (A") (A') (A') (A') (A') (A") (A') (A") (A') (A")
                 (A") (A') (A") (A') (A') (A') (A') (A')
 The electronic state is 1-A'.
 Alpha  occ. eigenvalues -- -104.53003 -20.37743 -10.25450  -7.72060  -7.72054
 Alpha  occ. eigenvalues --   -7.72053  -1.15800  -0.76530  -0.51570  -0.40560
 Alpha  occ. eigenvalues --   -0.32256  -0.18219  -0.17752  -0.17706
 Alpha virt. eigenvalues --    0.13868   0.18208   0.25650   0.26704   0.27572
 Alpha virt. eigenvalues --    0.28774   0.30504   0.31084   0.35228   0.39681
 Alpha virt. eigenvalues --    0.41295   0.41907   0.43417   0.49909   0.55272
 Alpha virt. eigenvalues --    0.55632   0.58061   0.59264   0.61147   0.66840
 Alpha virt. eigenvalues --    0.68589   0.69988   0.72813   0.82292   0.85611
 Alpha virt. eigenvalues --    0.87157   0.88634   0.89508   0.92368   0.94053
 Alpha virt. eigenvalues --    1.02127   1.02759   1.03854   1.07817   1.08526
 Alpha virt. eigenvalues --    1.09694   1.11005   1.11911   1.14408   1.18713
 Alpha virt. eigenvalues --    1.19904   1.20009   1.23057   1.26094   1.28354
 Alpha virt. eigenvalues --    1.32159   1.32368   1.40119   1.41864   1.44537
 Alpha virt. eigenvalues --    1.44817   1.50545   1.57431   1.59306   1.62313
 Alpha virt. eigenvalues --    1.68670   1.70425   1.74674   1.79052   1.79285
 Alpha virt. eigenvalues --    1.90161   1.90391   2.09614   2.12795   2.26275
 Alpha virt. eigenvalues --    2.46144   2.51870   2.59078   2.63083   2.63420
 Alpha virt. eigenvalues --    2.64815   2.65931   2.74170   2.80506   2.80835
 Alpha virt. eigenvalues --    2.86541   2.89747   2.91982   2.92469   2.98212
 Alpha virt. eigenvalues --    3.00495   3.00560   3.06980   3.16855   3.20489
 Alpha virt. eigenvalues --    3.34475   3.34513   3.39522   3.39787   3.41742
 Alpha virt. eigenvalues --    3.50540   3.53545   3.61489   3.87953   4.21506
 Alpha virt. eigenvalues --    4.23877   4.34909   4.37099   4.45518   4.45676
 Alpha virt. eigenvalues --    4.56586   4.59123   4.64366   4.78001   4.97344
 Alpha virt. eigenvalues --    5.11539   5.29792   5.38107   5.45227   5.52389
 Alpha virt. eigenvalues --    5.68602   5.79727   6.26094   6.50280   6.73741
 Alpha virt. eigenvalues --    6.91097   7.11037   7.29406   7.44280   7.45017
 Alpha virt. eigenvalues --    7.48148   7.55717   7.63562   7.80732   8.09374
 Alpha virt. eigenvalues --    8.14468   8.96815  16.20294
          Condensed to atoms (all electrons):
               1          2          3          4
     1  O    8.265622   0.210622  -0.069803   0.140748
     2  H    0.210622   0.608440   0.004269   0.011228
     3  Cl  -0.069803   0.004269  17.931539   0.046131
     4  H    0.140748   0.011228   0.046131   0.508010
 Mulliken charges:
               1
     1  O   -0.547189
     2  H    0.165441
     3  Cl  -0.912135
     4  H    0.293883
 Sum of Mulliken charges =  -1.00000
 Mulliken charges with hydrogens summed into heavy atoms:
               1
     1  O   -0.087865
     3  Cl  -0.912135
 Electronic spatial extent (au):  <R**2>=            272.1689
 Charge=             -1.0000 electrons
 Dipole moment (field-independent basis, Debye):
    X=             -1.4569    Y=              2.5382    Z=             -0.0000  Tot=              2.9266
 Quadrupole moment (field-independent basis, Debye-Ang):
   XX=            -22.8436   YY=            -35.4424   ZZ=            -25.1264
   XY=             -3.3064   XZ=             -0.0000   YZ=             -0.0000
 Traceless Quadrupole moment (field-independent basis, Debye-Ang):
   XX=              4.9605   YY=             -7.6382   ZZ=              2.6777
   XY=             -3.3064   XZ=             -0.0000   YZ=             -0.0000
 Octapole moment (field-independent basis, Debye-Ang**2):
  XXX=             -2.0066  YYY=              6.2036  ZZZ=             -0.0000  XYY=             -8.3394
  XXY=              7.8579  XXZ=             -0.0000  XZZ=             -0.1562  YZZ=              2.9491
  YYZ=             -0.0000  XYZ=              0.0000
 Hexadecapole moment (field-independent basis, Debye-Ang**3):
 XXXX=            -36.6477 YYYY=           -359.1435 ZZZZ=            -37.4641 XXXY=              0.4892
 XXXZ=             -0.0000 YYYX=            -14.7684 YYYZ=             -0.0000 ZZZX=             -0.0000
 ZZZY=              0.0000 XXYY=            -54.3179 XXZZ=            -12.6387 YYZZ=            -64.6710
 XXYZ=             -0.0000 YYXZ=             -0.0000 ZZXY=              1.3095
 N-N= 3.923831889335D+01 E-N=-1.361211611487D+03  KE= 5.360238807107D+02
 Symmetry A'   KE= 4.862521571634D+02
 Symmetry A"   KE= 4.977172354727D+01
 No NMR shielding tensors so no spin-rotation constants.
 Leave Link  601 at Tue Oct 19 15:21:40 2021, MaxMem= 16106127360 cpu:               6.5 elap:               0.3
 (Enter /sw/contrib/gaussian/g16/B01/g16/l701.exe)
 ... and contract with generalized density number  2.
 Compute integral first derivatives.
 Leave Link  701 at Tue Oct 19 15:21:41 2021, MaxMem= 16106127360 cpu:               7.5 elap:               0.4
 (Enter /sw/contrib/gaussian/g16/B01/g16/l702.exe)
 L702 exits ... SP integral derivatives will be done elsewhere.
 Leave Link  702 at Tue Oct 19 15:21:41 2021, MaxMem= 16106127360 cpu:               2.0 elap:               0.1
 (Enter /sw/contrib/gaussian/g16/B01/g16/l703.exe)
 Integral derivatives from FoFJK, PRISM(SPDF).
 Compute integral first derivatives, UseDBF=F ICtDFT=           0.
 Calling FoFJK, ICntrl=  10002127 FMM=F ISym2X=1 I1Cent= 0 IOpClX= 0 NMat=1 NMatS=1 NMatT=0.
 FoFJK:  IHMeth= 1 ICntrl=10002127 DoSepK=F KAlg= 0 I1Cent=           0 FoldK=F
 IRaf=         0 NMat=       1 IRICut=       1 DoRegI=T DoRafI=F ISym2E= 1 IDoP0=0 IntGTp=1.
 FoFCou: FMM=F IPFlag=           0 FMFlag=      100000 FMFlg1=         800
         NFxFlg=           0 DoJE=F BraDBF=F KetDBF=F FulRan=T
         wScrn=  0.000000 ICntrl=  10002127 IOpCl=  0 I1Cent=           0 NGrid=           0
         NMat0=    1 NMatS0=      1 NMatT0=    0 NMatD0=    1 NMtDS0=    0 NMtDT0=    0
 Petite list used in FoFCou.
 Leave Link  703 at Tue Oct 19 15:21:43 2021, MaxMem= 16106127360 cpu:              24.6 elap:               0.9
 (Enter /sw/contrib/gaussian/g16/B01/g16/l716.exe)
 Dipole        =-5.73202954D-01 9.98604955D-01-3.39523602D-33
 ***** Axes restored to original set *****
 -------------------------------------------------------------------
 Center     Atomic                   Forces (Hartrees/Bohr)
 Number     Number              X              Y              Z
 -------------------------------------------------------------------
      1        8           0.002259286   -0.000460872   -0.000000000
      2        1          -0.000005501    0.000028236   -0.000000000
      3       17           0.001056046   -0.000193142   -0.000000000
      4        1          -0.003309832    0.000625778    0.000000000
 -------------------------------------------------------------------
 Cartesian Forces:  Max     0.003309832 RMS     0.001218494
 -----------------------------------------------------------------------------------------------
                       Internal Coordinate Forces (Hartree/Bohr or radian)
  Cent   Atom   N1       Length/X         N2         Alpha/Y        N3         Beta/Z          J
 -----------------------------------------------------------------------------------------------
      1  O 
         X        1   0.000000(     1)
      2  H        1  -0.000006(     2)      2   0.000000(     5)
      3  Cl       1  -0.000025(     3)      2   0.000000(     6)      3  -0.006266(     8)     0
      4  H        1   0.000059(     4)      2  -0.000000(     7)      3   0.006317(     9)     0
 -----------------------------------------------------------------------------------------------
 Internal  Forces:  Max     0.006317408 RMS     0.002966076
 Force constants in Cartesian coordinates: 
                1             2             3             4             5 
      1  0.642698D+00
      2  0.268161D-01  0.615846D+00
      3  0.000000D+00  0.000000D+00  0.209487D-01
      4 -0.553411D+00  0.000000D+00  0.000000D+00  0.553411D+00
      5  0.607919D-01 -0.109716D+00  0.000000D+00  0.000000D+00  0.971074D-01
      6  0.000000D+00  0.000000D+00  0.000000D+00  0.000000D+00  0.000000D+00
      7  0.411767D-02  0.945596D-02  0.000000D+00  0.000000D+00 -0.147819D-01
      8 -0.532599D-02 -0.235229D-01  0.000000D+00  0.000000D+00  0.306582D-02
      9  0.000000D+00  0.000000D+00  0.991618D-02  0.000000D+00  0.000000D+00
     10 -0.934054D-01 -0.362721D-01  0.000000D+00  0.000000D+00 -0.460099D-01
     11 -0.822820D-01 -0.482607D+00  0.000000D+00  0.000000D+00  0.954261D-02
     12  0.000000D+00  0.000000D+00 -0.308649D-01  0.000000D+00  0.000000D+00
                6             7             8             9            10 
      6  0.100000D+01
      7  0.000000D+00  0.988984D-02
      8  0.000000D+00  0.242079D-02  0.210596D-01
      9  0.000000D+00  0.000000D+00  0.000000D+00  0.469388D-02
     10  0.000000D+00 -0.140075D-01  0.290520D-02  0.000000D+00  0.107413D+00
     11  0.000000D+00  0.290520D-02 -0.602549D-03  0.000000D+00  0.793768D-01
     12  0.000000D+00  0.000000D+00  0.000000D+00 -0.146101D-01  0.000000D+00
               11            12 
     11  0.473667D+00
     12  0.000000D+00  0.454749D-01
 Force constants in internal coordinates: 
                1             2             3             4             5 
      1  0.000000D+00
      2  0.000000D+00  0.553411D+00
      3  0.000000D+00  0.000000D+00  0.215617D-01
      4  0.000000D+00  0.000000D+00  0.000000D+00  0.490130D+00
      5  0.000000D+00  0.000000D+00  0.000000D+00  0.000000D+00  0.329532D+01
      6  0.000000D+00  0.000000D+00  0.000000D+00  0.000000D+00  0.000000D+00
      7  0.000000D+00  0.000000D+00  0.000000D+00  0.000000D+00  0.000000D+00
      8  0.000000D+00  0.000000D+00  0.000000D+00  0.000000D+00  0.000000D+00
      9  0.000000D+00  0.000000D+00  0.000000D+00  0.000000D+00  0.000000D+00
                6             7             8             9 
      6  0.160000D+00
      7 -0.160000D+00  0.160000D+00
      8  0.000000D+00  0.000000D+00  0.320000D+00
      9  0.000000D+00  0.000000D+00 -0.160000D+00  0.320000D+00
 Leave Link  716 at Tue Oct 19 15:21:43 2021, MaxMem= 16106127360 cpu:               2.9 elap:               0.2
 (Enter /sw/contrib/gaussian/g16/B01/g16/l103.exe)

 GradGradGradGradGradGradGradGradGradGradGradGradGradGradGradGradGradGrad
 Berny optimization.
 Search for a local minimum.
 Step number   1 out of a maximum of   20 on scan point     1 out of    11
 All quantities printed in internal units (Hartrees-Bohrs-Radians)
 Second derivative matrix not updated -- first step.
 The second derivative matrix:
                          r1        r2        r3        a1        OOP
           r1           0.55341
           r2          -0.00000   0.02156
           r3          -0.00000  -0.00000   0.49013
           a1           0.00000   0.00000   0.00000   0.32000
           OOP          0.00000  -0.00000  -0.00000  -0.00000   0.16000
 ITU=  0
     Eigenvalues ---    0.490131000.000001000.000001000.000001000.00000
 RFO step:  Lambda= 0.00000000D+00 EMin= 4.90130294D-01
 Linear search not attempted -- first point.
 Variable       Old X    -DE/DX   Delta X   Delta X   Delta X     New X
                                 (Linear)    (Quad)   (Total)
    r1        1.81530  -0.00001   0.00000   0.00000   0.00000   1.81530
    r2        5.83840  -0.00003   0.00000   0.00000   0.00000   5.83840
    r3        1.87575   0.00006   0.00000   0.00012   0.00012   1.87587
    a1        1.77530   0.00005   0.00000   0.00000   0.00000   1.77530
   OOP        1.57080  -0.00000   0.00000   0.00000   0.00000   1.57080
         Item               Value     Threshold  Converged?
 Maximum Force            0.000059     0.000450     YES
 RMS     Force            0.000059     0.000300     YES
 Maximum Displacement     0.000121     0.001800     YES
 RMS     Displacement     0.000054     0.001200     YES
 Predicted change in Energy=-3.602729D-09
 Optimization completed.
    -- Stationary point found.
                       ----------------------------
                       !   Optimized Parameters   !
                       ! (Angstroms and Degrees)  !
 ----------------------                            ----------------------
 !      Name          Value   Derivative information (Atomic Units)     !
 ------------------------------------------------------------------------
 !       r1          0.9606   -DE/DX =    0.0                           !
 !       r2          3.0895   -DE/DX =    0.0                           !
 !       r3          0.9926   -DE/DX =    0.0001                        !
 !       a1        101.7172   -DE/DX =    0.0001                        !
 !       OOP        90.0      -DE/DX =    0.0                           !
 ------------------------------------------------------------------------
 Lowest energy point so far.  Saving SCF results.
 GradGradGradGradGradGradGradGradGradGradGradGradGradGradGradGradGradGrad

 Leave Link  103 at Tue Oct 19 15:21:43 2021, MaxMem= 16106127360 cpu:               1.9 elap:               0.1
 (Enter /sw/contrib/gaussian/g16/B01/g16/l202.exe)
 ---------------------------------------------------------------------------------------------------
                            Z-MATRIX (ANGSTROMS AND DEGREES)
   CD    Cent   Atom    N1       Length/X        N2       Alpha/Y        N3        Beta/Z          J
 ---------------------------------------------------------------------------------------------------
      1      1  O 
      2         X        1  10.000000(     1)
      3      2  H        1   0.960616(     2)      2   90.000(     5)
      4      3  Cl       1   3.089549(     3)      2   90.000(     6)      3  101.717(     8)      0
      5      4  H        1   0.992602(     4)      2   85.000(     7)      3  101.717(     9)      0
 ---------------------------------------------------------------------------------------------------
                         Z-Matrix orientation:                         
 ---------------------------------------------------------------------
 Center     Atomic      Atomic             Coordinates (Angstroms)
 Number     Number       Type             X           Y           Z
 ---------------------------------------------------------------------
      1          8           0        0.000000    0.000000    0.000000
      2         -1           0        0.000000    0.000000   10.000000
      3          1           0        0.960616    0.000000    0.000000
      4         17           0       -0.627430   -3.025169    0.000000
      5          1           0       -0.200812   -0.968220    0.086511
 ---------------------------------------------------------------------
                    Distance matrix (angstroms):
                    1          2          3          4          5
     1  O    0.000000
     2  X   10.000000   0.000000
     3  H    0.960616  10.046033   0.000000
     4  Cl   3.089549  10.466390   3.416656   0.000000
     5  H    0.992602   9.962682   1.514546   2.102505   0.000000
 Stoichiometry    ClH2O(1-)
 Framework group  C1[X(ClH2O)]
 Deg. of freedom     6
 Full point group                 C1      NOp   1
 Omega: Change in point group or standard orientation.

 Old FWG=CS   [SG(Cl1H2O1)]
 New FWG=C01  [X(Cl1H2O1)]
 RotChk:  IX=1 Diff= 1.96D+00
 Largest Abelian subgroup         C1      NOp   1
 Largest concise Abelian subgroup C1      NOp   1
                         Standard orientation:                         
 ---------------------------------------------------------------------
 Center     Atomic      Atomic             Coordinates (Angstroms)
 Number     Number       Type             X           Y           Z
 ---------------------------------------------------------------------
      1          8           0       -1.972167    0.105143    0.006919
      2          1           0       -2.200649   -0.827879   -0.000058
      3         17           0        1.115417   -0.004933    0.001530
      4          1           0       -0.984098    0.070591   -0.081314
 ---------------------------------------------------------------------
 Rotational constants (GHZ):         321.8473472           4.3425421           4.2852612
 Leave Link  202 at Tue Oct 19 15:21:43 2021, MaxMem= 16106127360 cpu:               0.5 elap:               0.0
 (Enter /sw/contrib/gaussian/g16/B01/g16/l301.exe)
 Standard basis: Aug-CC-pVTZ (5D, 7F)
 Ernie: Thresh=  0.10000D-02 Tol=  0.10000D-05 Strict=F.
 Ernie:  16 primitive shells out of 116 were deleted.
 There are   164 symmetry adapted cartesian basis functions of A   symmetry.
 There are   142 symmetry adapted basis functions of A   symmetry.
   142 basis functions,   240 primitive gaussians,   164 cartesian basis functions
    14 alpha electrons       14 beta electrons
       nuclear repulsion energy        39.2270908409 Hartrees.
 IExCor=    0 DFT=F Ex=HF Corr=None ExCW=0 ScaHFX=  1.000000
 ScaDFX=  1.000000  1.000000  1.000000  1.000000 ScalE2=  1.000000  1.000000
 IRadAn=      5 IRanWt=     -1 IRanGd=            0 ICorTp=0 IEmpDi=  4
 NAtoms=    4 NActive=    4 NUniq=    4 SFac= 1.00D+00 NAtFMM=   60 NAOKFM=F Big=F
 Integral buffers will be    131072 words long.
 Raffenetti 1 integral format.
 Two-electron integral symmetry is turned on.
 Leave Link  301 at Tue Oct 19 15:21:43 2021, MaxMem= 16106127360 cpu:               1.4 elap:               0.1
 (Enter /sw/contrib/gaussian/g16/B01/g16/l302.exe)
 NPDir=0 NMtPBC=     1 NCelOv=     1 NCel=       1 NClECP=     1 NCelD=      1
         NCelK=      1 NCelE2=     1 NClLst=     1 CellRange=     0.0.
 One-electron integrals computed using PRISM.
 One-electron integral symmetry used in STVInt
 NBasis=   142 RedAO= T EigKep=  2.87D-04  NBF=   142
 NBsUse=   142 1.00D-06 EigRej= -1.00D+00 NBFU=   142
 Leave Link  302 at Tue Oct 19 15:21:43 2021, MaxMem= 16106127360 cpu:               4.2 elap:               0.2
 (Enter /sw/contrib/gaussian/g16/B01/g16/l303.exe)
 DipDrv:  MaxL=1.
 Leave Link  303 at Tue Oct 19 15:21:43 2021, MaxMem= 16106127360 cpu:               1.4 elap:               0.1
 (Enter /sw/contrib/gaussian/g16/B01/g16/l401.exe)
 Initial guess from the checkpoint file:  "/gscratch/ilahie/mccoygrp/coire_hocl/oop_s_rOH_opt/clhod/clhod_oop_s.chk"
 B after Tr=     0.000000   -0.000000   -0.000000
         Rot=    0.719597   -0.000032    0.000027   -0.694392 Ang= -87.96 deg.
 Guess basis will be translated and rotated to current coordinates.
 JPrj=2 DoOrth=T DoCkMO=T.
 Generating alternative initial guess.
 ExpMin= 2.53D-02 ExpMax= 4.56D+05 ExpMxC= 1.44D+03 IAcc=3 IRadAn=         5 AccDes= 0.00D+00
 Harris functional with IExCor=  205 and IRadAn=       5 diagonalized for initial guess.
 HarFok:  IExCor=  205 AccDes= 0.00D+00 IRadAn=         5 IDoV= 1 UseB2=F ITyADJ=14
 ICtDFT=  3500011 ScaDFX=  1.000000  1.000000  1.000000  1.000000
 FoFCou: FMM=F IPFlag=           0 FMFlag=      100000 FMFlg1=           0
         NFxFlg=           0 DoJE=T BraDBF=F KetDBF=T FulRan=T
         wScrn=  0.000000 ICntrl=       500 IOpCl=  0 I1Cent=   200000004 NGrid=           0
         NMat0=    1 NMatS0=      1 NMatT0=    0 NMatD0=    1 NMtDS0=    0 NMtDT0=    0
 Petite list used in FoFCou.
 Harris En= -535.446436342676    
 Leave Link  401 at Tue Oct 19 15:21:44 2021, MaxMem= 16106127360 cpu:               6.7 elap:               0.3
 (Enter /sw/contrib/gaussian/g16/B01/g16/l502.exe)
 Keep R1 ints in memory in canonical form, NReq=65346601.
 FoFCou: FMM=F IPFlag=           0 FMFlag=           0 FMFlg1=           0
         NFxFlg=           0 DoJE=F BraDBF=F KetDBF=F FulRan=T
         wScrn=  0.000000 ICntrl=       600 IOpCl=  0 I1Cent=           0 NGrid=           0
         NMat0=    1 NMatS0=  10153 NMatT0=    0 NMatD0=    1 NMtDS0=    0 NMtDT0=    0
 Symmetry not used in FoFCou.
 Two-electron integral symmetry not used.
 Closed shell SCF:
 Using DIIS extrapolation, IDIIS=  1040.
 NGot= 16106127360 LenX= 16054520747 LenY= 16054493410
 Requested convergence on RMS density matrix=1.00D-08 within 128 cycles.
 Requested convergence on MAX density matrix=1.00D-06.
 Requested convergence on             energy=1.00D-06.
 No special actions if energy rises.

 Cycle   1  Pass 1  IDiag  1:
 E= -535.649172999144    
 DIIS: error= 2.86D-03 at cycle   1 NSaved=   1.
 NSaved= 1 IEnMin= 1 EnMin= -535.649172999144     IErMin= 1 ErrMin= 2.86D-03
 ErrMax= 2.86D-03  0.00D+00 EMaxC= 1.00D-01 BMatC= 9.66D-04 BMatP= 9.66D-04
 IDIUse=3 WtCom= 9.71D-01 WtEn= 2.86D-02
 Coeff-Com:  0.100D+01
 Coeff-En:   0.100D+01
 Coeff:      0.100D+01
 Gap=     0.643 Goal=   None    Shift=    0.000
 GapD=    0.643 DampG=2.000 DampE=1.000 DampFc=2.0000 IDamp=-1.
 RMSDP=2.47D-04 MaxDP=8.17D-03              OVMax= 1.24D-02

 Cycle   2  Pass 1  IDiag  1:
 E= -535.650076763480     Delta-E=       -0.000903764336 Rises=F Damp=F
 DIIS: error= 8.83D-04 at cycle   2 NSaved=   2.
 NSaved= 2 IEnMin= 2 EnMin= -535.650076763480     IErMin= 2 ErrMin= 8.83D-04
 ErrMax= 8.83D-04  0.00D+00 EMaxC= 1.00D-01 BMatC= 5.11D-05 BMatP= 9.66D-04
 IDIUse=3 WtCom= 9.91D-01 WtEn= 8.83D-03
 Coeff-Com: -0.213D+00 0.121D+01
 Coeff-En:   0.000D+00 0.100D+01
 Coeff:     -0.211D+00 0.121D+01
 Gap=     0.315 Goal=   None    Shift=    0.000
 RMSDP=7.11D-05 MaxDP=2.86D-03 DE=-9.04D-04 OVMax= 5.44D-03

 Cycle   3  Pass 1  IDiag  1:
 E= -535.650166721435     Delta-E=       -0.000089957955 Rises=F Damp=F
 DIIS: error= 2.61D-04 at cycle   3 NSaved=   3.
 NSaved= 3 IEnMin= 3 EnMin= -535.650166721435     IErMin= 3 ErrMin= 2.61D-04
 ErrMax= 2.61D-04  0.00D+00 EMaxC= 1.00D-01 BMatC= 2.72D-06 BMatP= 5.11D-05
 IDIUse=3 WtCom= 9.97D-01 WtEn= 2.61D-03
 Coeff-Com:  0.218D-01-0.258D+00 0.124D+01
 Coeff-En:   0.000D+00 0.000D+00 0.100D+01
 Coeff:      0.217D-01-0.258D+00 0.124D+01
 Gap=     0.315 Goal=   None    Shift=    0.000
 RMSDP=1.58D-05 MaxDP=7.10D-04 DE=-9.00D-05 OVMax= 1.80D-03

 Cycle   4  Pass 1  IDiag  1:
 E= -535.650173195561     Delta-E=       -0.000006474126 Rises=F Damp=F
 DIIS: error= 5.95D-05 at cycle   4 NSaved=   4.
 NSaved= 4 IEnMin= 4 EnMin= -535.650173195561     IErMin= 4 ErrMin= 5.95D-05
 ErrMax= 5.95D-05  0.00D+00 EMaxC= 1.00D-01 BMatC= 4.73D-07 BMatP= 2.72D-06
 IDIUse=1 WtCom= 1.00D+00 WtEn= 0.00D+00
 Coeff-Com:  0.218D-01-0.168D+00 0.352D+00 0.794D+00
 Coeff:      0.218D-01-0.168D+00 0.352D+00 0.794D+00
 Gap=     0.315 Goal=   None    Shift=    0.000
 RMSDP=3.81D-06 MaxDP=1.14D-04 DE=-6.47D-06 OVMax= 4.23D-04

 Cycle   5  Pass 1  IDiag  1:
 E= -535.650173764672     Delta-E=       -0.000000569112 Rises=F Damp=F
 DIIS: error= 1.62D-05 at cycle   5 NSaved=   5.
 NSaved= 5 IEnMin= 5 EnMin= -535.650173764672     IErMin= 5 ErrMin= 1.62D-05
 ErrMax= 1.62D-05  0.00D+00 EMaxC= 1.00D-01 BMatC= 2.99D-08 BMatP= 4.73D-07
 IDIUse=1 WtCom= 1.00D+00 WtEn= 0.00D+00
 Coeff-Com: -0.193D-02 0.224D-01-0.130D+00 0.150D-01 0.109D+01
 Coeff:     -0.193D-02 0.224D-01-0.130D+00 0.150D-01 0.109D+01
 Gap=     0.315 Goal=   None    Shift=    0.000
 RMSDP=1.64D-06 MaxDP=7.33D-05 DE=-5.69D-07 OVMax= 1.77D-04

 Cycle   6  Pass 1  IDiag  1:
 E= -535.650173824729     Delta-E=       -0.000000060057 Rises=F Damp=F
 DIIS: error= 4.56D-06 at cycle   6 NSaved=   6.
 NSaved= 6 IEnMin= 6 EnMin= -535.650173824729     IErMin= 6 ErrMin= 4.56D-06
 ErrMax= 4.56D-06  0.00D+00 EMaxC= 1.00D-01 BMatC= 1.46D-09 BMatP= 2.99D-08
 IDIUse=1 WtCom= 1.00D+00 WtEn= 0.00D+00
 Coeff-Com: -0.147D-02 0.119D-01-0.236D-01-0.572D-01 0.749D-03 0.107D+01
 Coeff:     -0.147D-02 0.119D-01-0.236D-01-0.572D-01 0.749D-03 0.107D+01
 Gap=     0.315 Goal=   None    Shift=    0.000
 RMSDP=4.22D-07 MaxDP=1.94D-05 DE=-6.01D-08 OVMax= 3.15D-05

 Cycle   7  Pass 1  IDiag  1:
 E= -535.650173827969     Delta-E=       -0.000000003240 Rises=F Damp=F
 DIIS: error= 1.02D-06 at cycle   7 NSaved=   7.
 NSaved= 7 IEnMin= 7 EnMin= -535.650173827969     IErMin= 7 ErrMin= 1.02D-06
 ErrMax= 1.02D-06  0.00D+00 EMaxC= 1.00D-01 BMatC= 8.71D-11 BMatP= 1.46D-09
 IDIUse=1 WtCom= 1.00D+00 WtEn= 0.00D+00
 Coeff-Com:  0.273D-03-0.255D-02 0.102D-01 0.528D-02-0.607D-01-0.115D+00
 Coeff-Com:  0.116D+01
 Coeff:      0.273D-03-0.255D-02 0.102D-01 0.528D-02-0.607D-01-0.115D+00
 Coeff:      0.116D+01
 Gap=     0.315 Goal=   None    Shift=    0.000
 RMSDP=1.06D-07 MaxDP=2.58D-06 DE=-3.24D-09 OVMax= 6.98D-06

 Cycle   8  Pass 1  IDiag  1:
 E= -535.650173828194     Delta-E=       -0.000000000225 Rises=F Damp=F
 DIIS: error= 2.20D-07 at cycle   8 NSaved=   8.
 NSaved= 8 IEnMin= 8 EnMin= -535.650173828194     IErMin= 8 ErrMin= 2.20D-07
 ErrMax= 2.20D-07  0.00D+00 EMaxC= 1.00D-01 BMatC= 5.41D-12 BMatP= 8.71D-11
 IDIUse=1 WtCom= 1.00D+00 WtEn= 0.00D+00
 Coeff-Com:  0.868D-04-0.730D-03 0.133D-02 0.326D-02-0.778D-03-0.678D-01
 Coeff-Com: -0.576D-02 0.107D+01
 Coeff:      0.868D-04-0.730D-03 0.133D-02 0.326D-02-0.778D-03-0.678D-01
 Coeff:     -0.576D-02 0.107D+01
 Gap=     0.315 Goal=   None    Shift=    0.000
 RMSDP=2.79D-08 MaxDP=6.27D-07 DE=-2.25D-10 OVMax= 2.04D-06

 Cycle   9  Pass 1  IDiag  1:
 E= -535.650173828206     Delta-E=       -0.000000000012 Rises=F Damp=F
 DIIS: error= 5.68D-08 at cycle   9 NSaved=   9.
 NSaved= 9 IEnMin= 9 EnMin= -535.650173828206     IErMin= 9 ErrMin= 5.68D-08
 ErrMax= 5.68D-08  0.00D+00 EMaxC= 1.00D-01 BMatC= 3.34D-13 BMatP= 5.41D-12
 IDIUse=1 WtCom= 1.00D+00 WtEn= 0.00D+00
 Coeff-Com: -0.240D-04 0.224D-03-0.698D-03-0.640D-03 0.355D-02 0.159D-01
 Coeff-Com: -0.672D-01-0.150D+00 0.120D+01
 Coeff:     -0.240D-04 0.224D-03-0.698D-03-0.640D-03 0.355D-02 0.159D-01
 Coeff:     -0.672D-01-0.150D+00 0.120D+01
 Gap=     0.315 Goal=   None    Shift=    0.000
 RMSDP=9.03D-09 MaxDP=2.19D-07 DE=-1.23D-11 OVMax= 5.68D-07

 SCF Done:  E(RHF) =  -535.650173828     A.U. after    9 cycles
            NFock=  9  Conv=0.90D-08     -V/T= 2.0002
 KE= 5.355421961980D+02 PE=-1.361244114023D+03 EE= 2.508246531556D+02
 Leave Link  502 at Tue Oct 19 15:21:45 2021, MaxMem= 16106127360 cpu:              22.1 elap:               1.5
 (Enter /sw/contrib/gaussian/g16/B01/g16/l801.exe)
 ExpMin= 2.53D-02 ExpMax= 4.56D+05 ExpMxC= 1.44D+03 IAcc=3 IRadAn=         5 AccDes= 0.00D+00
 HarFok:  IExCor=  205 AccDes= 0.00D+00 IRadAn=         5 IDoV=-2 UseB2=F ITyADJ=14
 ICtDFT= 12500011 ScaDFX=  1.000000  1.000000  1.000000  1.000000
 Largest valence mixing into a core orbital is  4.53D-04
 Largest core mixing into a valence orbital is  1.83D-04
 Range of M.O.s used for correlation:     7   142
 NBasis=   142 NAE=    14 NBE=    14 NFC=     6 NFV=     0
 NROrb=    136 NOA=     8 NOB=     8 NVA=   128 NVB=   128

 **** Warning!!: The largest alpha MO coefficient is  0.16514898D+02

 Leave Link  801 at Tue Oct 19 15:21:45 2021, MaxMem= 16106127360 cpu:               2.3 elap:               0.1
 (Enter /sw/contrib/gaussian/g16/B01/g16/l906.exe)
 Frozen-core derivative calculation, NFC=   6 NFV=   0.
 FulOut=F Deriv=T AODrv=T NAtomX=     4
   MMem=         252  MDisk=           8 MDiskD=           8
  W3Min=      326032 MinDsk=      657538 NBas6D=         164
 NBas2D=       13905    NTT=       13530    LW2=     3500000
    MDV= 16105866736 MDiskM=      490971 NBas2p=       13825
 Fully direct method using O(ONN) memory.
 IMap=   1   2   3   4   5   6   7   8   9  10  11  12  13  14
 JobTyp=1 Pass  1:  I=   7 to  14 NPSUse= 28 ParTrn=T ParDer=T DoDerP=T.
 Spin components of T(2) and E(2):
     alpha-alpha T2 =       0.1964696695D-01 E2=     -0.6020733565D-01
     alpha-beta  T2 =       0.1073962289D+00 E2=     -0.3631241232D+00
     beta-beta   T2 =       0.1964696695D-01 E2=     -0.6020733565D-01
 The integrals were generated   1 times.
 ANorm=    0.1070836198D+01
 E2 =    -0.4835387945D+00 EUMP2 =    -0.53613371262268D+03
 Leave Link  906 at Tue Oct 19 15:21:50 2021, MaxMem= 16106127360 cpu:             121.5 elap:               4.4
 (Enter /sw/contrib/gaussian/g16/B01/g16/l1002.exe)
 Minotr:  Closed shell wavefunction.
          Computing MP2/KS-MP2 derivatives.
          Using Z-Vector for PSCF gradient.
          Skipping F1 and S1 gradient terms here.
          IDoAtm=1111
          Frozen-core window.
          Direct CPHF calculation.
          Differentiating once with respect to electric field.
                with respect to dipole field.
          Differentiating once with respect to nuclear coordinates.
          Requested convergence is 1.0D-10 RMS, and 1.0D-09 maximum.
          NewPWx=F KeepS1=T KeepF1=T KeepIn=T MapXYZ=F SortEE=F KeepMc=T.
 Keep R1 ints in memory in canonical form, NReq=65349518.
 FoFCou: FMM=F IPFlag=           0 FMFlag=           0 FMFlg1=           0
         NFxFlg=           0 DoJE=F BraDBF=F KetDBF=F FulRan=T
         wScrn=  0.000000 ICntrl=       600 IOpCl=  0 I1Cent=           0 NGrid=           0
         NMat0=    1 NMatS0=  10153 NMatT0=    0 NMatD0=    1 NMtDS0=    0 NMtDT0=    0
 Symmetry not used in FoFCou.
 Two-electron integral symmetry not used.
          MDV=   16106127360 using IRadAn=       5.
          Solving linear equations separately, MaxMat=       0.
          There are     1 degrees of freedom in the 1st order CPHF.  IDoFFX=0 NUNeed=     1.
 LinEq1:  Iter=  0 NonCon=     1 RMS=3.01D-03 Max=3.89D-02 NDo=     1
 AX will form     1 AO Fock derivatives at one time.
 LinEq1:  Iter=  1 NonCon=     1 RMS=3.76D-04 Max=5.50D-03 NDo=     1
 LinEq1:  Iter=  2 NonCon=     1 RMS=1.13D-04 Max=1.20D-03 NDo=     1
 LinEq1:  Iter=  3 NonCon=     1 RMS=3.68D-05 Max=3.38D-04 NDo=     1
 LinEq1:  Iter=  4 NonCon=     1 RMS=1.06D-05 Max=9.42D-05 NDo=     1
 LinEq1:  Iter=  5 NonCon=     1 RMS=2.67D-06 Max=2.75D-05 NDo=     1
 LinEq1:  Iter=  6 NonCon=     1 RMS=6.57D-07 Max=9.17D-06 NDo=     1
 LinEq1:  Iter=  7 NonCon=     1 RMS=1.65D-07 Max=1.57D-06 NDo=     1
 LinEq1:  Iter=  8 NonCon=     1 RMS=3.86D-08 Max=4.14D-07 NDo=     1
 LinEq1:  Iter=  9 NonCon=     1 RMS=6.81D-09 Max=9.20D-08 NDo=     1
 LinEq1:  Iter= 10 NonCon=     1 RMS=1.11D-09 Max=1.00D-08 NDo=     1
 LinEq1:  Iter= 11 NonCon=     1 RMS=2.77D-10 Max=2.49D-09 NDo=     1
 LinEq1:  Iter= 12 NonCon=     0 RMS=7.19D-11 Max=6.63D-10 NDo=     1
 Linear equations converged to 1.000D-10 1.000D-09 after    12 iterations.
 End of Minotr F.D. properties file   721 does not exist.
 End of Minotr F.D. properties file   722 does not exist.
 End of Minotr F.D. properties file   788 does not exist.
 Leave Link 1002 at Tue Oct 19 15:21:52 2021, MaxMem= 16106127360 cpu:              24.9 elap:               2.2
 (Enter /sw/contrib/gaussian/g16/B01/g16/l701.exe)
 ... and contract with generalized density number  2.
 Compute integral first derivatives.
 Leave Link  701 at Tue Oct 19 15:21:52 2021, MaxMem= 16106127360 cpu:               4.7 elap:               0.2
 (Enter /sw/contrib/gaussian/g16/B01/g16/l702.exe)
 L702 exits ... SP integral derivatives will be done elsewhere.
 Leave Link  702 at Tue Oct 19 15:21:52 2021, MaxMem= 16106127360 cpu:               0.5 elap:               0.0
 (Enter /sw/contrib/gaussian/g16/B01/g16/l703.exe)
 Integral derivatives from FoFJK, PRISM(SPDF).
 Compute integral first derivatives, UseDBF=F ICtDFT=           0.
 Calling FoFJK, ICntrl=  10002127 FMM=F ISym2X=0 I1Cent= 0 IOpClX= 0 NMat=1 NMatS=1 NMatT=0.
 FoFJK:  IHMeth= 1 ICntrl=10002127 DoSepK=F KAlg= 0 I1Cent=           0 FoldK=F
 IRaf=         0 NMat=       1 IRICut=       1 DoRegI=T DoRafI=F ISym2E= 0 IDoP0=0 IntGTp=1.
 FoFCou: FMM=F IPFlag=           0 FMFlag=      100000 FMFlg1=         800
         NFxFlg=           0 DoJE=F BraDBF=F KetDBF=F FulRan=T
         wScrn=  0.000000 ICntrl=  10002127 IOpCl=  0 I1Cent=           0 NGrid=           0
         NMat0=    1 NMatS0=      1 NMatT0=    0 NMatD0=    1 NMtDS0=    0 NMtDT0=    0
 Symmetry not used in FoFCou.
 Leave Link  703 at Tue Oct 19 15:21:53 2021, MaxMem= 16106127360 cpu:              21.2 elap:               0.8
 (Enter /sw/contrib/gaussian/g16/B01/g16/l716.exe)
 Dipole        =-1.02627650D+00-5.36705721D-01-3.58528629D-02
 ***** Axes restored to original set *****
 -------------------------------------------------------------------
 Center     Atomic                   Forces (Hartrees/Bohr)
 Number     Number              X              Y              Z
 -------------------------------------------------------------------
      1        8           0.002262113   -0.000557217    0.002667230
      2        1           0.000032086    0.000060626   -0.000314958
      3       17           0.001052782   -0.000227953    0.001076752
      4        1          -0.003346981    0.000724544   -0.003429023
 -------------------------------------------------------------------
 Cartesian Forces:  Max     0.003429023 RMS     0.001790038
 -----------------------------------------------------------------------------------------------
                       Internal Coordinate Forces (Hartree/Bohr or radian)
  Cent   Atom   N1       Length/X         N2         Alpha/Y        N3         Beta/Z          J
 -----------------------------------------------------------------------------------------------
      1  O 
         X        1   0.000000(     1)
      2  H        1   0.000032(     2)      2   0.000572(     5)
      3  Cl       1   0.000009(     3)      2  -0.006287(     6)      3  -0.006289(     8)     0
      4  H        1  -0.000328(     4)      2   0.006403(     7)      3   0.006399(     9)     0
 -----------------------------------------------------------------------------------------------
 Internal  Forces:  Max     0.006402639 RMS     0.004235345
 Leave Link  716 at Tue Oct 19 15:21:53 2021, MaxMem= 16106127360 cpu:               0.9 elap:               0.1
 (Enter /sw/contrib/gaussian/g16/B01/g16/l103.exe)

 GradGradGradGradGradGradGradGradGradGradGradGradGradGradGradGradGradGrad
 Berny optimization.
 Search for a local minimum.
 Step number   1 out of a maximum of   20 on scan point     2 out of    11
 All quantities printed in internal units (Hartrees-Bohrs-Radians)
 Second derivative matrix not updated -- first step.
 The second derivative matrix:
                          r1        r2        r3        a1        OOP
           r1           0.55341
           r2          -0.00000   0.02156
           r3          -0.00000  -0.00000   0.49013
           a1           0.00000   0.00000   0.00000   0.32000
           OOP          0.00000  -0.00000  -0.00000  -0.00000   0.16000
 ITU=  0
     Eigenvalues ---    0.490131000.000001000.000001000.000001000.00000
 RFO step:  Lambda=-2.20146982D-07 EMin= 4.90130294D-01
 Linear search not attempted -- first point.
 Variable       Old X    -DE/DX   Delta X   Delta X   Delta X     New X
                                 (Linear)    (Quad)   (Total)
    r1        1.81530   0.00003   0.00000   0.00000   0.00000   1.81530
    r2        5.83840   0.00001   0.00000   0.00000   0.00000   5.83840
    r3        1.87575  -0.00033   0.00000  -0.00067  -0.00067   1.87508
    a1        1.77530   0.00011   0.00000   0.00000   0.00000   1.77530
   OOP        1.48353   0.00640   0.00000   0.00000   0.00000   1.48353
         Item               Value     Threshold  Converged?
 Maximum Force            0.000328     0.000450     YES
 RMS     Force            0.000328     0.000300     NO 
 Maximum Displacement     0.000670     0.001800     YES
 RMS     Displacement     0.000300     0.001200     YES
 Predicted change in Energy=-1.100735D-07
 Lowest energy point so far.  Saving SCF results.
 GradGradGradGradGradGradGradGradGradGradGradGradGradGradGradGradGradGrad

 Leave Link  103 at Tue Oct 19 15:21:53 2021, MaxMem= 16106127360 cpu:               0.8 elap:               0.1
 (Enter /sw/contrib/gaussian/g16/B01/g16/l202.exe)
 ---------------------------------------------------------------------------------------------------
                            Z-MATRIX (ANGSTROMS AND DEGREES)
   CD    Cent   Atom    N1       Length/X        N2       Alpha/Y        N3        Beta/Z          J
 ---------------------------------------------------------------------------------------------------
      1      1  O 
      2         X        1  10.000000(     1)
      3      2  H        1   0.960616(     2)      2   90.000(     5)
      4      3  Cl       1   3.089549(     3)      2   90.000(     6)      3  101.717(     8)      0
      5      4  H        1   0.992247(     4)      2   85.000(     7)      3  101.717(     9)      0
 ---------------------------------------------------------------------------------------------------
                         Z-Matrix orientation:                         
 ---------------------------------------------------------------------
 Center     Atomic      Atomic             Coordinates (Angstroms)
 Number     Number       Type             X           Y           Z
 ---------------------------------------------------------------------
      1          8           0        0.000000    0.000000    0.000000
      2         -1           0        0.000000    0.000000   10.000000
      3          1           0        0.960616    0.000000    0.000000
      4         17           0       -0.627430   -3.025169    0.000000
      5          1           0       -0.200740   -0.967874    0.086480
 ---------------------------------------------------------------------
                    Distance matrix (angstroms):
                    1          2          3          4          5
     1  O    0.000000
     2  X   10.000000   0.000000
     3  H    0.960616  10.046033   0.000000
     4  Cl   3.089549  10.466390   3.416656   0.000000
     5  H    0.992247   9.962678   1.514268   2.102857   0.000000
 Stoichiometry    ClH2O(1-)
 Framework group  C1[X(ClH2O)]
 Deg. of freedom     6
 Full point group                 C1      NOp   1
 RotChk:  IX=1 Diff= 2.42D-06
 Largest Abelian subgroup         C1      NOp   1
 Largest concise Abelian subgroup C1      NOp   1
                         Standard orientation:                         
 ---------------------------------------------------------------------
 Center     Atomic      Atomic             Coordinates (Angstroms)
 Number     Number       Type             X           Y           Z
 ---------------------------------------------------------------------
      1          8           0       -1.972154    0.105141    0.006918
      2          1           0       -2.200636   -0.827881   -0.000058
      3         17           0        1.115430   -0.004932    0.001529
      4          1           0       -0.984438    0.070602   -0.081283
 ---------------------------------------------------------------------
 Rotational constants (GHZ):         321.8480455           4.3425152           4.2852347
 Leave Link  202 at Tue Oct 19 15:21:53 2021, MaxMem= 16106127360 cpu:               1.0 elap:               0.1
 (Enter /sw/contrib/gaussian/g16/B01/g16/l301.exe)
 Standard basis: Aug-CC-pVTZ (5D, 7F)
 Ernie: Thresh=  0.10000D-02 Tol=  0.10000D-05 Strict=F.
 Ernie:  16 primitive shells out of 116 were deleted.
 There are   164 symmetry adapted cartesian basis functions of A   symmetry.
 There are   142 symmetry adapted basis functions of A   symmetry.
   142 basis functions,   240 primitive gaussians,   164 cartesian basis functions
    14 alpha electrons       14 beta electrons
       nuclear repulsion energy        39.2279636911 Hartrees.
 IExCor=    0 DFT=F Ex=HF Corr=None ExCW=0 ScaHFX=  1.000000
 ScaDFX=  1.000000  1.000000  1.000000  1.000000 ScalE2=  1.000000  1.000000
 IRadAn=      5 IRanWt=     -1 IRanGd=            0 ICorTp=0 IEmpDi=  4
 NAtoms=    4 NActive=    4 NUniq=    4 SFac= 1.00D+00 NAtFMM=   60 NAOKFM=F Big=F
 Integral buffers will be    131072 words long.
 Raffenetti 1 integral format.
 Two-electron integral symmetry is turned on.
 Leave Link  301 at Tue Oct 19 15:21:53 2021, MaxMem= 16106127360 cpu:               1.5 elap:               0.1
 (Enter /sw/contrib/gaussian/g16/B01/g16/l302.exe)
 NPDir=0 NMtPBC=     1 NCelOv=     1 NCel=       1 NClECP=     1 NCelD=      1
         NCelK=      1 NCelE2=     1 NClLst=     1 CellRange=     0.0.
 One-electron integrals computed using PRISM.
 One-electron integral symmetry used in STVInt
 NBasis=   142 RedAO= T EigKep=  2.87D-04  NBF=   142
 NBsUse=   142 1.00D-06 EigRej= -1.00D+00 NBFU=   142
 Leave Link  302 at Tue Oct 19 15:21:53 2021, MaxMem= 16106127360 cpu:               4.0 elap:               0.2
 (Enter /sw/contrib/gaussian/g16/B01/g16/l303.exe)
 DipDrv:  MaxL=1.
 Leave Link  303 at Tue Oct 19 15:21:53 2021, MaxMem= 16106127360 cpu:               0.6 elap:               0.0
 (Enter /sw/contrib/gaussian/g16/B01/g16/l401.exe)
 Initial guess from the checkpoint file:  "/gscratch/ilahie/mccoygrp/coire_hocl/oop_s_rOH_opt/clhod/clhod_oop_s.chk"
 B after Tr=    -0.000000    0.000000   -0.000000
         Rot=    1.000000   -0.000001   -0.000000   -0.000000 Ang=  -0.00 deg.
 Guess basis will be translated and rotated to current coordinates.
 JPrj=2 DoOrth=T DoCkMO=T.
 Leave Link  401 at Tue Oct 19 15:21:54 2021, MaxMem= 16106127360 cpu:               6.5 elap:               0.3
 (Enter /sw/contrib/gaussian/g16/B01/g16/l502.exe)
 Keep R1 ints in memory in canonical form, NReq=65346601.
 FoFCou: FMM=F IPFlag=           0 FMFlag=           0 FMFlg1=           0
         NFxFlg=           0 DoJE=F BraDBF=F KetDBF=F FulRan=T
         wScrn=  0.000000 ICntrl=       600 IOpCl=  0 I1Cent=           0 NGrid=           0
         NMat0=    1 NMatS0=  10153 NMatT0=    0 NMatD0=    1 NMtDS0=    0 NMtDT0=    0
 Symmetry not used in FoFCou.
 Two-electron integral symmetry not used.
 Closed shell SCF:
 Using DIIS extrapolation, IDIIS=  1040.
 NGot= 16106127360 LenX= 16054520747 LenY= 16054493410
 Requested convergence on RMS density matrix=1.00D-08 within 128 cycles.
 Requested convergence on MAX density matrix=1.00D-06.
 Requested convergence on             energy=1.00D-06.
 No special actions if energy rises.

 Cycle   1  Pass 1  IDiag  1:
 E= -535.650192176708    
 DIIS: error= 1.92D-05 at cycle   1 NSaved=   1.
 NSaved= 1 IEnMin= 1 EnMin= -535.650192176708     IErMin= 1 ErrMin= 1.92D-05
 ErrMax= 1.92D-05  0.00D+00 EMaxC= 1.00D-01 BMatC= 5.63D-08 BMatP= 5.63D-08
 IDIUse=1 WtCom= 1.00D+00 WtEn= 0.00D+00
 Coeff-Com:  0.100D+01
 Coeff:      0.100D+01
 Gap=     0.642 Goal=   None    Shift=    0.000
 RMSDP=2.09D-06 MaxDP=7.10D-05              OVMax= 6.01D-05

 Cycle   2  Pass 1  IDiag  1:
 E= -535.650192218648     Delta-E=       -0.000000041940 Rises=F Damp=F
 DIIS: error= 5.53D-06 at cycle   2 NSaved=   2.
 NSaved= 2 IEnMin= 2 EnMin= -535.650192218648     IErMin= 2 ErrMin= 5.53D-06
 ErrMax= 5.53D-06  0.00D+00 EMaxC= 1.00D-01 BMatC= 3.38D-09 BMatP= 5.63D-08
 IDIUse=1 WtCom= 1.00D+00 WtEn= 0.00D+00
 Coeff-Com:  0.858D-02 0.991D+00
 Coeff:      0.858D-02 0.991D+00
 Gap=     0.315 Goal=   None    Shift=    0.000
 RMSDP=3.81D-07 MaxDP=1.19D-05 DE=-4.19D-08 OVMax= 2.14D-05

 Cycle   3  Pass 1  IDiag  1:
 E= -535.650192221300     Delta-E=       -0.000000002653 Rises=F Damp=F
 DIIS: error= 3.10D-06 at cycle   3 NSaved=   3.
 NSaved= 3 IEnMin= 3 EnMin= -535.650192221300     IErMin= 3 ErrMin= 3.10D-06
 ErrMax= 3.10D-06  0.00D+00 EMaxC= 1.00D-01 BMatC= 8.04D-10 BMatP= 3.38D-09
 IDIUse=1 WtCom= 1.00D+00 WtEn= 0.00D+00
 Coeff-Com: -0.520D-01 0.289D+00 0.763D+00
 Coeff:     -0.520D-01 0.289D+00 0.763D+00
 Gap=     0.315 Goal=   None    Shift=    0.000
 RMSDP=1.20D-07 MaxDP=3.12D-06 DE=-2.65D-09 OVMax= 7.73D-06

 Cycle   4  Pass 1  IDiag  1:
 E= -535.650192221927     Delta-E=       -0.000000000627 Rises=F Damp=F
 DIIS: error= 5.35D-07 at cycle   4 NSaved=   4.
 NSaved= 4 IEnMin= 4 EnMin= -535.650192221927     IErMin= 4 ErrMin= 5.35D-07
 ErrMax= 5.35D-07  0.00D+00 EMaxC= 1.00D-01 BMatC= 3.15D-11 BMatP= 8.04D-10
 IDIUse=1 WtCom= 1.00D+00 WtEn= 0.00D+00
 Coeff-Com: -0.372D-02-0.506D-01 0.648D-01 0.990D+00
 Coeff:     -0.372D-02-0.506D-01 0.648D-01 0.990D+00
 Gap=     0.315 Goal=   None    Shift=    0.000
 RMSDP=4.31D-08 MaxDP=1.21D-06 DE=-6.27D-10 OVMax= 3.06D-06

 Cycle   5  Pass 1  IDiag  1:
 E= -535.650192221975     Delta-E=       -0.000000000048 Rises=F Damp=F
 DIIS: error= 1.26D-07 at cycle   5 NSaved=   5.
 NSaved= 5 IEnMin= 5 EnMin= -535.650192221975     IErMin= 5 ErrMin= 1.26D-07
 ErrMax= 1.26D-07  0.00D+00 EMaxC= 1.00D-01 BMatC= 1.45D-12 BMatP= 3.15D-11
 IDIUse=1 WtCom= 1.00D+00 WtEn= 0.00D+00
 Coeff-Com:  0.327D-02-0.118D-01-0.531D-01-0.131D+00 0.119D+01
 Coeff:      0.327D-02-0.118D-01-0.531D-01-0.131D+00 0.119D+01
 Gap=     0.315 Goal=   None    Shift=    0.000
 RMSDP=1.58D-08 MaxDP=5.23D-07 DE=-4.75D-11 OVMax= 1.19D-06

 Cycle   6  Pass 1  IDiag  1:
 E= -535.650192221978     Delta-E=       -0.000000000003 Rises=F Damp=F
 DIIS: error= 2.41D-08 at cycle   6 NSaved=   6.
 NSaved= 6 IEnMin= 6 EnMin= -535.650192221978     IErMin= 6 ErrMin= 2.41D-08
 ErrMax= 2.41D-08  0.00D+00 EMaxC= 1.00D-01 BMatC= 7.77D-14 BMatP= 1.45D-12
 IDIUse=1 WtCom= 1.00D+00 WtEn= 0.00D+00
 Coeff-Com: -0.731D-03 0.518D-02 0.110D-01-0.354D-02-0.312D+00 0.130D+01
 Coeff:     -0.731D-03 0.518D-02 0.110D-01-0.354D-02-0.312D+00 0.130D+01
 Gap=     0.315 Goal=   None    Shift=    0.000
 RMSDP=3.98D-09 MaxDP=1.14D-07 DE=-3.30D-12 OVMax= 2.66D-07

 SCF Done:  E(RHF) =  -535.650192222     A.U. after    6 cycles
            NFock=  6  Conv=0.40D-08     -V/T= 2.0002
 KE= 5.355427571808D+02 PE=-1.361246184995D+03 EE= 2.508252719013D+02
 Leave Link  502 at Tue Oct 19 15:21:55 2021, MaxMem= 16106127360 cpu:              16.4 elap:               1.0
 (Enter /sw/contrib/gaussian/g16/B01/g16/l801.exe)
 ExpMin= 2.53D-02 ExpMax= 4.56D+05 ExpMxC= 1.44D+03 IAcc=3 IRadAn=         5 AccDes= 0.00D+00
 HarFok:  IExCor=  205 AccDes= 0.00D+00 IRadAn=         5 IDoV=-2 UseB2=F ITyADJ=14
 ICtDFT= 12500011 ScaDFX=  1.000000  1.000000  1.000000  1.000000
 Largest valence mixing into a core orbital is  4.53D-04
 Largest core mixing into a valence orbital is  1.83D-04
 Range of M.O.s used for correlation:     7   142
 NBasis=   142 NAE=    14 NBE=    14 NFC=     6 NFV=     0
 NROrb=    136 NOA=     8 NOB=     8 NVA=   128 NVB=   128

 **** Warning!!: The largest alpha MO coefficient is  0.16521915D+02

 Leave Link  801 at Tue Oct 19 15:21:55 2021, MaxMem= 16106127360 cpu:               4.4 elap:               0.2
 (Enter /sw/contrib/gaussian/g16/B01/g16/l906.exe)
 Frozen-core derivative calculation, NFC=   6 NFV=   0.
 FulOut=F Deriv=T AODrv=T NAtomX=     4
   MMem=         252  MDisk=           8 MDiskD=           8
  W3Min=      326032 MinDsk=      657538 NBas6D=         164
 NBas2D=       13905    NTT=       13530    LW2=     3500000
    MDV= 16105866736 MDiskM=      490971 NBas2p=       13825
 Fully direct method using O(ONN) memory.
 IMap=   1   2   3   4   5   6   7   8   9  10  11  12  13  14
 JobTyp=1 Pass  1:  I=   7 to  14 NPSUse= 28 ParTrn=T ParDer=T DoDerP=T.
 Spin components of T(2) and E(2):
     alpha-alpha T2 =       0.1964505396D-01 E2=     -0.6020441333D-01
     alpha-beta  T2 =       0.1073868395D+00 E2=     -0.3631117086D+00
     beta-beta   T2 =       0.1964505396D-01 E2=     -0.6020441333D-01
 The integrals were generated   1 times.
 ANorm=    0.1070830027D+01
 E2 =    -0.4835205352D+00 EUMP2 =    -0.53613371275719D+03
 Leave Link  906 at Tue Oct 19 15:22:00 2021, MaxMem= 16106127360 cpu:             126.6 elap:               4.6
 (Enter /sw/contrib/gaussian/g16/B01/g16/l1002.exe)
 Minotr:  Closed shell wavefunction.
          Computing MP2/KS-MP2 derivatives.
          Using Z-Vector for PSCF gradient.
          Skipping F1 and S1 gradient terms here.
          IDoAtm=1111
          Frozen-core window.
          Direct CPHF calculation.
          Differentiating once with respect to electric field.
                with respect to dipole field.
          Differentiating once with respect to nuclear coordinates.
          Requested convergence is 1.0D-10 RMS, and 1.0D-09 maximum.
          NewPWx=F KeepS1=T KeepF1=T KeepIn=T MapXYZ=F SortEE=F KeepMc=T.
 Keep R1 ints in memory in canonical form, NReq=65349518.
 FoFCou: FMM=F IPFlag=           0 FMFlag=           0 FMFlg1=           0
         NFxFlg=           0 DoJE=F BraDBF=F KetDBF=F FulRan=T
         wScrn=  0.000000 ICntrl=       600 IOpCl=  0 I1Cent=           0 NGrid=           0
         NMat0=    1 NMatS0=  10153 NMatT0=    0 NMatD0=    1 NMtDS0=    0 NMtDT0=    0
 Symmetry not used in FoFCou.
 Two-electron integral symmetry not used.
          MDV=   16106127360 using IRadAn=       5.
          Solving linear equations separately, MaxMat=       0.
          There are     1 degrees of freedom in the 1st order CPHF.  IDoFFX=0 NUNeed=     1.
 LinEq1:  Iter=  0 NonCon=     1 RMS=3.01D-03 Max=3.89D-02 NDo=     1
 AX will form     1 AO Fock derivatives at one time.
 LinEq1:  Iter=  1 NonCon=     1 RMS=3.76D-04 Max=5.49D-03 NDo=     1
 LinEq1:  Iter=  2 NonCon=     1 RMS=1.13D-04 Max=1.20D-03 NDo=     1
 LinEq1:  Iter=  3 NonCon=     1 RMS=3.68D-05 Max=3.38D-04 NDo=     1
 LinEq1:  Iter=  4 NonCon=     1 RMS=1.06D-05 Max=9.43D-05 NDo=     1
 LinEq1:  Iter=  5 NonCon=     1 RMS=2.66D-06 Max=2.75D-05 NDo=     1
 LinEq1:  Iter=  6 NonCon=     1 RMS=6.56D-07 Max=9.17D-06 NDo=     1
 LinEq1:  Iter=  7 NonCon=     1 RMS=1.64D-07 Max=1.57D-06 NDo=     1
 LinEq1:  Iter=  8 NonCon=     1 RMS=3.86D-08 Max=4.13D-07 NDo=     1
 LinEq1:  Iter=  9 NonCon=     1 RMS=6.80D-09 Max=9.20D-08 NDo=     1
 LinEq1:  Iter= 10 NonCon=     1 RMS=1.11D-09 Max=1.00D-08 NDo=     1
 LinEq1:  Iter= 11 NonCon=     1 RMS=2.77D-10 Max=2.48D-09 NDo=     1
 LinEq1:  Iter= 12 NonCon=     0 RMS=7.19D-11 Max=6.63D-10 NDo=     1
 Linear equations converged to 1.000D-10 1.000D-09 after    12 iterations.
 End of Minotr F.D. properties file   721 does not exist.
 End of Minotr F.D. properties file   722 does not exist.
 End of Minotr F.D. properties file   788 does not exist.
 Leave Link 1002 at Tue Oct 19 15:22:02 2021, MaxMem= 16106127360 cpu:              24.7 elap:               2.0
 (Enter /sw/contrib/gaussian/g16/B01/g16/l701.exe)
 ... and contract with generalized density number  2.
 Compute integral first derivatives.
 Leave Link  701 at Tue Oct 19 15:22:02 2021, MaxMem= 16106127360 cpu:               5.8 elap:               0.3
 (Enter /sw/contrib/gaussian/g16/B01/g16/l702.exe)
 L702 exits ... SP integral derivatives will be done elsewhere.
 Leave Link  702 at Tue Oct 19 15:22:02 2021, MaxMem= 16106127360 cpu:               0.6 elap:               0.0
 (Enter /sw/contrib/gaussian/g16/B01/g16/l703.exe)
 Integral derivatives from FoFJK, PRISM(SPDF).
 Compute integral first derivatives, UseDBF=F ICtDFT=           0.
 Calling FoFJK, ICntrl=  10002127 FMM=F ISym2X=0 I1Cent= 0 IOpClX= 0 NMat=1 NMatS=1 NMatT=0.
 FoFJK:  IHMeth= 1 ICntrl=10002127 DoSepK=F KAlg= 0 I1Cent=           0 FoldK=F
 IRaf=         0 NMat=       1 IRICut=       1 DoRegI=T DoRafI=F ISym2E= 0 IDoP0=0 IntGTp=1.
 FoFCou: FMM=F IPFlag=           0 FMFlag=      100000 FMFlg1=         800
         NFxFlg=           0 DoJE=F BraDBF=F KetDBF=F FulRan=T
         wScrn=  0.000000 ICntrl=  10002127 IOpCl=  0 I1Cent=           0 NGrid=           0
         NMat0=    1 NMatS0=      1 NMatT0=    0 NMatD0=    1 NMtDS0=    0 NMtDT0=    0
 Symmetry not used in FoFCou.
 Leave Link  703 at Tue Oct 19 15:22:03 2021, MaxMem= 16106127360 cpu:              21.6 elap:               0.8
 (Enter /sw/contrib/gaussian/g16/B01/g16/l716.exe)
 Dipole        =-1.02704975D+00-5.36729735D-01-3.58494530D-02
 ***** Axes restored to original set *****
 -------------------------------------------------------------------
 Center     Atomic                   Forces (Hartrees/Bohr)
 Number     Number              X              Y              Z
 -------------------------------------------------------------------
      1        8           0.002330171   -0.000305025    0.002644336
      2        1           0.000028084    0.000068144   -0.000315822
      3       17           0.001052271   -0.000233775    0.001075687
[...]
          Direct CPHF calculation.
          Differentiating once with respect to electric field.
                with respect to dipole field.
          Differentiating once with respect to nuclear coordinates.
          Requested convergence is 1.0D-10 RMS, and 1.0D-09 maximum.
          NewPWx=F KeepS1=T KeepF1=T KeepIn=T MapXYZ=F SortEE=F KeepMc=T.
 Keep R1 ints in memory in canonical form, NReq=65349254.
 FoFCou: FMM=F IPFlag=           0 FMFlag=           0 FMFlg1=           0
         NFxFlg=           0 DoJE=F BraDBF=F KetDBF=F FulRan=T
         wScrn=  0.000000 ICntrl=       600 IOpCl=  0 I1Cent=           0 NGrid=           0
         NMat0=    1 NMatS0=  10153 NMatT0=    0 NMatD0=    1 NMtDS0=    0 NMtDT0=    0
 Symmetry not used in FoFCou.
 Two-electron integral symmetry not used.
          MDV=   16106127360 using IRadAn=       5.
          Solving linear equations separately, MaxMat=       0.
          There are     1 degrees of freedom in the 1st order CPHF.  IDoFFX=0 NUNeed=     1.
 LinEq1:  Iter=  0 NonCon=     1 RMS=3.02D-03 Max=3.24D-02 NDo=     1
 AX will form     1 AO Fock derivatives at one time.
 LinEq1:  Iter=  1 NonCon=     1 RMS=3.94D-04 Max=4.10D-03 NDo=     1
 LinEq1:  Iter=  2 NonCon=     1 RMS=1.13D-04 Max=9.49D-04 NDo=     1
 LinEq1:  Iter=  3 NonCon=     1 RMS=4.09D-05 Max=3.01D-04 NDo=     1
 LinEq1:  Iter=  4 NonCon=     1 RMS=1.13D-05 Max=1.09D-04 NDo=     1
 LinEq1:  Iter=  5 NonCon=     1 RMS=3.42D-06 Max=3.08D-05 NDo=     1
 LinEq1:  Iter=  6 NonCon=     1 RMS=9.36D-07 Max=7.53D-06 NDo=     1
 LinEq1:  Iter=  7 NonCon=     1 RMS=2.07D-07 Max=1.47D-06 NDo=     1
 LinEq1:  Iter=  8 NonCon=     1 RMS=4.74D-08 Max=4.57D-07 NDo=     1
 LinEq1:  Iter=  9 NonCon=     1 RMS=1.03D-08 Max=9.15D-08 NDo=     1
 LinEq1:  Iter= 10 NonCon=     1 RMS=1.69D-09 Max=1.33D-08 NDo=     1
 LinEq1:  Iter= 11 NonCon=     1 RMS=2.67D-10 Max=2.38D-09 NDo=     1
 LinEq1:  Iter= 12 NonCon=     0 RMS=5.92D-11 Max=6.48D-10 NDo=     1
 Linear equations converged to 1.000D-10 1.000D-09 after    12 iterations.
 End of Minotr F.D. properties file   721 does not exist.
 End of Minotr F.D. properties file   722 does not exist.
 End of Minotr F.D. properties file   788 does not exist.
 Leave Link 1002 at Tue Oct 19 15:24:52 2021, MaxMem= 16106127360 cpu:              22.4 elap:               1.8
 (Enter /sw/contrib/gaussian/g16/B01/g16/l701.exe)
 ... and contract with generalized density number  2.
 Compute integral first derivatives.
 Leave Link  701 at Tue Oct 19 15:24:52 2021, MaxMem= 16106127360 cpu:               4.7 elap:               0.2
 (Enter /sw/contrib/gaussian/g16/B01/g16/l702.exe)
 L702 exits ... SP integral derivatives will be done elsewhere.
 Leave Link  702 at Tue Oct 19 15:24:52 2021, MaxMem= 16106127360 cpu:               0.4 elap:               0.0
 (Enter /sw/contrib/gaussian/g16/B01/g16/l703.exe)
 Integral derivatives from FoFJK, PRISM(SPDF).
 Compute integral first derivatives, UseDBF=F ICtDFT=           0.
 Calling FoFJK, ICntrl=  10002127 FMM=F ISym2X=0 I1Cent= 0 IOpClX= 0 NMat=1 NMatS=1 NMatT=0.
 FoFJK:  IHMeth= 1 ICntrl=10002127 DoSepK=F KAlg= 0 I1Cent=           0 FoldK=F
 IRaf=         0 NMat=       1 IRICut=       1 DoRegI=T DoRafI=F ISym2E= 0 IDoP0=0 IntGTp=1.
 FoFCou: FMM=F IPFlag=           0 FMFlag=      100000 FMFlg1=         800
         NFxFlg=           0 DoJE=F BraDBF=F KetDBF=F FulRan=T
         wScrn=  0.000000 ICntrl=  10002127 IOpCl=  0 I1Cent=           0 NGrid=           0
         NMat0=    1 NMatS0=      1 NMatT0=    0 NMatD0=    1 NMtDS0=    0 NMtDT0=    0
 Symmetry not used in FoFCou.
 Leave Link  703 at Tue Oct 19 15:24:53 2021, MaxMem= 16106127360 cpu:              22.2 elap:               0.8
 (Enter /sw/contrib/gaussian/g16/B01/g16/l716.exe)
 Dipole        =-1.60419932D+00-4.35492338D-01-4.31940467D-01
 ***** Axes restored to original set *****
 -------------------------------------------------------------------
 Center     Atomic                   Forces (Hartrees/Bohr)
 Number     Number              X              Y              Z
 -------------------------------------------------------------------
      1        8           0.008845700    0.012279489    0.013968871
      2        1           0.003118225    0.002272436   -0.007968526
      3       17           0.000530135   -0.003988507    0.004766831
      4        1          -0.012494061   -0.010563418   -0.010767176
 -------------------------------------------------------------------
 Cartesian Forces:  Max     0.013968871 RMS     0.008780080
 -----------------------------------------------------------------------------------------------
                       Internal Coordinate Forces (Hartree/Bohr or radian)
  Cent   Atom   N1       Length/X         N2         Alpha/Y        N3         Beta/Z          J
 -----------------------------------------------------------------------------------------------
      1  O 
         X        1   0.000000(     1)
      2  H        1   0.003118(     2)      2   0.014465(     5)
      3  Cl       1   0.003798(     3)      2  -0.027831(     6)      3  -0.007760(     8)     0
      4  H        1   0.000031(     4)      2   0.030768(     7)      3   0.011885(     9)     0
 -----------------------------------------------------------------------------------------------
 Internal  Forces:  Max     0.030768282 RMS     0.015477898
 Leave Link  716 at Tue Oct 19 15:24:53 2021, MaxMem= 16106127360 cpu:               1.4 elap:               0.1
 (Enter /sw/contrib/gaussian/g16/B01/g16/l103.exe)

 GradGradGradGradGradGradGradGradGradGradGradGradGradGradGradGradGradGrad
 Berny optimization.
 Search for a local minimum.
 Step number   2 out of a maximum of   20 on scan point    11 out of    11
 All quantities printed in internal units (Hartrees-Bohrs-Radians)
 Update second derivatives using D2CorN and points    1    2
 DE= -2.46D-06 DEPred=-2.50D-06 R= 9.82D-01
 TightC=F SS=  1.41D+00  RLast= 3.18D-03 DXNew= 5.0454D-01 9.5465D-03
 Trust test= 9.82D-01 RLast= 3.18D-03 DXMaxT set to 3.00D-01
 The second derivative matrix:
                          r1        r2        r3        a1        OOP
           r1           0.55341
           r2          -0.00000   0.02156
           r3          -0.00512   0.00151   0.50423
           a1           0.00000   0.00000   0.01972   0.32000
           OOP          0.00000  -0.00000  -0.02006  -0.00000   0.16000
 ITU=  1  0
     Eigenvalues ---    0.504231000.000001000.000001000.000001000.00000
 RFO step:  Lambda= 0.00000000D+00 EMin= 5.04233648D-01
 Quartic linear search produced a step of -0.01941.
 Variable       Old X    -DE/DX   Delta X   Delta X   Delta X     New X
                                 (Linear)    (Quad)   (Total)
    r1        1.81530   0.00312   0.00000   0.00000   0.00000   1.81530
    r2        5.83840   0.00380   0.00000   0.00000   0.00000   5.83840
    r3        1.83274   0.00003   0.00006  -0.00000   0.00006   1.83280
    a1        1.77530   0.00413   0.00000   0.00000   0.00000   1.77530
   OOP        0.69813   0.03077   0.00000   0.00000   0.00000   0.69813
         Item               Value     Threshold  Converged?
 Maximum Force            0.000031     0.000450     YES
 RMS     Force            0.000031     0.000300     YES
 Maximum Displacement     0.000062     0.001800     YES
 RMS     Displacement     0.000028     0.001200     YES
 Predicted change in Energy=-9.751015D-10
 Optimization completed.
    -- Stationary point found.
                       ----------------------------
                       !   Optimized Parameters   !
                       ! (Angstroms and Degrees)  !
 ----------------------                            ----------------------
 !      Name          Value   Derivative information (Atomic Units)     !
 ------------------------------------------------------------------------
 !       r1          0.9606   -DE/DX =    0.0031                        !
 !       r2          3.0895   -DE/DX =    0.0038                        !
 !       r3          0.9698   -DE/DX =    0.0                           !
 !       a1        101.7172   -DE/DX =    0.0041                        !
 !       OOP        40.0      -DE/DX =    0.0308                        !
 ------------------------------------------------------------------------
 Lowest energy point so far.  Saving SCF results.
 Summary of Optimized Potential Surface Scan (add -536.0 to energies):
                           1         2         3         4         5
     Eigenvalues --    -0.13399  -0.13371  -0.13289  -0.13156  -0.12979
           r1           0.96062   0.96062   0.96062   0.96062   0.96062
           r2           3.08955   3.08955   3.08955   3.08955   3.08955
           r3           0.99260   0.99225   0.99095   0.98828   0.98539
           a1         101.71721 101.71721 101.71721 101.71721 101.71721
           OOP         90.00000  85.00000  80.00000  75.00000  70.00000
                           6         7         8         9        10
     Eigenvalues --    -0.12767  -0.12528  -0.12270  -0.12002  -0.11731
           r1           0.96062   0.96062   0.96062   0.96062   0.96062
           r2           3.08955   3.08955   3.08955   3.08955   3.08955
           r3           0.98226   0.97913   0.97622   0.97366   0.97153
           a1         101.71721 101.71721 101.71721 101.71721 101.71721
           OOP         65.00000  60.00000  55.00000  50.00000  45.00000
                          11
     Eigenvalues --    -0.11460
           r1           0.96062
           r2           3.08955
           r3           0.96984
           a1         101.71721
           OOP         40.00000
 Largest change from initial coordinates is atom    2       1.708 Angstoms.
 GradGradGradGradGradGradGradGradGradGradGradGradGradGradGradGradGradGrad

 Leave Link  103 at Tue Oct 19 15:24:53 2021, MaxMem= 16106127360 cpu:               2.0 elap:               0.1
 (Enter /sw/contrib/gaussian/g16/B01/g16/l202.exe)
 ---------------------------------------------------------------------------------------------------
                            Z-MATRIX (ANGSTROMS AND DEGREES)
   CD    Cent   Atom    N1       Length/X        N2       Alpha/Y        N3        Beta/Z          J
 ---------------------------------------------------------------------------------------------------
      1      1  O 
      2         X        1  10.000000(     1)
      3      2  H        1   0.960616(     2)      2   90.000(     5)
      4      3  Cl       1   3.089549(     3)      2   90.000(     6)      3  101.717(     8)      0
      5      4  H        1   0.969845(     4)      2   40.000(     7)      3  101.717(     9)      0
 ---------------------------------------------------------------------------------------------------
                         Z-Matrix orientation:                         
 ---------------------------------------------------------------------
 Center     Atomic      Atomic             Coordinates (Angstroms)
 Number     Number       Type             X           Y           Z
 ---------------------------------------------------------------------
      1          8           0        0.000000    0.000000    0.000000
      2         -1           0        0.000000    0.000000   10.000000
      3          1           0        0.960616    0.000000    0.000000
      4         17           0       -0.627430   -3.025169    0.000000
      5          1           0       -0.126602   -0.610414    0.742944
 ---------------------------------------------------------------------
                    Distance matrix (angstroms):
                    1          2          3          4          5
     1  O    0.000000
     2  X   10.000000   0.000000
     3  H    0.960616  10.046033   0.000000
     4  Cl   3.089549  10.466390   3.416656   0.000000
     5  H    0.969845   9.278023   1.451418   2.575624   0.000000
 Stoichiometry    ClH2O(1-)
 Framework group  C1[X(ClH2O)]
 Deg. of freedom     6
 Full point group                 C1      NOp   1
 RotChk:  IX=1 Diff= 4.13D-16
 Largest Abelian subgroup         C1      NOp   1
 Largest concise Abelian subgroup C1      NOp   1
                         Standard orientation:                         
 ---------------------------------------------------------------------
 Center     Atomic      Atomic             Coordinates (Angstroms)
 Number     Number       Type             X           Y           Z
 ---------------------------------------------------------------------
      1          8           0       -1.957977    0.088026    0.081258
      2          1           0       -2.185721   -0.824871   -0.112483
      3         17           0        1.129247   -0.006210    0.007183
      4          1           0       -1.347662    0.226238   -0.659696
 ---------------------------------------------------------------------
 Rotational constants (GHZ):         240.4546713           4.2902494           4.2528433
 Leave Link  202 at Tue Oct 19 15:24:53 2021, MaxMem= 16106127360 cpu:               0.7 elap:               0.0
 (Enter /sw/contrib/gaussian/g16/B01/g16/l601.exe)
 Copying SCF densities to generalized density rwf, IOpCl= 0 IROHF=0.

 **********************************************************************

            Population analysis using the MP2 Density.

 **********************************************************************

 Orbital symmetries:
       Occupied  (A) (A) (A) (A) (A) (A) (A) (A) (A) (A) (A) (A)
                 (A) (A)
       Virtual   (A) (A) (A) (A) (A) (A) (A) (A) (A) (A) (A) (A)
                 (A) (A) (A) (A) (A) (A) (A) (A) (A) (A) (A) (A)
                 (A) (A) (A) (A) (A) (A) (A) (A) (A) (A) (A) (A)
                 (A) (A) (A) (A) (A) (A) (A) (A) (A) (A) (A) (A)
                 (A) (A) (A) (A) (A) (A) (A) (A) (A) (A) (A) (A)
                 (A) (A) (A) (A) (A) (A) (A) (A) (A) (A) (A) (A)
                 (A) (A) (A) (A) (A) (A) (A) (A) (A) (A) (A) (A)
                 (A) (A) (A) (A) (A) (A) (A) (A) (A) (A) (A) (A)
                 (A) (A) (A) (A) (A) (A) (A) (A) (A) (A) (A) (A)
                 (A) (A) (A) (A) (A) (A) (A) (A) (A) (A) (A) (A)
                 (A) (A) (A) (A) (A) (A) (A) (A)
 The electronic state is 1-A.
 Alpha  occ. eigenvalues -- -104.51169 -20.39835 -10.23585  -7.70192  -7.70189
 Alpha  occ. eigenvalues --   -7.70184  -1.18351  -0.74269  -0.52895  -0.42941
 Alpha  occ. eigenvalues --   -0.34231  -0.15997  -0.15842  -0.15603
 Alpha virt. eigenvalues --    0.13808   0.16763   0.25414   0.26996   0.28878
 Alpha virt. eigenvalues --    0.29619   0.29648   0.31276   0.33689   0.37264
 Alpha virt. eigenvalues --    0.39433   0.42297   0.43854   0.47639   0.51224
 Alpha virt. eigenvalues --    0.56179   0.57793   0.59271   0.61615   0.63999
 Alpha virt. eigenvalues --    0.65272   0.67050   0.69075   0.75720   0.83002
 Alpha virt. eigenvalues --    0.86388   0.87771   0.89570   0.90708   0.91790
 Alpha virt. eigenvalues --    0.99883   1.01883   1.06332   1.07017   1.08979
 Alpha virt. eigenvalues --    1.09697   1.12056   1.15940   1.17276   1.19799
 Alpha virt. eigenvalues --    1.21981   1.22822   1.23071   1.23634   1.25470
 Alpha virt. eigenvalues --    1.27788   1.28650   1.30644   1.36372   1.40803
 Alpha virt. eigenvalues --    1.42910   1.46611   1.46879   1.48351   1.54679
 Alpha virt. eigenvalues --    1.55521   1.65587   1.66769   1.70705   1.79240
 Alpha virt. eigenvalues --    1.80923   1.89693   2.04817   2.07739   2.16488
 Alpha virt. eigenvalues --    2.33488   2.46770   2.51256   2.56574   2.61188
 Alpha virt. eigenvalues --    2.63696   2.68462   2.70426   2.82859   2.83064
 Alpha virt. eigenvalues --    2.83795   2.85981   2.87687   2.92350   2.94035
 Alpha virt. eigenvalues --    2.97658   2.98617   2.99661   3.00284   3.09649
 Alpha virt. eigenvalues --    3.17352   3.36401   3.36490   3.39524   3.40121
 Alpha virt. eigenvalues --    3.46673   3.48562   3.58523   3.88863   3.91609
 Alpha virt. eigenvalues --    4.26627   4.29628   4.35916   4.42346   4.47355
 Alpha virt. eigenvalues --    4.54149   4.59705   4.62732   4.72992   4.93719
 Alpha virt. eigenvalues --    5.05459   5.31242   5.35193   5.44383   5.46578
 Alpha virt. eigenvalues --    5.71756   5.78322   5.89754   6.43147   6.68201
 Alpha virt. eigenvalues --    6.90604   7.18165   7.29965   7.36991   7.45827
 Alpha virt. eigenvalues --    7.52042   7.54362   7.59733   7.74178   7.97588
 Alpha virt. eigenvalues --    8.14267   9.00908  15.92578
          Condensed to atoms (all electrons):
               1          2          3          4
     1  O    8.122229   0.204043  -0.070072   0.185500
     2  H    0.204043   0.587949   0.003321   0.021211
     3  Cl  -0.070072   0.003321  18.005678   0.032063
     4  H    0.185500   0.021211   0.032063   0.532013
 Mulliken charges:
               1
     1  O   -0.441700
     2  H    0.183477
     3  Cl  -0.970990
     4  H    0.229213
 Sum of Mulliken charges =  -1.00000
 Mulliken charges with hydrogens summed into heavy atoms:
               1
     1  O   -0.029010
     3  Cl  -0.970990
 Electronic spatial extent (au):  <R**2>=            276.4628
 Charge=             -1.0000 electrons
 Dipole moment (field-independent basis, Debye):
    X=             -4.0775    Y=             -1.1069    Z=             -1.0979  Tot=              4.3654
 Quadrupole moment (field-independent basis, Debye-Ang):
   XX=            -35.0475   YY=            -23.3089   ZZ=            -24.1645
   XY=              3.3197   XZ=              1.8307   YZ=             -0.1497
 Traceless Quadrupole moment (field-independent basis, Debye-Ang):
   XX=             -7.5405   YY=              4.1981   ZZ=              3.3425
   XY=              3.3197   XZ=              1.8307   YZ=             -0.1497
 Octapole moment (field-independent basis, Debye-Ang**2):
  XXX=            -11.8397  YYY=             -1.2282  ZZZ=             -0.0723  XYY=             -8.4907
  XXY=             -8.1769  XXZ=             -1.1750  XZZ=             -6.0710  YZZ=              0.1338
  YYZ=             -0.0376  XYZ=              0.0684
 Hexadecapole moment (field-independent basis, Debye-Ang**3):
 XXXX=           -377.2931 YYYY=            -38.9560 ZZZZ=            -39.7224 XXXY=             21.1118
 XXXZ=              0.9959 YYYX=              4.0119 YYYZ=              0.0742 ZZZX=              0.8957
 ZZZY=             -0.2254 XXYY=            -57.2937 XXZZ=            -63.2155 YYZZ=            -13.3182
 XXYZ=              0.1334 YYXZ=              0.4394 ZZXY=              0.2959
 N-N= 3.855640394301D+01 E-N=-1.359962852303D+03  KE= 5.360392305350D+02
 No NMR shielding tensors so no spin-rotation constants.
 Leave Link  601 at Tue Oct 19 15:24:54 2021, MaxMem= 16106127360 cpu:               5.6 elap:               0.2
 (Enter /sw/contrib/gaussian/g16/B01/g16/l9999.exe)
 1\1\GINC-N2228\Scan\RMP2-FC\Aug-CC-pVTZ\Cl1H2O1(1-)\CGAVINH\19-Oct-202
 1\1\\#p opt=(z-matrix) mp2/aug-cc-pvtz density=current\\title\\-1,1\O\
 X,1,10.\H,1,r1,2,90.\Cl,1,r2,2,90.,3,a1,0\H,1,r3,2,OOP,3,a1,0\\r1=0.96
 061628,s,-1000,0.\r2=3.08954942,s,-1000,0.\r3=0.96984468\a1=101.717206
 55,s,-1000,0.\OOP=40.,s,10,-5.\\Version=ES64L-G16RevB.01\State=1-A\HF=
 -535.6504269,-535.6501922,-535.6495126,-535.6484463,-535.6469873,-535.
 6452051,-535.643159,-535.6409099,-535.6385165,-535.6360308,-535.633496
 6\MP2=-536.133993,-536.1337128,-536.1328866,-536.1315574,-536.1297906,
 -536.1276672,-536.1252753,-536.1227011,-536.1200226,-536.1173052,-536.
 1146002\RMSD=5.523e-09,3.978e-09,3.684e-09,7.356e-09,7.565e-09,7.811e-
 09,7.430e-09,6.657e-09,5.662e-09,4.579e-09,3.519e-09\PG=C01 [X(Cl1H2O1
 )]\\@


 IF MATHEMATICALLY YOU END UP WITH THE INCORRECT ANSWER,
 TRY MULTIPLYING BY THE PAGE NUMBER.
 Job cpu time:       0 days  1 hours 13 minutes 28.7 seconds.
 Elapsed time:       0 days  0 hours  3 minutes 19.9 seconds.
 File lengths (MBytes):  RWF=     15 Int=      0 D2E=      0 Chk=      8 Scr=      1
 Normal termination of Gaussian 16 at Tue Oct 19 15:24:54 2021.
