 Entering Gaussian System, Link 0=g16
 Input=clhod_oop_50_sp.gjf
 Output=clhod_oop_50_sp.log
 Initial command:
 /sw/contrib/gaussian/g16/B01/g16/l1.exe "/scr/Gau-5148.inp" -scrdir="/scr/"
 Entering Link 1 = /sw/contrib/gaussian/g16/B01/g16/l1.exe PID=      5149.
  
 Copyright (c) 1988-2017, Gaussian, Inc.  All Rights Reserved.
  
 This is part of the Gaussian(R) 16 program.  It is based on
 the Gaussian(R) 09 system (copyright 2009, Gaussian, Inc.),
 the Gaussian(R) 03 system (copyright 2003, Gaussian, Inc.),
 the Gaussian(R) 98 system (copyright 1998, Gaussian, Inc.),
 the Gaussian(R) 94 system (copyright 1995, Gaussian, Inc.),
 the Gaussian 92(TM) system (copyright 1992, Gaussian, Inc.),
 the Gaussian 90(TM) system (copyright 1990, Gaussian, Inc.),
 the Gaussian 88(TM) system (copyright 1988, Gaussian, Inc.),
 the Gaussian 86(TM) system (copyright 1986, Carnegie Mellon
 University), and the Gaussian 82(TM) system (copyright 1983,
 Carnegie Mellon University). Gaussian is a federally registered
 trademark of Gaussian, Inc.
  
 This software contains proprietary and confidential information,
 including trade secrets, belonging to Gaussian, Inc.
  
 This software is provided under written license and may be
 used, copied, transmitted, or stored only in accord with that
 written license.
  
 The following legend is applicable only to US Government
 contracts under FAR:
  
                    RESTRICTED RIGHTS LEGEND
  
 Use, reproduction and disclosure by the US Government is
 subject to restrictions as set forth in subparagraphs (a)
 and (c) of the Commercial Computer Software - Restricted
 Rights clause in FAR 52.227-19.
  
 Gaussian, Inc.
 340 Quinnipiac St., Bldg. 40, Wallingford CT 06492
  
  
 ---------------------------------------------------------------
 Warning -- This program may not be used in any manner that
 competes with the business of Gaussian, Inc. or will provide
 assistance to any competitor of Gaussian, Inc.  The licensee
 of this program is prohibited from giving any competitor of
 Gaussian, Inc. access to this program.  By using this program,
 the user acknowledges that Gaussian, Inc. is engaged in the
 business of creating and licensing software in the field of
 computational chemistry and represents and warrants to the
 licensee that it is not a competitor of Gaussian, Inc. and that
 it will not use this program in any manner prohibited above.
 ---------------------------------------------------------------
  

 Cite this work as:
 Gaussian 16, Revision B.01,
 M. J. Frisch, G. W. Trucks, H. B. Schlegel, G. E. Scuseria, 
 M. A. Robb, J. R. Cheeseman, G. Scalmani, V. Barone, 
 G. A. Petersson, H. Nakatsuji, X. Li, M. Caricato, A. V. Marenich, 
 J. Bloino, B. G. Janesko, R. Gomperts, B. Mennucci, H. P. Hratchian, 
 J. V. Ortiz, A. F. Izmaylov, J. L. Sonnenberg, D. Williams-Young, 
 F. Ding, F. Lipparini, F. Egidi, J. Goings, B. Peng, A. Petrone, 
 T. Henderson, D. Ranasinghe, V. G. Zakrzewski, J. Gao, N. Rega, 
 G. Zheng, W. Liang, M. Hada, M. Ehara, K. Toyota, R. Fukuda, 
 J. Hasegawa, M. Ishida, T. Nakajima, Y. Honda, O. Kitao, H. Nakai, 
 T. Vreven, K. Throssell, J. A. Montgomery, Jr., J. E. Peralta, 
 F. Ogliaro, M. J. Bearpark, J. J. Heyd, E. N. Brothers, K. N. Kudin, 
 V. N. Staroverov, T. A. Keith, R. Kobayashi, J. Normand, 
 K. Raghavachari, A. P. Rendell, J. C. Burant, S. S. Iyengar, 
 J. Tomasi, M. Cossi, J. M. Millam, M. Klene, C. Adamo, R. Cammi, 
 J. W. Ochterski, R. L. Martin, K. Morokuma, O. Farkas, 
 J. B. Foresman, and D. J. Fox, Gaussian, Inc., Wallingford CT, 2016.
 
 ******************************************
 Gaussian 16:  ES64L-G16RevB.01 20-Dec-2017
                19-Oct-2021 
 ******************************************
 %nproc=28
 Will use up to   28 processors via shared memory.
 %mem=120GB
 %chk=/gscratch/ilahie/mccoygrp/coire_hocl/oop_s_rOH_opt/clhod/clhod_oop_50_sp.ch
 k
 ----------------------------------------------------
 #p pop=NBO SP NoSymm mp2/aug-cc-pvtz density=current
 ----------------------------------------------------
 1/30=1,38=1,172=1/1;
 2/12=2,15=1,17=6,18=5,40=1/2;
 3/5=16,6=1,7=10,11=9,25=1,30=1,71=1/1,2,3;
 4//1;
 5/5=2,38=5/2;
 8/6=4,10=1/1;
 9/15=1,16=-3/6;
 10/5=1,13=10,31=1/2;
 6/7=2,8=2,9=2,10=2,22=-1,40=1/1,7;
 99/5=1,9=1/99;
 Leave Link    1 at Tue Oct 19 16:02:19 2021, MaxMem= 16106127360 cpu:               2.3 elap:               0.1
 (Enter /sw/contrib/gaussian/g16/B01/g16/l101.exe)
 -----
 title
 -----
 Symbolic Z-matrix:
 Charge = -1 Multiplicity = 1
 O
 X                    1     10. 
 H(iso=2)             1    r1       2     90. 
 Cl                   1    r2       2     90.      3    a1       0
 H                    1    r3       2    oop      3    a1       0
       Variables:
  r1                    0.96062                  
  r2                    3.08955                  
  r3                    0.96984                  
  a1                  101.71721                  
  OOP                  40.                       
 
 ITRead=  0  0  0  0
 MicOpt= -1 -1 -1 -1
 NAtoms=      4 NQM=        4 NQMF=       0 NMMI=      0 NMMIF=      0
                NMic=       0 NMicF=      0.
                    Isotopes and Nuclear Properties:
 (Nuclear quadrupole moments (NQMom) in fm**2, nuclear magnetic moments (NMagM)
  in nuclear magnetons)

  Atom         1           2           3           4
 IAtWgt=          16           2          35           1
 AtmWgt=  15.9949146   2.0141018  34.9688527   1.0078250
 NucSpn=           0           2           3           1
 AtZEff=  -0.0000000  -0.0000000  -0.0000000  -0.0000000
 NQMom=    0.0000000   0.2860000  -8.1650000   0.0000000
 NMagM=    0.0000000   0.8574380   0.8218740   2.7928460
 AtZNuc=   8.0000000   1.0000000  17.0000000   1.0000000
 Leave Link  101 at Tue Oct 19 16:02:20 2021, MaxMem= 16106127360 cpu:               2.6 elap:               0.1
 (Enter /sw/contrib/gaussian/g16/B01/g16/l202.exe)
                          Input orientation:                          
 ---------------------------------------------------------------------
 Center     Atomic      Atomic             Coordinates (Angstroms)
 Number     Number       Type             X           Y           Z
 ---------------------------------------------------------------------
      1          8           0        0.000000    0.000000    0.000000
      2          1           0        0.960616    0.000000    0.000000
      3         17           0       -0.627430   -3.025169    0.000000
      4          1           0       -0.126601   -0.610411    0.742941
 ---------------------------------------------------------------------
                    Distance matrix (angstroms):
                    1          2          3          4
     1  O    0.000000
     2  H    0.960616   0.000000
     3  Cl   3.089549   3.416656   0.000000
     4  H    0.969840   1.451414   2.575626   0.000000
 Symmetry turned off by external request.
 Stoichiometry    ClH2O(1-)
 Framework group  C1[X(ClH2O)]
 Deg. of freedom     6
 Full point group                 C1      NOp   1
 Rotational constants (GHZ):         240.4552659           4.2902493           4.2528430
 Leave Link  202 at Tue Oct 19 16:02:20 2021, MaxMem= 16106127360 cpu:               0.9 elap:               0.1
 (Enter /sw/contrib/gaussian/g16/B01/g16/l301.exe)
 Standard basis: Aug-CC-pVTZ (5D, 7F)
 Ernie: Thresh=  0.10000D-02 Tol=  0.10000D-05 Strict=F.
 Ernie:  16 primitive shells out of 116 were deleted.
   142 basis functions,   240 primitive gaussians,   164 cartesian basis functions
    14 alpha electrons       14 beta electrons
       nuclear repulsion energy        38.5564233809 Hartrees.
 IExCor=    0 DFT=F Ex=HF Corr=None ExCW=0 ScaHFX=  1.000000
 ScaDFX=  1.000000  1.000000  1.000000  1.000000 ScalE2=  1.000000  1.000000
 IRadAn=      5 IRanWt=     -1 IRanGd=            0 ICorTp=0 IEmpDi=  4
 NAtoms=    4 NActive=    4 NUniq=    4 SFac= 1.00D+00 NAtFMM=   60 NAOKFM=F Big=F
 Integral buffers will be    131072 words long.
 Raffenetti 1 integral format.
 Two-electron integral symmetry is turned off.
 Leave Link  301 at Tue Oct 19 16:02:20 2021, MaxMem= 16106127360 cpu:               1.5 elap:               0.1
 (Enter /sw/contrib/gaussian/g16/B01/g16/l302.exe)
 NPDir=0 NMtPBC=     1 NCelOv=     1 NCel=       1 NClECP=     1 NCelD=      1
         NCelK=      1 NCelE2=     1 NClLst=     1 CellRange=     0.0.
 One-electron integrals computed using PRISM.
 NBasis=   142 RedAO= T EigKep=  3.54D-04  NBF=   142
 NBsUse=   142 1.00D-06 EigRej= -1.00D+00 NBFU=   142
 Leave Link  302 at Tue Oct 19 16:02:20 2021, MaxMem= 16106127360 cpu:               4.3 elap:               0.2
 (Enter /sw/contrib/gaussian/g16/B01/g16/l303.exe)
 DipDrv:  MaxL=1.
 Leave Link  303 at Tue Oct 19 16:02:20 2021, MaxMem= 16106127360 cpu:               0.6 elap:               0.0
 (Enter /sw/contrib/gaussian/g16/B01/g16/l401.exe)
 ExpMin= 2.53D-02 ExpMax= 4.56D+05 ExpMxC= 1.44D+03 IAcc=3 IRadAn=         5 AccDes= 0.00D+00
 Harris functional with IExCor=  205 and IRadAn=       5 diagonalized for initial guess.
 HarFok:  IExCor=  205 AccDes= 0.00D+00 IRadAn=         5 IDoV= 1 UseB2=F ITyADJ=14
 ICtDFT=  3500011 ScaDFX=  1.000000  1.000000  1.000000  1.000000
 FoFCou: FMM=F IPFlag=           0 FMFlag=      100000 FMFlg1=           0
         NFxFlg=           0 DoJE=T BraDBF=F KetDBF=T FulRan=T
         wScrn=  0.000000 ICntrl=       500 IOpCl=  0 I1Cent=   200000004 NGrid=           0
         NMat0=    1 NMatS0=      1 NMatT0=    0 NMatD0=    1 NMtDS0=    0 NMtDT0=    0
 Symmetry not used in FoFCou.
 Harris En= -535.434104875965    
 JPrj=0 DoOrth=F DoCkMO=F.
 Leave Link  401 at Tue Oct 19 16:02:20 2021, MaxMem= 16106127360 cpu:               5.6 elap:               0.2
 (Enter /sw/contrib/gaussian/g16/B01/g16/l502.exe)
 Keep R1 ints in memory in canonical form, NReq=65345807.
 FoFCou: FMM=F IPFlag=           0 FMFlag=           0 FMFlg1=           0
         NFxFlg=           0 DoJE=F BraDBF=F KetDBF=F FulRan=T
         wScrn=  0.000000 ICntrl=       600 IOpCl=  0 I1Cent=           0 NGrid=           0
         NMat0=    1 NMatS0=  10153 NMatT0=    0 NMatD0=    1 NMtDS0=    0 NMtDT0=    0
 Symmetry not used in FoFCou.
 Two-electron integral symmetry not used.
 Closed shell SCF:
 Using DIIS extrapolation, IDIIS=  1040.
 NGot= 16106127360 LenX= 16054521101 LenY= 16054493764
 Requested convergence on RMS density matrix=1.00D-08 within 128 cycles.
 Requested convergence on MAX density matrix=1.00D-06.
 Requested convergence on             energy=1.00D-06.
 No special actions if energy rises.

 Cycle   1  Pass 1  IDiag  1:
 E= -535.491879978878    
 DIIS: error= 3.62D-02 at cycle   1 NSaved=   1.
 NSaved= 1 IEnMin= 1 EnMin= -535.491879978878     IErMin= 1 ErrMin= 3.62D-02
 ErrMax= 3.62D-02  0.00D+00 EMaxC= 1.00D-01 BMatC= 3.41D-01 BMatP= 3.41D-01
 IDIUse=3 WtCom= 6.38D-01 WtEn= 3.62D-01
 Coeff-Com:  0.100D+01
 Coeff-En:   0.100D+01
 Coeff:      0.100D+01
 Gap=     0.341 Goal=   None    Shift=    0.000
 GapD=    0.341 DampG=1.000 DampE=0.500 DampFc=0.5000 IDamp=-1.
 Damping current iteration by 5.00D-01
 RMSDP=2.24D-03 MaxDP=5.69D-02              OVMax= 1.26D-01

 Cycle   2  Pass 1  IDiag  1:
 E= -535.567241056861     Delta-E=       -0.075361077982 Rises=F Damp=T
 DIIS: error= 1.30D-02 at cycle   2 NSaved=   2.
 NSaved= 2 IEnMin= 2 EnMin= -535.567241056861     IErMin= 2 ErrMin= 1.30D-02
 ErrMax= 1.30D-02  0.00D+00 EMaxC= 1.00D-01 BMatC= 6.26D-02 BMatP= 3.41D-01
 IDIUse=3 WtCom= 8.70D-01 WtEn= 1.30D-01
 Coeff-Com: -0.478D+00 0.148D+01
 Coeff-En:   0.000D+00 0.100D+01
 Coeff:     -0.416D+00 0.142D+01
 Gap=     0.292 Goal=   None    Shift=    0.000
 RMSDP=8.71D-04 MaxDP=3.47D-02 DE=-7.54D-02 OVMax= 6.50D-02

 Cycle   3  Pass 1  IDiag  1:
 E= -535.631835959257     Delta-E=       -0.064594902396 Rises=F Damp=F
 DIIS: error= 4.10D-03 at cycle   3 NSaved=   3.
 NSaved= 3 IEnMin= 3 EnMin= -535.631835959257     IErMin= 3 ErrMin= 4.10D-03
 ErrMax= 4.10D-03  0.00D+00 EMaxC= 1.00D-01 BMatC= 2.50D-03 BMatP= 6.26D-02
 IDIUse=3 WtCom= 9.59D-01 WtEn= 4.10D-02
 Coeff-Com: -0.154D+00 0.282D+00 0.873D+00
 Coeff-En:   0.000D+00 0.000D+00 0.100D+01
 Coeff:     -0.148D+00 0.270D+00 0.878D+00
 Gap=     0.298 Goal=   None    Shift=    0.000
 RMSDP=1.60D-04 MaxDP=4.01D-03 DE=-6.46D-02 OVMax= 1.22D-02

 Cycle   4  Pass 1  IDiag  1:
 E= -535.633435581793     Delta-E=       -0.001599622536 Rises=F Damp=F
 DIIS: error= 3.98D-04 at cycle   4 NSaved=   4.
 NSaved= 4 IEnMin= 4 EnMin= -535.633435581793     IErMin= 4 ErrMin= 3.98D-04
 ErrMax= 3.98D-04  0.00D+00 EMaxC= 1.00D-01 BMatC= 4.93D-05 BMatP= 2.50D-03
 IDIUse=3 WtCom= 9.96D-01 WtEn= 3.98D-03
 Coeff-Com: -0.255D-01 0.443D-01 0.183D+00 0.799D+00
 Coeff-En:   0.000D+00 0.000D+00 0.000D+00 0.100D+01
 Coeff:     -0.254D-01 0.441D-01 0.182D+00 0.799D+00
 Gap=     0.293 Goal=   None    Shift=    0.000
 RMSDP=3.79D-05 MaxDP=8.37D-04 DE=-1.60D-03 OVMax= 2.23D-03

 Cycle   5  Pass 1  IDiag  1:
 E= -535.633486412137     Delta-E=       -0.000050830345 Rises=F Damp=F
 DIIS: error= 1.37D-04 at cycle   5 NSaved=   5.
 NSaved= 5 IEnMin= 5 EnMin= -535.633486412137     IErMin= 5 ErrMin= 1.37D-04
 ErrMax= 1.37D-04  0.00D+00 EMaxC= 1.00D-01 BMatC= 4.01D-06 BMatP= 4.93D-05
 IDIUse=3 WtCom= 9.99D-01 WtEn= 1.37D-03
 Coeff-Com:  0.165D-01-0.316D-01-0.941D-01-0.491D-01 0.116D+01
 Coeff-En:   0.000D+00 0.000D+00 0.000D+00 0.000D+00 0.100D+01
 Coeff:      0.164D-01-0.315D-01-0.940D-01-0.490D-01 0.116D+01
 Gap=     0.294 Goal=   None    Shift=    0.000
 RMSDP=2.00D-05 MaxDP=4.36D-04 DE=-5.08D-05 OVMax= 1.22D-03

 Cycle   6  Pass 1  IDiag  1:
 E= -535.633496050569     Delta-E=       -0.000009638432 Rises=F Damp=F
 DIIS: error= 3.80D-05 at cycle   6 NSaved=   6.
 NSaved= 6 IEnMin= 6 EnMin= -535.633496050569     IErMin= 6 ErrMin= 3.80D-05
 ErrMax= 3.80D-05  0.00D+00 EMaxC= 1.00D-01 BMatC= 2.22D-07 BMatP= 4.01D-06
 IDIUse=1 WtCom= 1.00D+00 WtEn= 0.00D+00
 Coeff-Com: -0.194D-02 0.425D-02 0.110D-01-0.161D-01-0.335D+00 0.134D+01
 Coeff:     -0.194D-02 0.425D-02 0.110D-01-0.161D-01-0.335D+00 0.134D+01
 Gap=     0.294 Goal=   None    Shift=    0.000
 RMSDP=6.48D-06 MaxDP=1.65D-04 DE=-9.64D-06 OVMax= 4.66D-04

 Cycle   7  Pass 1  IDiag  1:
 E= -535.633496801284     Delta-E=       -0.000000750716 Rises=F Damp=F
 DIIS: error= 6.22D-06 at cycle   7 NSaved=   7.
 NSaved= 7 IEnMin= 7 EnMin= -535.633496801284     IErMin= 7 ErrMin= 6.22D-06
 ErrMax= 6.22D-06  0.00D+00 EMaxC= 1.00D-01 BMatC= 6.41D-09 BMatP= 2.22D-07
 IDIUse=1 WtCom= 1.00D+00 WtEn= 0.00D+00
 Coeff-Com:  0.508D-04-0.289D-03-0.683D-03 0.441D-02 0.751D-01-0.437D+00
 Coeff-Com:  0.136D+01
 Coeff:      0.508D-04-0.289D-03-0.683D-03 0.441D-02 0.751D-01-0.437D+00
 Coeff:      0.136D+01
 Gap=     0.294 Goal=   None    Shift=    0.000
 RMSDP=1.27D-06 MaxDP=3.18D-05 DE=-7.51D-07 OVMax= 8.10D-05

 Cycle   8  Pass 1  IDiag  1:
 E= -535.633496822575     Delta-E=       -0.000000021291 Rises=F Damp=F
 DIIS: error= 1.38D-06 at cycle   8 NSaved=   8.
 NSaved= 8 IEnMin= 8 EnMin= -535.633496822575     IErMin= 8 ErrMin= 1.38D-06
 ErrMax= 1.38D-06  0.00D+00 EMaxC= 1.00D-01 BMatC= 2.17D-10 BMatP= 6.41D-09
 IDIUse=1 WtCom= 1.00D+00 WtEn= 0.00D+00
 Coeff-Com:  0.476D-04-0.880D-04-0.242D-03-0.445D-04 0.258D-02 0.741D-02
 Coeff-Com: -0.165D+00 0.116D+01
 Coeff:      0.476D-04-0.880D-04-0.242D-03-0.445D-04 0.258D-02 0.741D-02
 Coeff:     -0.165D+00 0.116D+01
 Gap=     0.294 Goal=   None    Shift=    0.000
 RMSDP=2.30D-07 MaxDP=7.37D-06 DE=-2.13D-08 OVMax= 1.18D-05

 Cycle   9  Pass 1  IDiag  1:
 E= -535.633496823184     Delta-E=       -0.000000000609 Rises=F Damp=F
 DIIS: error= 4.38D-07 at cycle   9 NSaved=   9.
 NSaved= 9 IEnMin= 9 EnMin= -535.633496823184     IErMin= 9 ErrMin= 4.38D-07
 ErrMax= 4.38D-07  0.00D+00 EMaxC= 1.00D-01 BMatC= 1.76D-11 BMatP= 2.17D-10
 IDIUse=1 WtCom= 1.00D+00 WtEn= 0.00D+00
 Coeff-Com: -0.833D-05 0.321D-04 0.785D-04-0.337D-03-0.664D-02 0.370D-01
 Coeff-Com: -0.104D+00-0.786D-01 0.115D+01
 Coeff:     -0.833D-05 0.321D-04 0.785D-04-0.337D-03-0.664D-02 0.370D-01
 Coeff:     -0.104D+00-0.786D-01 0.115D+01
 Gap=     0.294 Goal=   None    Shift=    0.000
 RMSDP=6.41D-08 MaxDP=1.56D-06 DE=-6.09D-10 OVMax= 3.45D-06

 Cycle  10  Pass 1  IDiag  1:
 E= -535.633496823235     Delta-E=       -0.000000000051 Rises=F Damp=F
 DIIS: error= 9.70D-08 at cycle  10 NSaved=  10.
 NSaved=10 IEnMin=10 EnMin= -535.633496823235     IErMin=10 ErrMin= 9.70D-08
 ErrMax= 9.70D-08  0.00D+00 EMaxC= 1.00D-01 BMatC= 8.45D-13 BMatP= 1.76D-11
 IDIUse=1 WtCom= 1.00D+00 WtEn= 0.00D+00
 Coeff-Com: -0.606D-06-0.666D-06-0.218D-05 0.380D-04 0.593D-03-0.430D-02
 Coeff-Com:  0.187D-01-0.431D-01-0.117D+00 0.114D+01
 Coeff:     -0.606D-06-0.666D-06-0.218D-05 0.380D-04 0.593D-03-0.430D-02
 Coeff:      0.187D-01-0.431D-01-0.117D+00 0.114D+01
 Gap=     0.294 Goal=   None    Shift=    0.000
 RMSDP=1.32D-08 MaxDP=2.30D-07 DE=-5.08D-11 OVMax= 6.90D-07

 Cycle  11  Pass 1  IDiag  1:
 E= -535.633496823236     Delta-E=       -0.000000000001 Rises=F Damp=F
 DIIS: error= 3.03D-08 at cycle  11 NSaved=  11.
 NSaved=11 IEnMin=11 EnMin= -535.633496823236     IErMin=11 ErrMin= 3.03D-08
 ErrMax= 3.03D-08  0.00D+00 EMaxC= 1.00D-01 BMatC= 7.06D-14 BMatP= 8.45D-13
 IDIUse=1 WtCom= 1.00D+00 WtEn= 0.00D+00
 Coeff-Com:  0.101D-05-0.271D-05-0.603D-05 0.175D-04 0.368D-03-0.183D-02
 Coeff-Com:  0.432D-02 0.103D-01-0.707D-01-0.138D+00 0.120D+01
 Coeff:      0.101D-05-0.271D-05-0.603D-05 0.175D-04 0.368D-03-0.183D-02
 Coeff:      0.432D-02 0.103D-01-0.707D-01-0.138D+00 0.120D+01
 Gap=     0.294 Goal=   None    Shift=    0.000
 RMSDP=4.53D-09 MaxDP=1.21D-07 DE=-7.96D-13 OVMax= 2.60D-07

 SCF Done:  E(RHF) =  -535.633496823     A.U. after   11 cycles
            NFock= 11  Conv=0.45D-08     -V/T= 2.0001
 KE= 5.355566973500D+02 PE=-1.360030852169D+03 EE= 2.502842346148D+02
 Leave Link  502 at Tue Oct 19 16:02:22 2021, MaxMem= 16106127360 cpu:              19.4 elap:               1.5
 (Enter /sw/contrib/gaussian/g16/B01/g16/l801.exe)
 ExpMin= 2.53D-02 ExpMax= 4.56D+05 ExpMxC= 1.44D+03 IAcc=3 IRadAn=         5 AccDes= 0.00D+00
 HarFok:  IExCor=  205 AccDes= 0.00D+00 IRadAn=         5 IDoV=-2 UseB2=F ITyADJ=14
 ICtDFT= 12500011 ScaDFX=  1.000000  1.000000  1.000000  1.000000
 Largest valence mixing into a core orbital is  4.54D-04
 Largest core mixing into a valence orbital is  1.85D-04
 Range of M.O.s used for correlation:     7   142
 NBasis=   142 NAE=    14 NBE=    14 NFC=     6 NFV=     0
 NROrb=    136 NOA=     8 NOB=     8 NVA=   128 NVB=   128

 **** Warning!!: The largest alpha MO coefficient is  0.15286514D+02

 Leave Link  801 at Tue Oct 19 16:02:22 2021, MaxMem= 16106127360 cpu:               2.2 elap:               0.1
 (Enter /sw/contrib/gaussian/g16/B01/g16/l906.exe)
 Frozen-core derivative calculation, NFC=   6 NFV=   0.
 FulOut=F Deriv=T AODrv=F NAtomX=     4
   MMem=         252  MDisk=           8 MDiskD=           8
  W3Min=      326032 MinDsk=      657538 NBas6D=         164
 NBas2D=       13905    NTT=       13530    LW2=     3500000
    MDV= 16105868190 MDiskM=      490971 NBas2p=       13814
 Fully in-core method, ICMem=   205321089.
 IMap=   1   2   3   4   5   6   7   8   9  10  11  12  13  14
 JobTyp=1 Pass  1 fully in-core, NPsUse= 28.
 Compute canonical integrals.
 FoFCou: FMM=F IPFlag=           0 FMFlag=           0 FMFlg1=           0
         NFxFlg=           0 DoJE=F BraDBF=F KetDBF=F FulRan=T
         wScrn=  0.000000 ICntrl=       600 IOpCl=  1 I1Cent=           0 NGrid=           0
         NMat0=    1 NMatS0=  13905 NMatT0=    0 NMatD0=    1 NMtDS0=    0 NMtDT0=    0
 Symmetry not used in FoFCou.
 Spin components of T(2) and E(2):
     alpha-alpha T2 =       0.1952253559D-01 E2=     -0.5963977125D-01
     alpha-beta  T2 =       0.1074647983D+00 E2=     -0.3618238727D+00
     beta-beta   T2 =       0.1952253559D-01 E2=     -0.5963977125D-01
 The integrals were generated   1 times.
 ANorm=    0.1070752011D+01
 E2 =    -0.4811034152D+00 EUMP2 =    -0.53611460023846D+03
 Leave Link  906 at Tue Oct 19 16:02:24 2021, MaxMem= 16106127360 cpu:              50.6 elap:               1.8
 (Enter /sw/contrib/gaussian/g16/B01/g16/l1002.exe)
 Minotr:  Closed shell wavefunction.
          Computing MP2/KS-MP2 derivatives.
          Using Z-Vector for PSCF gradient.
          Skipping F1 and S1 gradient terms here.
          Frozen-core window.
          Direct CPHF calculation.
          Differentiating once with respect to electric field.
                with respect to dipole field.
          Electric field/nuclear overlap derivatives assumed to be zero.
          Requested convergence is 1.0D-10 RMS, and 1.0D-09 maximum.
          NewPWx=F KeepS1=T KeepF1=T KeepIn=T MapXYZ=F SortEE=F KeepMc=T.
 Keep R1 ints in memory in canonical form, NReq=65348808.
 FoFCou: FMM=F IPFlag=           0 FMFlag=           0 FMFlg1=           0
         NFxFlg=           0 DoJE=F BraDBF=F KetDBF=F FulRan=T
         wScrn=  0.000000 ICntrl=       600 IOpCl=  0 I1Cent=           0 NGrid=           0
         NMat0=    1 NMatS0=  10153 NMatT0=    0 NMatD0=    1 NMtDS0=    0 NMtDT0=    0
 Symmetry not used in FoFCou.
 Two-electron integral symmetry not used.
          MDV=   16106127360 using IRadAn=       5.
          Solving linear equations separately, MaxMat=       0.
          There are     1 degrees of freedom in the 1st order CPHF.  IDoFFX=0 NUNeed=     1.
 LinEq1:  Iter=  0 NonCon=     1 RMS=3.02D-03 Max=3.24D-02 NDo=     1
 AX will form     1 AO Fock derivatives at one time.
 LinEq1:  Iter=  1 NonCon=     1 RMS=3.94D-04 Max=4.10D-03 NDo=     1
 LinEq1:  Iter=  2 NonCon=     1 RMS=1.13D-04 Max=9.49D-04 NDo=     1
 LinEq1:  Iter=  3 NonCon=     1 RMS=4.09D-05 Max=3.01D-04 NDo=     1
 LinEq1:  Iter=  4 NonCon=     1 RMS=1.13D-05 Max=1.09D-04 NDo=     1
 LinEq1:  Iter=  5 NonCon=     1 RMS=3.42D-06 Max=3.08D-05 NDo=     1
 LinEq1:  Iter=  6 NonCon=     1 RMS=9.36D-07 Max=7.53D-06 NDo=     1
 LinEq1:  Iter=  7 NonCon=     1 RMS=2.07D-07 Max=1.47D-06 NDo=     1
 LinEq1:  Iter=  8 NonCon=     1 RMS=4.74D-08 Max=4.57D-07 NDo=     1
 LinEq1:  Iter=  9 NonCon=     1 RMS=1.03D-08 Max=9.15D-08 NDo=     1
 LinEq1:  Iter= 10 NonCon=     1 RMS=1.69D-09 Max=1.33D-08 NDo=     1
 LinEq1:  Iter= 11 NonCon=     1 RMS=2.67D-10 Max=2.38D-09 NDo=     1
 LinEq1:  Iter= 12 NonCon=     0 RMS=5.92D-11 Max=6.48D-10 NDo=     1
 Linear equations converged to 1.000D-10 1.000D-09 after    12 iterations.
 End of Minotr F.D. properties file   721 does not exist.
 End of Minotr F.D. properties file   722 does not exist.
 End of Minotr F.D. properties file   788 does not exist.
 Leave Link 1002 at Tue Oct 19 16:02:25 2021, MaxMem= 16106127360 cpu:              22.5 elap:               1.8
 (Enter /sw/contrib/gaussian/g16/B01/g16/l601.exe)
 Copying SCF densities to generalized density rwf, IOpCl= 0 IROHF=0.

 **********************************************************************

            Population analysis using the MP2 Density.

 **********************************************************************

 Alpha  occ. eigenvalues -- -104.51169 -20.39835 -10.23585  -7.70192  -7.70189
 Alpha  occ. eigenvalues --   -7.70184  -1.18351  -0.74269  -0.52895  -0.42941
 Alpha  occ. eigenvalues --   -0.34231  -0.15997  -0.15842  -0.15603
 Alpha virt. eigenvalues --    0.13808   0.16763   0.25414   0.26996   0.28878
 Alpha virt. eigenvalues --    0.29619   0.29648   0.31276   0.33689   0.37264
 Alpha virt. eigenvalues --    0.39433   0.42297   0.43854   0.47639   0.51224
 Alpha virt. eigenvalues --    0.56179   0.57793   0.59271   0.61615   0.63999
 Alpha virt. eigenvalues --    0.65272   0.67050   0.69075   0.75720   0.83002
 Alpha virt. eigenvalues --    0.86388   0.87771   0.89570   0.90708   0.91790
 Alpha virt. eigenvalues --    0.99883   1.01883   1.06332   1.07017   1.08979
 Alpha virt. eigenvalues --    1.09697   1.12056   1.15940   1.17276   1.19799
 Alpha virt. eigenvalues --    1.21981   1.22822   1.23071   1.23634   1.25470
 Alpha virt. eigenvalues --    1.27788   1.28650   1.30644   1.36372   1.40803
 Alpha virt. eigenvalues --    1.42910   1.46611   1.46879   1.48351   1.54679
 Alpha virt. eigenvalues --    1.55521   1.65586   1.66769   1.70705   1.79240
 Alpha virt. eigenvalues --    1.80923   1.89693   2.04818   2.07739   2.16488
 Alpha virt. eigenvalues --    2.33488   2.46770   2.51256   2.56574   2.61188
 Alpha virt. eigenvalues --    2.63696   2.68462   2.70426   2.82859   2.83064
 Alpha virt. eigenvalues --    2.83795   2.85981   2.87687   2.92350   2.94035
 Alpha virt. eigenvalues --    2.97658   2.98617   2.99661   3.00284   3.09649
 Alpha virt. eigenvalues --    3.17352   3.36401   3.36490   3.39524   3.40121
 Alpha virt. eigenvalues --    3.46673   3.48562   3.58524   3.88864   3.91609
 Alpha virt. eigenvalues --    4.26627   4.29629   4.35917   4.42346   4.47355
 Alpha virt. eigenvalues --    4.54149   4.59705   4.62732   4.72993   4.93720
 Alpha virt. eigenvalues --    5.05459   5.31242   5.35194   5.44383   5.46579
 Alpha virt. eigenvalues --    5.71757   5.78322   5.89754   6.43147   6.68201
 Alpha virt. eigenvalues --    6.90604   7.18166   7.29966   7.36991   7.45828
 Alpha virt. eigenvalues --    7.52042   7.54362   7.59733   7.74178   7.97588
 Alpha virt. eigenvalues --    8.14268   9.00909  15.92585
          Condensed to atoms (all electrons):
               1          2          3          4
     1  O    8.122224   0.204044  -0.070072   0.185500
     2  H    0.204044   0.587948   0.003321   0.021210
     3  Cl  -0.070072   0.003321  18.005679   0.032063
     4  H    0.185500   0.021210   0.032063   0.532017
 Mulliken charges:
               1
     1  O   -0.441697
     2  H    0.183477
     3  Cl  -0.970990
     4  H    0.229210
 Sum of Mulliken charges =  -1.00000
 Mulliken charges with hydrogens summed into heavy atoms:
               1
     1  O   -0.029010
     3  Cl  -0.970990
 Electronic spatial extent (au):  <R**2>=            672.8196
 Charge=             -1.0000 electrons
 Dipole moment (field-independent basis, Debye):
    X=              3.9892    Y=             12.8926    Z=              0.7757  Tot=             13.5179
 Quadrupole moment (field-independent basis, Debye-Ang):
   XX=            -24.6583   YY=            -67.9551   ZZ=            -23.9841
   XY=             -8.4731   XZ=             -0.2520   YZ=             -0.4616
 Traceless Quadrupole moment (field-independent basis, Debye-Ang):
   XX=             14.2075   YY=            -29.0892   ZZ=             14.8817
   XY=             -8.4731   XZ=             -0.2520   YZ=             -0.4616
 Octapole moment (field-independent basis, Debye-Ang**2):
  XXX=             33.7622  YYY=            290.3256  ZZZ=             -1.5240  XYY=             36.7479
  XXY=             58.3399  XXZ=             -0.8802  XZZ=             10.1259  YZZ=             52.3042
  YYZ=             -2.4666  XYZ=             -0.3576
 Hexadecapole moment (field-independent basis, Debye-Ang**3):
 XXXX=            -79.8549 YYYY=          -1399.1405 ZZZZ=            -39.6644 XXXY=           -102.1803
 XXXZ=              0.2535 YYYX=           -179.3220 YYYZ=              8.2495 ZZZX=              0.1211
 ZZZY=              1.6498 XXYY=           -196.6360 XXZZ=            -20.2424 YYZZ=           -173.1181
 XXYZ=              0.9595 YYXZ=              1.3000 ZZXY=            -32.8590
 N-N= 3.855642338093D+01 E-N=-1.359962894779D+03  KE= 5.360392386255D+02
 No NMR shielding tensors so no spin-rotation constants.
 Leave Link  601 at Tue Oct 19 16:02:26 2021, MaxMem= 16106127360 cpu:               4.0 elap:               0.2
 (Enter /sw/contrib/gaussian/g16/B01/g16/l607.exe)
 ******************************Gaussian NBO Version 3.1******************************
             N A T U R A L   A T O M I C   O R B I T A L   A N D
          N A T U R A L   B O N D   O R B I T A L   A N A L Y S I S
 ******************************Gaussian NBO Version 3.1******************************
       /RESON  / : Allow strongly delocalized NBO set

 Analyzing the MP2 density

 Job title: title                                                           

 Storage needed:     61222 in NPA,     81148 in NBO (********** available)
 GSVD:  LWork=       -2300 too small for GESVD, short by       46292 words or       46292 for optimal perf.


 NATURAL POPULATIONS:  Natural atomic orbital occupancies 
                                                          
   NAO  Atom  No  lang   Type(AO)    Occupancy
 --------------------------------------------
     1    O    1  S      Cor( 1S)     1.99968
     2    O    1  S      Val( 2S)     1.74871
     3    O    1  S      Ryd( 3S)     0.00648
     4    O    1  S      Ryd( 4S)     0.00075
     5    O    1  S      Ryd( 5S)     0.00018
     6    O    1  px     Val( 2p)     1.52701
     7    O    1  px     Ryd( 3p)     0.00984
     8    O    1  px     Ryd( 4p)     0.00059
     9    O    1  px     Ryd( 5p)     0.00011
    10    O    1  py     Val( 2p)     1.81804
    11    O    1  py     Ryd( 3p)     0.01737
    12    O    1  py     Ryd( 4p)     0.00061
    13    O    1  py     Ryd( 5p)     0.00016
    14    O    1  pz     Val( 2p)     1.73435
    15    O    1  pz     Ryd( 3p)     0.01555
    16    O    1  pz     Ryd( 4p)     0.00064
    17    O    1  pz     Ryd( 5p)     0.00010
    18    O    1  dxy    Ryd( 3d)     0.00943
    19    O    1  dxy    Ryd( 4d)     0.00078
    20    O    1  dxy    Ryd( 5d)     0.00016
    21    O    1  dxz    Ryd( 3d)     0.00992
    22    O    1  dxz    Ryd( 4d)     0.00069
    23    O    1  dxz    Ryd( 5d)     0.00011
    24    O    1  dyz    Ryd( 3d)     0.01045
    25    O    1  dyz    Ryd( 4d)     0.00044
    26    O    1  dyz    Ryd( 5d)     0.00011
    27    O    1  dx2y2  Ryd( 3d)     0.00959
    28    O    1  dx2y2  Ryd( 4d)     0.00038
    29    O    1  dx2y2  Ryd( 5d)     0.00015
    30    O    1  dz2    Ryd( 3d)     0.00959
    31    O    1  dz2    Ryd( 4d)     0.00044
    32    O    1  dz2    Ryd( 5d)     0.00013
    33    O    1  f(0)   Ryd( 4f)     0.00054
    34    O    1  f(0)   Ryd( 5f)     0.00011
    35    O    1  f(C1)  Ryd( 4f)     0.00043
    36    O    1  f(C1)  Ryd( 5f)     0.00009
    37    O    1  f(S1)  Ryd( 4f)     0.00061
    38    O    1  f(S1)  Ryd( 5f)     0.00011
    39    O    1  f(C2)  Ryd( 4f)     0.00068
    40    O    1  f(C2)  Ryd( 5f)     0.00014
    41    O    1  f(S2)  Ryd( 4f)     0.00052
    42    O    1  f(S2)  Ryd( 5f)     0.00009
    43    O    1  f(C3)  Ryd( 4f)     0.00046
    44    O    1  f(C3)  Ryd( 5f)     0.00010
    45    O    1  f(S3)  Ryd( 4f)     0.00070
    46    O    1  f(S3)  Ryd( 5f)     0.00016

    47    H    2  S      Val( 1S)     0.54967
    48    H    2  S      Ryd( 2S)     0.00174
    49    H    2  S      Ryd( 3S)     0.00039
    50    H    2  S      Ryd( 4S)     0.00014
    51    H    2  px     Ryd( 3p)     0.00023
    52    H    2  px     Ryd( 2p)     0.00067
    53    H    2  px     Ryd( 4p)     0.00018
    54    H    2  py     Ryd( 2p)     0.00103
    55    H    2  py     Ryd( 3p)     0.00016
    56    H    2  py     Ryd( 4p)     0.00006
    57    H    2  pz     Ryd( 2p)     0.00085
    58    H    2  pz     Ryd( 3p)     0.00014
    59    H    2  pz     Ryd( 4p)     0.00006
    60    H    2  dxy    Ryd( 3d)     0.00026
    61    H    2  dxy    Ryd( 4d)     0.00007
    62    H    2  dxz    Ryd( 3d)     0.00019
    63    H    2  dxz    Ryd( 4d)     0.00007
    64    H    2  dyz    Ryd( 3d)     0.00010
    65    H    2  dyz    Ryd( 4d)     0.00005
    66    H    2  dx2y2  Ryd( 3d)     0.00016
    67    H    2  dx2y2  Ryd( 4d)     0.00006
    68    H    2  dz2    Ryd( 3d)     0.00011
    69    H    2  dz2    Ryd( 4d)     0.00006

    70   Cl    3  S      Cor( 1S)     2.00001
    71   Cl    3  S      Cor( 2S)     2.00000
    72   Cl    3  S      Val( 3S)     1.98069
    73   Cl    3  S      Ryd( 4S)     0.00455
    74   Cl    3  S      Ryd( 5S)     0.00046
    75   Cl    3  S      Ryd( 6S)     0.00008
    76   Cl    3  px     Cor( 2p)     2.00003
    77   Cl    3  px     Val( 3p)     1.95201
    78   Cl    3  px     Ryd( 4p)     0.01419
    79   Cl    3  px     Ryd( 5p)     0.00060
    80   Cl    3  px     Ryd( 6p)     0.00001
    81   Cl    3  py     Cor( 2p)     2.00002
    82   Cl    3  py     Val( 3p)     1.94752
    83   Cl    3  py     Ryd( 4p)     0.01334
    84   Cl    3  py     Ryd( 5p)     0.00060
    85   Cl    3  py     Ryd( 6p)     0.00001
    86   Cl    3  pz     Cor( 2p)     2.00002
    87   Cl    3  pz     Val( 3p)     1.95031
    88   Cl    3  pz     Ryd( 4p)     0.01410
    89   Cl    3  pz     Ryd( 5p)     0.00059
    90   Cl    3  pz     Ryd( 6p)     0.00002
    91   Cl    3  dxy    Ryd( 3d)     0.01842
    92   Cl    3  dxy    Ryd( 4d)     0.00093
    93   Cl    3  dxy    Ryd( 5d)     0.00012
    94   Cl    3  dxz    Ryd( 3d)     0.01839
    95   Cl    3  dxz    Ryd( 4d)     0.00102
    96   Cl    3  dxz    Ryd( 5d)     0.00011
    97   Cl    3  dyz    Ryd( 3d)     0.01857
    98   Cl    3  dyz    Ryd( 4d)     0.00095
    99   Cl    3  dyz    Ryd( 5d)     0.00014
   100   Cl    3  dx2y2  Ryd( 3d)     0.01831
   101   Cl    3  dx2y2  Ryd( 4d)     0.00098
   102   Cl    3  dx2y2  Ryd( 5d)     0.00014
   103   Cl    3  dz2    Ryd( 3d)     0.01835
   104   Cl    3  dz2    Ryd( 4d)     0.00099
   105   Cl    3  dz2    Ryd( 5d)     0.00012
   106   Cl    3  f(0)   Ryd( 4f)     0.00130
   107   Cl    3  f(0)   Ryd( 5f)     0.00015
   108   Cl    3  f(C1)  Ryd( 4f)     0.00130
   109   Cl    3  f(C1)  Ryd( 5f)     0.00015
   110   Cl    3  f(S1)  Ryd( 4f)     0.00130
   111   Cl    3  f(S1)  Ryd( 5f)     0.00015
   112   Cl    3  f(C2)  Ryd( 4f)     0.00130
   113   Cl    3  f(C2)  Ryd( 5f)     0.00016
   114   Cl    3  f(S2)  Ryd( 4f)     0.00130
   115   Cl    3  f(S2)  Ryd( 5f)     0.00015
   116   Cl    3  f(C3)  Ryd( 4f)     0.00129
   117   Cl    3  f(C3)  Ryd( 5f)     0.00016
   118   Cl    3  f(S3)  Ryd( 4f)     0.00129
   119   Cl    3  f(S3)  Ryd( 5f)     0.00016

   120    H    4  S      Val( 1S)     0.50261
   121    H    4  S      Ryd( 2S)     0.00326
   122    H    4  S      Ryd( 3S)     0.00040
   123    H    4  S      Ryd( 4S)     0.00009
   124    H    4  px     Ryd( 2p)     0.00292
   125    H    4  px     Ryd( 3p)     0.00033
   126    H    4  px     Ryd( 4p)     0.00009
   127    H    4  py     Ryd( 2p)     0.00458
   128    H    4  py     Ryd( 3p)     0.00041
   129    H    4  py     Ryd( 4p)     0.00016
   130    H    4  pz     Ryd( 2p)     0.00268
   131    H    4  pz     Ryd( 3p)     0.00045
   132    H    4  pz     Ryd( 4p)     0.00017
   133    H    4  dxy    Ryd( 3d)     0.00016
   134    H    4  dxy    Ryd( 4d)     0.00008
   135    H    4  dxz    Ryd( 3d)     0.00009
   136    H    4  dxz    Ryd( 4d)     0.00007
   137    H    4  dyz    Ryd( 3d)     0.00025
   138    H    4  dyz    Ryd( 4d)     0.00007
   139    H    4  dx2y2  Ryd( 3d)     0.00027
   140    H    4  dx2y2  Ryd( 4d)     0.00009
   141    H    4  dz2    Ryd( 3d)     0.00011
   142    H    4  dz2    Ryd( 4d)     0.00008


 Summary of Natural Population Analysis:                  
                                                          
                                       Natural Population 
                Natural  -----------------------------------------------
    Atom  No    Charge         Core      Valence    Rydberg      Total
 -----------------------------------------------------------------------
      O    1   -0.93724      1.99968     6.82811    0.10946     8.93724
      H    2    0.44355      0.00000     0.54967    0.00678     0.55645
     Cl    3   -0.98687     10.00008     7.83053    0.15626    17.98687
      H    4    0.48056      0.00000     0.50261    0.01682     0.51944
 =======================================================================
   * Total *   -1.00000     11.99976    15.71092    0.28932    28.00000

                                 Natural Population      
 --------------------------------------------------------
   Core                      11.99976 ( 99.9980% of  12)
   Valence                   15.71092 ( 98.1932% of  16)
   Natural Minimal Basis     27.71068 ( 98.9667% of  28)
   Natural Rydberg Basis      0.28932 (  1.0333% of  28)
 --------------------------------------------------------

    Atom  No          Natural Electron Configuration
 ----------------------------------------------------------------------------
      O    1      [core]2S( 1.75)2p( 5.08)3S( 0.01)3p( 0.04)3d( 0.05)
      H    2            1S( 0.55)
     Cl    3      [core]3S( 1.98)3p( 5.85)3d( 0.09)4p( 0.04)4f( 0.01)
      H    4            1S( 0.50)2p( 0.01)


 NATURAL BOND ORBITAL ANALYSIS:
 Warning:  a bond orbital has occupanc of -0.00000
 Warning:  a bond orbital has occupanc of -0.00000

                       Occupancies       Lewis Structure    Low   High
           Occ.    -------------------  -----------------   occ   occ
  Cycle   Thresh.   Lewis   Non-Lewis     CR  BD  3C  LP    (L)   (NL)   Dev
 =============================================================================
   1(1)    1.90    27.69592   0.30408      6   2   0   6     0      0    0.01
 -----------------------------------------------------------------------------

 Structure accepted: No low occupancy Lewis orbitals

 --------------------------------------------------------
   Core                     11.99976 ( 99.998% of  12)
   Valence Lewis            15.69616 ( 98.101% of  16)
  ==================       ============================
   Total Lewis              27.69592 ( 98.914% of  28)
  -----------------------------------------------------
   Valence non-Lewis         0.04718 (  0.168% of  28)
   Rydberg non-Lewis         0.25691 (  0.918% of  28)
  ==================       ============================
   Total non-Lewis           0.30408 (  1.086% of  28)
 --------------------------------------------------------


       (Occupancy)   Bond orbital/ Coefficients/ Hybrids
 ---------------------------------------------------------------------------------
     1. (1.96629) BD ( 1) O   1 - H   2  
                ( 72.81%)   0.8533* O   1 s( 20.47%)p 3.86( 79.05%)d 0.02(  0.47%)
                                                  f 0.00(  0.01%)
                                            0.0002  0.4523 -0.0043  0.0046 -0.0049
                                            0.8859 -0.0305  0.0080 -0.0002  0.0513
                                           -0.0094  0.0006 -0.0019 -0.0431  0.0141
                                           -0.0011  0.0016 -0.0087 -0.0009  0.0024
                                            0.0206 -0.0031 -0.0002 -0.0061  0.0001
                                            0.0015  0.0562 -0.0032  0.0023 -0.0307
                                            0.0016 -0.0015 -0.0000  0.0004 -0.0037
                                           -0.0021 -0.0005  0.0003 -0.0003 -0.0002
                                           -0.0061  0.0017  0.0077  0.0016  0.0008
                                           -0.0001
                ( 27.19%)   0.5214* H   2 s( 99.90%)p 0.00(  0.09%)d 0.00(  0.01%)
                                            0.9995  0.0036 -0.0001  0.0002 -0.0020
                                            0.0300 -0.0041  0.0039  0.0019 -0.0004
                                            0.0003  0.0019 -0.0003  0.0034 -0.0015
                                            0.0011  0.0011 -0.0027 -0.0007  0.0084
                                           -0.0010 -0.0029  0.0008
     2. (1.96703) BD ( 1) O   1 - H   4  
                ( 75.39%)   0.8683* O   1 s( 22.41%)p 3.44( 77.09%)d 0.02(  0.48%)
                                                  f 0.00(  0.02%)
                                           -0.0002 -0.4734 -0.0015 -0.0018  0.0013
                                            0.1758 -0.0183 -0.0007  0.0024  0.5293
                                           -0.0138  0.0053 -0.0002 -0.6775  0.0136
                                           -0.0080  0.0053  0.0099 -0.0042  0.0019
                                           -0.0108  0.0047 -0.0020  0.0577 -0.0021
                                           -0.0021  0.0160 -0.0008  0.0008 -0.0310
                                            0.0030 -0.0013  0.0050 -0.0018  0.0008
                                            0.0008  0.0091  0.0011  0.0015  0.0029
                                           -0.0024 -0.0007 -0.0001 -0.0009  0.0040
                                           -0.0028
                ( 24.61%)   0.4961* H   4 s( 99.83%)p 0.00(  0.16%)d 0.00(  0.01%)
                                           -0.9991 -0.0078 -0.0003 -0.0001 -0.0201
                                            0.0018  0.0011 -0.0086 -0.0135 -0.0043
                                           -0.0210  0.0192  0.0090  0.0001  0.0016
                                            0.0011 -0.0021  0.0027  0.0007 -0.0078
                                           -0.0007  0.0019  0.0006
     3. (1.99968) CR ( 1) O   1           s(100.00%)
                                            1.0000 -0.0004  0.0000 -0.0000  0.0000
                                           -0.0001  0.0000 -0.0000  0.0000  0.0001
                                           -0.0000  0.0000  0.0000 -0.0000  0.0000
                                           -0.0000  0.0000  0.0000 -0.0000  0.0000
                                            0.0000  0.0000 -0.0000  0.0000 -0.0000
                                           -0.0000 -0.0000  0.0000  0.0000  0.0000
                                            0.0000 -0.0000  0.0000 -0.0000  0.0000
                                            0.0000  0.0000  0.0000  0.0000  0.0000
                                            0.0000 -0.0000 -0.0000 -0.0000  0.0000
                                           -0.0000
     4. (2.00001) CR ( 1)Cl   3           s(100.00%)
                                            1.0000 -0.0000  0.0000 -0.0000 -0.0000
                                            0.0000 -0.0000 -0.0000 -0.0000 -0.0000
                                            0.0000 -0.0000 -0.0000 -0.0000  0.0000
                                            0.0000 -0.0000 -0.0000 -0.0000  0.0000
                                           -0.0000 -0.0000 -0.0000 -0.0000 -0.0000
                                           -0.0000 -0.0000 -0.0000 -0.0000 -0.0000
                                            0.0000  0.0000 -0.0000 -0.0000 -0.0000
                                           -0.0000  0.0000  0.0000 -0.0000  0.0000
                                           -0.0000 -0.0000  0.0000  0.0000 -0.0000
                                           -0.0000  0.0000  0.0000  0.0000  0.0000
     5. (2.00000) CR ( 2)Cl   3           s(100.00%)
                                           -0.0000  1.0000 -0.0000 -0.0000 -0.0000
                                           -0.0000 -0.0000 -0.0000 -0.0000 -0.0000
                                            0.0000 -0.0000 -0.0000 -0.0000  0.0000
                                            0.0000 -0.0000 -0.0000 -0.0000  0.0000
                                           -0.0000 -0.0000 -0.0000 -0.0000 -0.0000
                                           -0.0000 -0.0000 -0.0000 -0.0000 -0.0000
                                            0.0000  0.0000 -0.0000 -0.0000 -0.0000
                                           -0.0000  0.0000  0.0000 -0.0000  0.0000
                                           -0.0000 -0.0000  0.0000  0.0000 -0.0000
                                           -0.0000  0.0000  0.0000  0.0000  0.0000
     6. (2.00003) CR ( 3)Cl   3           s(  0.00%)p 1.00(100.00%)
                                           -0.0000 -0.0000 -0.0000 -0.0000  0.0000
                                           -0.0000  1.0000  0.0000 -0.0000  0.0000
                                           -0.0000 -0.0000 -0.0000 -0.0000  0.0000
                                           -0.0000 -0.0000 -0.0000 -0.0000 -0.0000
                                           -0.0000  0.0000  0.0000  0.0000  0.0000
                                            0.0000  0.0000 -0.0000 -0.0000 -0.0000
                                            0.0000  0.0000  0.0000 -0.0000 -0.0000
                                           -0.0000  0.0000  0.0000 -0.0000 -0.0000
                                           -0.0000 -0.0000  0.0000  0.0000  0.0000
                                            0.0000  0.0000  0.0000  0.0000  0.0000
     7. (2.00002) CR ( 4)Cl   3           s(  0.00%)p 1.00(100.00%)
                                           -0.0000 -0.0000 -0.0000 -0.0000 -0.0000
                                            0.0000 -0.0000 -0.0000 -0.0000 -0.0000
                                            0.0000  1.0000 -0.0000 -0.0000  0.0000
                                            0.0000 -0.0000 -0.0000 -0.0000  0.0000
                                           -0.0000 -0.0000 -0.0000 -0.0000 -0.0000
                                           -0.0000 -0.0000 -0.0000 -0.0000 -0.0000
                                            0.0000  0.0000 -0.0000 -0.0000 -0.0000
                                           -0.0000  0.0000  0.0000 -0.0000 -0.0000
                                           -0.0000 -0.0000  0.0000  0.0000 -0.0000
                                           -0.0000  0.0000  0.0000  0.0000  0.0000
     8. (2.00002) CR ( 5)Cl   3           s(  0.00%)p 1.00(100.00%)
                                           -0.0000 -0.0000 -0.0000 -0.0000  0.0000
                                           -0.0000 -0.0000 -0.0000 -0.0000 -0.0000
                                            0.0000 -0.0000 -0.0000  0.0000  0.0000
                                           -0.0000  1.0000  0.0000 -0.0000 -0.0000
                                           -0.0000 -0.0000 -0.0000 -0.0000 -0.0000
                                           -0.0000 -0.0000 -0.0000 -0.0000 -0.0000
                                            0.0000  0.0000 -0.0000  0.0000  0.0000
                                            0.0000  0.0000  0.0000  0.0000  0.0000
                                            0.0000  0.0000  0.0000  0.0000 -0.0000
                                           -0.0000  0.0000  0.0000  0.0000  0.0000
     9. (1.97091) LP ( 1) O   1           s( 56.91%)p 0.75( 42.95%)d 0.00(  0.13%)
                                                  f 0.00(  0.00%)
                                            0.0003  0.7544  0.0021 -0.0023  0.0026
                                           -0.4215 -0.0025  0.0037 -0.0013  0.3374
                                            0.0088 -0.0036  0.0014 -0.3712 -0.0076
                                            0.0031  0.0011  0.0184 -0.0012 -0.0023
                                           -0.0273  0.0041  0.0008  0.0127 -0.0019
                                            0.0001 -0.0042  0.0015 -0.0030 -0.0031
                                            0.0007  0.0006  0.0031 -0.0014 -0.0005
                                            0.0001  0.0022 -0.0006 -0.0016  0.0013
                                            0.0026 -0.0004 -0.0009  0.0004  0.0035
                                           -0.0018
    10. (1.96084) LP ( 2) O   1           s(  0.16%)p99.99( 99.49%)d 2.02(  0.32%)
                                                  f 0.17(  0.03%)
                                            0.0000  0.0343 -0.0176 -0.0104 -0.0001
                                           -0.0033 -0.0009  0.0011 -0.0021 -0.7732
                                           -0.0234  0.0051 -0.0015 -0.6292 -0.0228
                                            0.0055 -0.0017 -0.0338  0.0104 -0.0049
                                           -0.0277  0.0080 -0.0039 -0.0155  0.0032
                                           -0.0018 -0.0096 -0.0013  0.0033 -0.0269
                                            0.0003  0.0045 -0.0015 -0.0007  0.0013
                                           -0.0006  0.0057 -0.0020 -0.0107  0.0037
                                           -0.0000  0.0003  0.0002  0.0008 -0.0088
                                            0.0045
    11. (1.98073) LP ( 1)Cl   3           s( 99.93%)p 0.00(  0.07%)d 0.00(  0.00%)
                                                  f 0.00(  0.00%)
                                           -0.0000 -0.0000  0.9996 -0.0000  0.0000
                                           -0.0000  0.0000 -0.0037  0.0005 -0.0000
                                            0.0001  0.0000 -0.0252  0.0007 -0.0002
                                            0.0002  0.0000 -0.0074  0.0011 -0.0001
                                            0.0003  0.0006  0.0003  0.0001  0.0003
                                            0.0001  0.0000  0.0019  0.0008  0.0001
                                           -0.0006 -0.0002  0.0000 -0.0003 -0.0002
                                           -0.0000 -0.0004 -0.0003 -0.0000 -0.0000
                                           -0.0000 -0.0000 -0.0005 -0.0004  0.0002
                                            0.0002 -0.0002 -0.0002 -0.0001 -0.0001
    12. (1.95242) LP ( 2)Cl   3           s(  0.00%)p 1.00(100.00%)d 0.00(  0.00%)
                                                  f 0.00(  0.00%)
                                           -0.0000  0.0000  0.0027 -0.0000 -0.0006
                                            0.0007 -0.0000  0.8461  0.0003  0.0005
                                           -0.0004 -0.0000  0.1325 -0.0009  0.0001
                                           -0.0002  0.0000 -0.5163  0.0011  0.0000
                                            0.0001  0.0026  0.0012  0.0004  0.0021
                                            0.0014  0.0008 -0.0001  0.0005  0.0006
                                            0.0023  0.0015  0.0010 -0.0026 -0.0019
                                           -0.0012 -0.0003 -0.0003 -0.0002 -0.0002
                                           -0.0009 -0.0007  0.0000 -0.0000  0.0009
                                            0.0007 -0.0003 -0.0003  0.0005  0.0004
    13. (1.95217) LP ( 3)Cl   3           s(  0.01%)p 1.00( 99.99%)d 0.00(  0.00%)
                                                  f 0.00(  0.00%)
                                           -0.0000 -0.0000  0.0069 -0.0017 -0.0041
                                            0.0029  0.0000 -0.4972 -0.0001 -0.0002
                                            0.0001 -0.0000  0.5455 -0.0029 -0.0003
                                            0.0008  0.0000 -0.6747  0.0020  0.0002
                                            0.0001 -0.0009  0.0000  0.0002 -0.0026
                                           -0.0018 -0.0011  0.0017  0.0018  0.0015
                                           -0.0011 -0.0008 -0.0001 -0.0020 -0.0014
                                           -0.0006 -0.0005 -0.0005 -0.0003 -0.0002
                                           -0.0010 -0.0009 -0.0009 -0.0009 -0.0007
                                           -0.0006 -0.0001 -0.0001 -0.0004 -0.0005
    14. (1.94577) LP ( 4)Cl   3           s(  0.07%)p99.99( 99.92%)d 0.20(  0.01%)
                                                  f 0.02(  0.00%)
                                            0.0000  0.0000  0.0254  0.0018  0.0011
                                            0.0001  0.0000  0.1922  0.0012  0.0001
                                           -0.0003  0.0000  0.8271  0.0013 -0.0003
                                           -0.0001  0.0000  0.5274  0.0038 -0.0001
                                            0.0005  0.0029  0.0013  0.0005  0.0026
                                            0.0011  0.0005  0.0094  0.0037  0.0016
                                           -0.0030 -0.0008  0.0002  0.0006  0.0005
                                            0.0005 -0.0013 -0.0011 -0.0000 -0.0001
                                            0.0005  0.0001 -0.0017 -0.0013  0.0008
                                            0.0006 -0.0006 -0.0006 -0.0005 -0.0005
    15. (0.02020) RY*( 1) O   1           s(  0.20%)p99.99( 96.78%)d14.81(  2.94%)
                                                  f 0.43(  0.08%)
                                            0.0000 -0.0010  0.0409  0.0176  0.0020
                                           -0.0000  0.0026 -0.0034  0.0043 -0.0331
                                            0.7647  0.0302 -0.0110 -0.0270  0.6162
                                            0.0191 -0.0072  0.1158 -0.0278  0.0111
                                            0.0887 -0.0219  0.0095  0.0441 -0.0097
                                            0.0050  0.0177 -0.0017 -0.0024  0.0645
                                           -0.0074 -0.0034 -0.0022  0.0007  0.0028
                                            0.0006 -0.0061  0.0063  0.0138 -0.0110
                                            0.0029 -0.0017  0.0031 -0.0016  0.0164
                                           -0.0124
    16. (0.01483) RY*( 2) O   1           s( 21.61%)p 3.43( 74.13%)d 0.19(  4.11%)
                                                  f 0.01(  0.15%)
                                           -0.0000 -0.0110  0.4620 -0.0500  0.0047
                                            0.0107 -0.5083 -0.0135  0.0001 -0.0084
                                            0.4251  0.0109 -0.0115  0.0048 -0.5489
                                           -0.0141  0.0102  0.0992 -0.0050 -0.0050
                                           -0.1696  0.0179 -0.0002  0.0322 -0.0123
                                           -0.0033 -0.0223  0.0093 -0.0081 -0.0172
                                           -0.0018  0.0047  0.0152 -0.0101 -0.0137
                                            0.0053 -0.0078  0.0013 -0.0180  0.0089
                                            0.0104 -0.0042  0.0084 -0.0017  0.0130
                                           -0.0084
    17. (0.00710) RY*( 3) O   1           s(  3.61%)p16.34( 59.03%)d10.13( 36.61%)
                                                  f 0.21(  0.74%)
                                            0.0000  0.0041  0.1865 -0.0339  0.0138
                                           -0.0545 -0.5998 -0.0191 -0.0152 -0.0188
                                           -0.2918 -0.0079 -0.0129  0.0191  0.3739
                                            0.0269 -0.0196 -0.3875 -0.0042 -0.0039
                                            0.1392 -0.0083  0.0079  0.2721  0.0332
                                           -0.0113  0.3429  0.0435 -0.0217  0.0249
                                           -0.0197  0.0138  0.0069 -0.0031 -0.0106
                                            0.0050  0.0248 -0.0055  0.0438 -0.0176
                                           -0.0217  0.0078  0.0192 -0.0077 -0.0535
                                            0.0234
    18. (0.00626) RY*( 4) O   1           s(  1.20%)p 4.27(  5.14%)d76.79( 92.47%)
                                                  f 0.98(  1.18%)
                                           -0.0000  0.0054  0.1093 -0.0083  0.0011
                                           -0.0212 -0.1666 -0.0143  0.0035 -0.0164
                                           -0.1312 -0.0178  0.0089  0.0041  0.0713
                                            0.0006 -0.0000  0.4002  0.0443 -0.0137
                                            0.5654  0.0456 -0.0151  0.0048  0.0059
                                           -0.0018 -0.2787 -0.0214  0.0011 -0.5987
                                           -0.0593  0.0158 -0.0791  0.0318  0.0072
                                           -0.0024  0.0226 -0.0082  0.0252 -0.0087
                                           -0.0058  0.0013  0.0064 -0.0049  0.0517
                                           -0.0210
    19. (0.00620) RY*( 5) O   1           s( 11.72%)p 0.95( 11.16%)d 6.48( 76.03%)
                                                  f 0.09(  1.09%)
                                            0.0000  0.0120  0.3422  0.0010 -0.0016
                                            0.0154  0.2748  0.0208 -0.0072  0.0225
                                            0.1111  0.0101 -0.0142 -0.0328 -0.1448
                                           -0.0101 -0.0014 -0.5684 -0.0437  0.0216
                                            0.5297  0.0339 -0.0178  0.0106  0.0096
                                           -0.0052 -0.3253 -0.0392  0.0129  0.2114
                                            0.0184 -0.0056 -0.0111  0.0006  0.0516
                                           -0.0139 -0.0137  0.0113  0.0109  0.0004
                                           -0.0552  0.0221 -0.0509  0.0112 -0.0340
                                            0.0097
    20. (0.00591) RY*( 6) O   1           s(  0.14%)p19.58(  2.78%)d99.99( 96.14%)
                                                  f 6.60(  0.94%)
                                            0.0000  0.0001  0.0371 -0.0066  0.0003
                                           -0.0025  0.0170  0.0005 -0.0031 -0.0299
                                           -0.0922 -0.0033 -0.0180 -0.0366 -0.1277
                                           -0.0101 -0.0061  0.5023  0.0634 -0.0190
                                            0.4466  0.0529 -0.0165  0.1010  0.0139
                                           -0.0040  0.3310  0.0331 -0.0027  0.6140
                                            0.0637 -0.0100  0.0270 -0.0132  0.0371
                                           -0.0131 -0.0401  0.0164  0.0555 -0.0217
                                            0.0082 -0.0027  0.0223 -0.0078  0.0277
                                           -0.0094
    21. (0.00566) RY*( 7) O   1           s(  5.88%)p 1.08(  6.34%)d14.80( 87.02%)
                                                  f 0.13(  0.76%)
                                           -0.0000  0.0224  0.2413  0.0033 -0.0081
                                            0.0372  0.1576  0.0140 -0.0037 -0.0361
                                           -0.1470 -0.0172 -0.0044  0.0243  0.1147
                                            0.0064  0.0039  0.1897  0.0187 -0.0024
                                           -0.2669 -0.0303  0.0096  0.7640  0.0959
                                           -0.0099 -0.3931 -0.0481  0.0036  0.1080
                                            0.0099 -0.0027  0.0364 -0.0145  0.0082
                                           -0.0027  0.0424 -0.0174  0.0016 -0.0025
                                            0.0480 -0.0176 -0.0276  0.0094  0.0191
                                           -0.0066
    22. (0.00284) RY*( 8) O   1           s(  6.97%)p 3.29( 22.92%)d 9.90( 69.01%)
                                                  f 0.16(  1.10%)
                                            0.0000 -0.0032  0.2599  0.0457 -0.0077
                                            0.0285 -0.2478  0.0128 -0.0452  0.0174
                                           -0.2559 -0.0130 -0.0519 -0.0269  0.3070
                                            0.0341 -0.0017  0.1500  0.0438  0.0041
                                           -0.1689 -0.0473  0.0012 -0.5119 -0.0972
                                           -0.0303 -0.4755 -0.0576 -0.0630  0.3556
                                            0.0229  0.0457  0.0264 -0.0129  0.0161
                                           -0.0046 -0.0666  0.0421 -0.0432  0.0190
                                           -0.0017 -0.0057 -0.0300  0.0114  0.0188
                                           -0.0069
    23. (0.00224) RY*( 9) O   1           s( 46.83%)p 0.47( 22.01%)d 0.65( 30.29%)
                                                  f 0.02(  0.87%)
                                            0.0000 -0.0068  0.6823  0.0211 -0.0472
                                           -0.0131  0.4220  0.0525 -0.0025 -0.0075
                                           -0.1251 -0.0133 -0.0792 -0.0045  0.1271
                                            0.0221  0.0163  0.0927  0.0353  0.0013
                                           -0.1366 -0.0672  0.0150 -0.1600 -0.0782
                                           -0.0126  0.4081  0.1230  0.0441 -0.2149
                                           -0.0881 -0.0156  0.0167 -0.0137 -0.0340
                                            0.0412 -0.0328  0.0300  0.0172 -0.0022
                                            0.0052  0.0018  0.0279 -0.0464 -0.0118
                                           -0.0016
    24. (0.00062) RY*(10) O   1           s( 43.49%)p 0.51( 22.02%)d 0.52( 22.47%)
                                                  f 0.28( 12.03%)
                                            0.0000 -0.0032 -0.0598  0.6519  0.0795
                                           -0.0043 -0.0364  0.0862 -0.0948 -0.0052
                                            0.0106  0.0653 -0.2588 -0.0068 -0.0740
                                            0.3540 -0.0136  0.0031 -0.1169  0.0239
                                            0.0341 -0.0626  0.0494  0.0563 -0.0266
                                            0.1463  0.0096 -0.1138 -0.0872 -0.0113
                                           -0.3959 -0.0115  0.2428 -0.0619 -0.0106
                                            0.0080 -0.2051  0.0120  0.0862 -0.0544
                                           -0.0563  0.0262 -0.0221  0.0048 -0.0162
                                           -0.0086
    25. (0.00057) RY*(11) O   1           s(  7.81%)p 1.81( 14.14%)d 8.10( 63.28%)
                                                  f 1.89( 14.76%)
                                           -0.0000 -0.0019 -0.0061  0.2765  0.0401
                                            0.0020  0.0001  0.0104 -0.0274  0.0061
                                            0.0467 -0.3471 -0.0634  0.0068  0.0252
                                           -0.1127  0.0226 -0.0371  0.5602  0.0190
                                           -0.0152  0.4923  0.0300  0.0100  0.0116
                                            0.0403 -0.0169  0.1946 -0.0330 -0.0385
                                            0.1763 -0.0071  0.2097 -0.0307 -0.1034
                                            0.0010  0.0286 -0.0119 -0.1935  0.0192
                                           -0.0574  0.0035 -0.0675 -0.0093 -0.2114
                                            0.0244
    26. (0.00057) RY*(12) O   1           s(  4.88%)p 9.67( 47.19%)d 7.37( 35.97%)
                                                  f 2.45( 11.96%)
                                           -0.0000  0.0037  0.0154  0.2200 -0.0127
                                            0.0018  0.0026 -0.4519  0.0523 -0.0155
                                           -0.0208 -0.4086 -0.0537 -0.0063  0.0126
                                           -0.3070 -0.0017 -0.0033 -0.5011 -0.0187
                                            0.0055  0.0422 -0.0132  0.0156 -0.1378
                                            0.0207 -0.0296  0.2444 -0.0396 -0.0076
                                            0.1560  0.0007  0.1381 -0.0130 -0.0581
                                            0.0088 -0.0684 -0.0005  0.0864 -0.0043
                                            0.0216 -0.0082  0.1145 -0.0148  0.2637
                                           -0.0373
    27. (0.00052) RY*(13) O   1           s(  0.90%)p69.13( 62.34%)d28.39( 25.60%)
                                                  f12.37( 11.15%)
                                            0.0000 -0.0060 -0.0319  0.0634  0.0628
                                           -0.0052 -0.0358  0.5145 -0.0485 -0.0024
                                            0.0368 -0.5451 -0.1435 -0.0083 -0.0242
                                           -0.1768 -0.0637 -0.0083  0.0555 -0.0175
                                            0.0023 -0.4238 -0.0393 -0.0127  0.2272
                                            0.0373  0.0119 -0.0001 -0.0070 -0.0160
                                            0.1312  0.0247 -0.2014  0.0050  0.1058
                                            0.0012 -0.1157 -0.0075  0.1785 -0.0075
                                           -0.0748  0.0087 -0.0750 -0.0009  0.0555
                                            0.0024
    28. (0.00046) RY*(14) O   1           s(  0.74%)p32.81( 24.42%)d 8.23(  6.12%)
                                                  f92.32( 68.72%)
                                           -0.0000  0.0047 -0.0099  0.0837 -0.0178
                                            0.0022  0.0022 -0.2711 -0.0194  0.0029
                                            0.0068  0.1235 -0.0325 -0.0067 -0.0079
                                           -0.3805 -0.0952  0.0160  0.1364  0.0417
                                           -0.0152 -0.1288 -0.0199  0.0271 -0.0693
                                            0.0304 -0.0395 -0.0230 -0.0411  0.0017
                                           -0.1089 -0.0363 -0.2656 -0.0229  0.0079
                                           -0.0020 -0.3805 -0.0522  0.2678 -0.0027
                                            0.1703  0.0132  0.1285  0.0166 -0.5913
                                           -0.0339
    29. (0.00044) RY*(15) O   1           s(  0.45%)p 7.18(  3.24%)d 7.05(  3.19%)
                                                  f99.99( 93.12%)
                                            0.0000 -0.0001  0.0034  0.0671 -0.0017
                                            0.0029  0.0019 -0.1294 -0.0077  0.0007
                                            0.0013 -0.0873 -0.0595 -0.0057 -0.0175
                                            0.0614 -0.0189  0.0229 -0.0808 -0.0122
                                            0.0399 -0.1177  0.0059 -0.0080  0.0205
                                            0.0058  0.0256 -0.0399  0.0053  0.0532
                                           -0.0485  0.0346 -0.2972 -0.0337 -0.6732
                                           -0.0728  0.2030  0.0388 -0.0961 -0.0287
                                            0.1583  0.0186 -0.5402 -0.0616 -0.0967
                                           -0.0079
    30. (0.00044) RY*(16) O   1           s(  0.46%)p59.68( 27.22%)d71.78( 32.74%)
                                                  f86.80( 39.59%)
                                           -0.0000  0.0009 -0.0169  0.0060  0.0651
                                           -0.0029 -0.0119  0.1688 -0.0383 -0.0030
                                           -0.0056 -0.0831 -0.1321  0.0034  0.0044
                                           -0.4394 -0.1568  0.0016 -0.0703 -0.0190
                                            0.0362  0.0018  0.0469  0.0454 -0.3147
                                           -0.0179  0.0437 -0.2090 -0.0223  0.0440
                                           -0.4078 -0.0530 -0.0375 -0.0177  0.1613
                                            0.0082  0.2368  0.0214 -0.5223 -0.0511
                                            0.1776  0.0331  0.0552  0.0030  0.0159
                                            0.0123
    31. (0.00043) RY*(17) O   1           s(  0.13%)p 3.16(  0.40%)d38.04(  4.80%)
                                                  f99.99( 94.67%)
                                           -0.0000 -0.0001  0.0015  0.0286  0.0211
                                            0.0031 -0.0056  0.0382  0.0201  0.0010
                                            0.0113  0.0218  0.0217 -0.0017 -0.0049
                                           -0.0277 -0.0145 -0.0645  0.1570 -0.0291
                                            0.0340 -0.0497  0.0282 -0.0578  0.0562
                                           -0.0233  0.0038 -0.0467 -0.0308 -0.0292
                                            0.0530 -0.0100  0.3171  0.0461  0.0784
                                            0.0158  0.1306  0.0183  0.2967  0.0384
                                            0.8275  0.1084 -0.0906 -0.0168  0.1589
                                            0.0238
    32. (0.00044) RY*(18) O   1           s(  2.07%)p20.80( 43.02%)d 8.47( 17.52%)
                                                  f18.08( 37.40%)
                                           -0.0000  0.0024 -0.0217  0.0691  0.1242
                                           -0.0049 -0.0239  0.3368 -0.0319 -0.0096
                                           -0.0213  0.4244  0.0777  0.0041  0.0127
                                           -0.3549 -0.0479 -0.0247  0.0335 -0.0268
                                            0.0069  0.0330  0.0289  0.0770 -0.3147
                                            0.0077 -0.0112  0.1763 -0.0074 -0.0404
                                            0.1807  0.0148  0.0983  0.0016 -0.2265
                                           -0.0245 -0.3772 -0.0650  0.0376 -0.0051
                                           -0.0875  0.0110 -0.2450 -0.0313  0.3087
                                            0.0205
    33. (0.00041) RY*(19) O   1           s(  4.05%)p 3.23( 13.08%)d10.81( 43.76%)
                                                  f 9.66( 39.11%)
                                           -0.0000 -0.0015 -0.0103  0.1399  0.1443
                                            0.0008 -0.0177  0.1969  0.0371  0.0001
                                           -0.0080  0.0499  0.0813  0.0018 -0.0154
                                            0.2689  0.0931  0.0388 -0.2680 -0.0412
                                            0.0572 -0.1711  0.0081  0.0441 -0.2078
                                           -0.0314 -0.0282  0.3346  0.0445 -0.0340
                                            0.3910  0.1228 -0.0335 -0.0046  0.1290
                                            0.0243 -0.0061 -0.0019 -0.3602 -0.0553
                                            0.2549  0.0430  0.0686 -0.0066 -0.4038
                                           -0.0726
    34. (0.00041) RY*(20) O   1           s(  4.24%)p 1.41(  5.99%)d 4.06( 17.24%)
                                                  f17.09( 72.53%)
                                           -0.0000 -0.0010 -0.0025  0.1791  0.1018
                                            0.0052  0.0054 -0.0559 -0.0128  0.0024
                                            0.0091 -0.0461  0.0098 -0.0008 -0.0105
                                            0.2252  0.0582 -0.0732  0.2001 -0.0227
                                           -0.0505  0.2052  0.0120  0.0534 -0.2416
                                           -0.0166  0.0006  0.1046  0.0213  0.0468
                                           -0.0390  0.0716 -0.6914 -0.1159  0.1258
                                            0.0293 -0.0564 -0.0018  0.0651  0.0018
                                            0.1884  0.0277  0.1587  0.0230  0.3794
                                            0.0612
    35. (0.00037) RY*(21) O   1           s(  5.71%)p 1.66(  9.46%)d 7.92( 45.19%)
                                                  f 6.94( 39.64%)
                                            0.0000  0.0027 -0.0184  0.2049  0.1215
                                           -0.0007 -0.0101 -0.1012 -0.1182  0.0013
                                            0.0130  0.2162  0.0503 -0.0034 -0.0308
                                           -0.1395 -0.0213 -0.0217  0.2782  0.0637
                                            0.0372 -0.4372 -0.0946 -0.0149  0.0483
                                            0.0906 -0.0771  0.3750  0.0756  0.0450
                                           -0.0587  0.0021  0.0452  0.0053 -0.1724
                                           -0.0435  0.4531  0.1023  0.0288 -0.0182
                                           -0.1264 -0.0197  0.3359  0.0785  0.0988
                                            0.0255
    36. (0.00034) RY*(22) O   1           s(  4.43%)p 4.07( 18.03%)d 6.55( 29.03%)
                                                  f10.95( 48.51%)
                                            0.0000  0.0018  0.0365  0.1779 -0.1063
                                           -0.0046  0.0001 -0.3490 -0.1316  0.0029
                                           -0.0044  0.1716 -0.0116 -0.0008  0.0042
                                           -0.0989  0.0416 -0.0109  0.1443  0.0677
                                            0.0051 -0.2208 -0.1085 -0.0185  0.3384
                                            0.1515  0.0844 -0.0959 -0.0196 -0.0491
                                            0.1983  0.0892 -0.0566 -0.0472  0.3444
                                            0.0891 -0.1611 -0.0590 -0.3988 -0.1446
                                            0.0236  0.0152 -0.3112 -0.0779  0.1944
                                            0.0477
    37. (0.00031) RY*(23) O   1           s(  8.12%)p 2.22( 17.98%)d 4.65( 37.71%)
                                                  f 4.46( 36.19%)
                                           -0.0000  0.0018  0.0630  0.2764  0.0277
                                           -0.0019 -0.0083  0.1846  0.0628 -0.0043
                                           -0.0284  0.2682 -0.0155  0.0039  0.0270
                                           -0.2597 -0.0227  0.0445 -0.2779 -0.0906
                                           -0.0627  0.3399  0.1220 -0.0742  0.2818
                                            0.1968  0.0194 -0.0320 -0.0547 -0.0001
                                            0.1412  0.0857 -0.2044 -0.1209  0.1819
                                            0.0724  0.3985  0.1348  0.2308  0.0474
                                           -0.0642 -0.0039 -0.0945 -0.0533 -0.1248
                                           -0.0565
    38. (0.00029) RY*(24) O   1           s(  7.03%)p 0.84(  5.90%)d 3.09( 21.71%)
                                                  f 9.29( 65.36%)
                                           -0.0000  0.0052 -0.0317 -0.0264  0.2619
                                            0.0079 -0.0020 -0.1714 -0.0879 -0.0045
                                            0.0134 -0.0794  0.0807  0.0035 -0.0207
                                            0.0646 -0.0650  0.0223  0.0820  0.0454
                                           -0.0227 -0.1074 -0.0723  0.0413 -0.3857
                                           -0.1421  0.0047  0.1046  0.0227 -0.0072
                                           -0.0740 -0.0533  0.0539  0.0716  0.3882
                                            0.1581  0.2068  0.1011  0.2536  0.1341
                                           -0.1968 -0.0884 -0.4868 -0.2006 -0.1001
                                           -0.0265
    39. (0.00018) RY*(25) O   1           s(  4.90%)p 1.60(  7.81%)d15.82( 77.46%)
                                                  f 2.01(  9.83%)
                                            0.0000 -0.0002  0.0485  0.2152  0.0171
                                           -0.0105  0.0372 -0.0386  0.2527 -0.0069
                                            0.0061 -0.0010  0.1029  0.0033 -0.0162
                                           -0.0053 -0.0172 -0.0134  0.1112  0.0795
                                            0.0111 -0.1361 -0.1545  0.0425 -0.2589
                                           -0.1573  0.1046 -0.5454 -0.3742 -0.0608
                                            0.3506  0.2111  0.0278  0.0063 -0.0873
                                           -0.0507  0.1168  0.1276  0.0328  0.0226
                                           -0.0926 -0.1287  0.1375  0.1077  0.0098
                                           -0.0064
    40. (0.00014) RY*(26) O   1           s(  3.14%)p14.14( 44.47%)d12.80( 40.23%)
                                                  f 3.87( 12.16%)
                                           -0.0000  0.0002  0.0375  0.1241  0.1209
                                            0.0030 -0.0132  0.0786  0.3677 -0.0035
                                           -0.0108 -0.0469  0.4694 -0.0043  0.0220
                                           -0.0483  0.2787 -0.0065 -0.0007 -0.1214
                                           -0.0011 -0.0271 -0.2856 -0.0398  0.1471
                                           -0.0368 -0.0148  0.0783 -0.2614  0.0425
                                           -0.2316 -0.3879 -0.0213 -0.1453 -0.0131
                                            0.0540 -0.0303 -0.1910 -0.0648 -0.0468
                                            0.0188 -0.0289 -0.0208 -0.1962  0.0072
                                           -0.1142
    41. (0.00010) RY*(27) O   1           s( 50.71%)p 0.10(  4.85%)d 0.33( 16.55%)
                                                  f 0.55( 27.88%)
                                            0.0000 -0.0021  0.0801 -0.0715  0.7040
                                            0.0045  0.0543 -0.1309 -0.1647  0.0028
                                           -0.0106 -0.0139  0.0208 -0.0004  0.0215
                                            0.0096 -0.0049  0.0131 -0.0357 -0.2917
                                           -0.0213  0.0427  0.0736 -0.0469  0.1302
                                            0.1510  0.0485 -0.1385 -0.0724 -0.0076
                                            0.0414 -0.0282 -0.0061  0.2358 -0.0121
                                           -0.1553 -0.0162 -0.2783 -0.0292  0.0293
                                            0.0014 -0.0912  0.0007  0.3323 -0.0030
                                            0.0274
    42. (0.00008) RY*(28) O   1           s(  9.17%)p 0.69(  6.30%)d 6.00( 55.01%)
                                                  f 3.22( 29.52%)
    43. (0.00007) RY*(29) O   1           s(  1.91%)p 1.11(  2.12%)d 6.70( 12.78%)
                                                  f43.63( 83.19%)
    44. (0.00008) RY*(30) O   1           s(  1.11%)p 4.21(  4.66%)d 4.51(  4.98%)
                                                  f80.69( 89.25%)
    45. (0.00007) RY*(31) O   1           s(  1.06%)p 0.66(  0.70%)d 4.71(  4.99%)
                                                  f87.88( 93.25%)
    46. (0.00007) RY*(32) O   1           s(  2.89%)p 0.74(  2.15%)d12.17( 35.15%)
                                                  f20.72( 59.82%)
    47. (0.00007) RY*(33) O   1           s(  0.28%)p 9.03(  2.49%)d56.32( 15.55%)
                                                  f99.99( 81.68%)
    48. (0.00007) RY*(34) O   1           s(  4.02%)p 0.17(  0.70%)d 3.03( 12.19%)
                                                  f20.67( 83.09%)
    49. (0.00005) RY*(35) O   1           s(  6.79%)p 1.59( 10.82%)d 9.04( 61.40%)
                                                  f 3.09( 20.99%)
    50. (0.00005) RY*(36) O   1           s(  4.69%)p 1.09(  5.10%)d 8.77( 41.14%)
                                                  f10.47( 49.08%)
    51. (0.00003) RY*(37) O   1           s( 11.85%)p 0.55(  6.53%)d 3.08( 36.57%)
                                                  f 3.80( 45.05%)
    52. (0.00003) RY*(38) O   1           s(  0.23%)p88.78( 20.66%)d99.99( 64.62%)
                                                  f62.21( 14.48%)
    53. (0.00002) RY*(39) O   1           s(  0.91%)p22.63( 20.68%)d81.41( 74.42%)
                                                  f 4.36(  3.98%)
    54. (-.00000) RY*(40) O   1           s(  0.36%)p99.99( 76.16%)d57.56( 20.45%)
                                                  f 8.55(  3.04%)
    55. (-.00000) RY*(41) O   1           s(  3.36%)p20.98( 70.49%)d 7.19( 24.16%)
                                                  f 0.59(  2.00%)
    56. (0.00205) RY*( 1) H   2           s( 50.92%)p 0.76( 38.73%)d 0.20( 10.36%)
                                           -0.0007  0.6940 -0.1532 -0.0641 -0.1521
                                            0.0134 -0.0298 -0.4419 -0.0983 -0.0134
[...]
   115. (0.00006) RY*(38)Cl   3           s( 95.29%)p 0.01(  1.09%)d 0.04(  3.54%)
                                                  f 0.00(  0.08%)
   116. (0.00001) RY*(39)Cl   3           s(  0.32%)p99.99( 95.80%)d 7.27(  2.34%)
                                                  f 4.79(  1.54%)
   117. (0.00000) RY*(40)Cl   3           s(  0.50%)p99.99( 98.09%)d 1.56(  0.78%)
                                                  f 1.26(  0.63%)
   118. (0.00000) RY*(41)Cl   3           s(  0.36%)p99.99( 97.17%)d 5.12(  1.86%)
                                                  f 1.67(  0.61%)
   119. (0.00522) RY*( 1) H   4           s( 12.51%)p 6.80( 85.09%)d 0.19(  2.40%)
                                           -0.0175  0.3470 -0.0620 -0.0239  0.1598
                                           -0.0303  0.0084  0.8912 -0.0328  0.0170
                                            0.1690  0.0113 -0.0045 -0.0016  0.0053
                                            0.0014 -0.0082 -0.1166 -0.0152  0.0786
                                           -0.0471  0.0010 -0.0410
   120. (0.00405) RY*( 2) H   4           s( 46.23%)p 1.13( 52.33%)d 0.03(  1.44%)
                                            0.0130  0.6745 -0.0802  0.0289 -0.2780
                                           -0.0010 -0.0195 -0.0974 -0.0432 -0.0223
                                           -0.6475 -0.1192 -0.0185 -0.0610  0.0124
                                           -0.0207  0.0131 -0.0389 -0.0038  0.0041
                                            0.0276  0.0847  0.0201
   121. (0.00307) RY*( 3) H   4           s( 19.15%)p 4.13( 79.04%)d 0.09(  1.81%)
                                           -0.0206  0.4142  0.1300 -0.0511  0.8141
                                            0.0095  0.0110 -0.3318 -0.0264 -0.0080
                                            0.1203 -0.0198 -0.0412 -0.0203  0.0125
                                           -0.0371  0.0010  0.0069 -0.0182  0.1196
                                            0.0113 -0.0321  0.0190
   122. (0.00135) RY*( 4) H   4           s( 31.82%)p 2.00( 63.63%)d 0.14(  4.55%)
                                           -0.0077  0.4509  0.3336  0.0592 -0.4076
                                           -0.0204  0.0183 -0.1508  0.2835 -0.0050
                                            0.5666  0.1373 -0.1626  0.0778 -0.0305
                                            0.0756 -0.0133  0.1538 -0.0498 -0.0729
                                            0.0114 -0.0246  0.0214
   123. (0.00050) RY*( 5) H   4           s( 18.52%)p 3.56( 65.98%)d 0.84( 15.49%)
                                            0.0083 -0.1360  0.3971  0.0948  0.1892
                                            0.2441 -0.0082  0.1970  0.3571  0.0171
                                           -0.4138  0.4261 -0.2122  0.0883  0.0034
                                            0.0730 -0.0737  0.3117 -0.0801 -0.1604
                                            0.0127  0.0801  0.0218
   124. (0.00036) RY*( 6) H   4           s(  2.60%)p33.54( 87.29%)d 3.89( 10.11%)
                                           -0.0012 -0.0267 -0.0183  0.1581  0.1031
                                           -0.8789  0.1290  0.0217  0.2333 -0.0088
                                           -0.0928  0.0525  0.0826 -0.0875 -0.1176
                                           -0.0223  0.1070  0.0955 -0.0392 -0.2345
                                           -0.0390  0.0223 -0.0038
   125. (0.00026) RY*( 7) H   4           s( 11.42%)p 5.21( 59.45%)d 2.55( 29.13%)
                                            0.0023  0.0153  0.2691 -0.2038 -0.0127
                                           -0.0662  0.1904  0.0492 -0.4219  0.5539
                                           -0.0427 -0.2540  0.0124  0.2323  0.0170
                                            0.0730 -0.0752  0.2743 -0.0843 -0.2873
                                           -0.1431 -0.1462  0.1390
   126. (0.00020) RY*( 8) H   4           s(  8.82%)p 3.15( 27.78%)d 7.19( 63.40%)
                                            0.0054 -0.0536  0.2189 -0.1932 -0.0767
                                           -0.2552 -0.0581  0.0307 -0.3091 -0.2651
                                           -0.0855  0.1386 -0.1008  0.3069 -0.1646
                                            0.2247  0.2313  0.1849  0.0044  0.5912
                                            0.1177  0.0160  0.1046
   127. (0.00016) RY*( 9) H   4           s(  3.81%)p 6.00( 22.87%)d19.24( 73.32%)
                                            0.0061 -0.0153  0.1810 -0.0714 -0.0490
                                           -0.0262 -0.1472  0.0595 -0.3653 -0.1831
                                            0.0504  0.0814 -0.1557 -0.6805 -0.1701
                                           -0.3245 -0.1391  0.2778  0.0690 -0.0831
                                            0.0835 -0.0276  0.1415
   128. (0.00013) RY*(10) H   4           s(  2.97%)p14.23( 42.29%)d18.42( 54.74%)
                                           -0.0055 -0.0224  0.0145  0.1702  0.0850
                                            0.0369 -0.0066  0.0763 -0.0517 -0.4703
                                            0.0259 -0.3795 -0.1997  0.2502  0.0144
                                            0.1567 -0.0307 -0.0276  0.1846 -0.4074
                                            0.3007  0.0121  0.4095
   129. (0.00013) RY*(11) H   4           s(  9.30%)p 4.50( 41.86%)d 5.25( 48.84%)
                                           -0.0149 -0.1342  0.2597 -0.0857 -0.0286
                                           -0.0807 -0.0259  0.0202  0.2387  0.1710
                                           -0.0908 -0.3142 -0.4659 -0.0756 -0.1885
                                           -0.1967 -0.0421 -0.4727 -0.3070  0.2013
                                            0.0572 -0.1631  0.1364
   130. (0.00009) RY*(12) H   4           s(  4.25%)p11.50( 48.82%)d11.06( 46.93%)
   131. (0.00009) RY*(13) H   4           s( 23.37%)p 1.89( 44.10%)d 1.39( 32.53%)
   132. (0.00007) RY*(14) H   4           s(  8.42%)p 1.18(  9.96%)d 9.70( 81.63%)
   133. (0.00007) RY*(15) H   4           s(  0.01%)p99.99( 17.04%)d99.99( 82.95%)
   134. (0.00007) RY*(16) H   4           s(  4.64%)p 3.00( 13.93%)d17.55( 81.43%)
   135. (0.00005) RY*(17) H   4           s( 41.74%)p 0.72( 29.94%)d 0.68( 28.32%)
   136. (0.00003) RY*(18) H   4           s(  3.92%)p 6.68( 26.17%)d17.85( 69.92%)
   137. (0.00004) RY*(19) H   4           s(  0.28%)p28.55(  8.11%)d99.99( 91.61%)
   138. (0.00004) RY*(20) H   4           s(  0.78%)p35.35( 27.48%)d92.30( 71.74%)
   139. (0.00002) RY*(21) H   4           s( 40.01%)p 0.23(  9.26%)d 1.27( 50.73%)
   140. (0.00001) RY*(22) H   4           s(  5.60%)p 6.69( 37.43%)d10.18( 56.97%)
   141. (0.02157) BD*( 1) O   1 - H   2  
                ( 27.19%)   0.5214* O   1 s( 20.47%)p 3.86( 79.05%)d 0.02(  0.47%)
                                                  f 0.00(  0.01%)
                                           -0.0002 -0.4523  0.0043 -0.0046  0.0049
                                           -0.8859  0.0305 -0.0080  0.0002 -0.0513
                                            0.0094 -0.0006  0.0019  0.0431 -0.0141
                                            0.0011 -0.0016  0.0087  0.0009 -0.0024
                                           -0.0206  0.0031  0.0002  0.0061 -0.0001
                                           -0.0015 -0.0562  0.0032 -0.0023  0.0307
                                           -0.0016  0.0015  0.0000 -0.0004  0.0037
                                            0.0021  0.0005 -0.0003  0.0003  0.0002
                                            0.0061 -0.0017 -0.0077 -0.0016 -0.0008
                                            0.0001
                ( 72.81%)  -0.8533* H   2 s( 99.90%)p 0.00(  0.09%)d 0.00(  0.01%)
                                           -0.9995 -0.0036  0.0001 -0.0002  0.0020
                                           -0.0300  0.0041 -0.0039 -0.0019  0.0004
                                           -0.0003 -0.0019  0.0003 -0.0034  0.0015
                                           -0.0011 -0.0011  0.0027  0.0007 -0.0084
                                            0.0010  0.0029 -0.0008
   142. (0.02561) BD*( 1) O   1 - H   4  
                ( 24.61%)   0.4961* O   1 s( 22.41%)p 3.44( 77.09%)d 0.02(  0.48%)
                                                  f 0.00(  0.02%)
                                            0.0002  0.4734  0.0015  0.0018 -0.0013
                                           -0.1758  0.0183  0.0007 -0.0024 -0.5293
                                            0.0138 -0.0053  0.0002  0.6775 -0.0136
                                            0.0080 -0.0053 -0.0099  0.0042 -0.0019
                                            0.0108 -0.0047  0.0020 -0.0577  0.0021
                                            0.0021 -0.0160  0.0008 -0.0008  0.0310
                                           -0.0030  0.0013 -0.0050  0.0018 -0.0008
                                           -0.0008 -0.0091 -0.0011 -0.0015 -0.0029
                                            0.0024  0.0007  0.0001  0.0009 -0.0040
                                            0.0028
                ( 75.39%)  -0.8683* H   4 s( 99.83%)p 0.00(  0.16%)d 0.00(  0.01%)
                                            0.9991  0.0078  0.0003  0.0001  0.0201
                                           -0.0018 -0.0011  0.0086  0.0135  0.0043
                                            0.0210 -0.0192 -0.0090 -0.0001 -0.0016
                                           -0.0011  0.0021 -0.0027 -0.0007  0.0078
                                            0.0007 -0.0019 -0.0006


 NHO Directionality and "Bond Bending" (deviations from line of nuclear centers)

         [Thresholds for printing:  angular deviation  >  1.0 degree]
                                    hybrid p-character > 25.0%
                                    orbital occupancy  >  0.10e

                                Line of Centers        Hybrid 1              Hybrid 2
                                ---------------  -------------------   ------------------
                NBO               Theta   Phi    Theta   Phi    Dev    Theta   Phi    Dev
 ========================================================================================
     1. BD (   1) O   1 - H   2    90.0    0.0    91.9    2.7   3.3      --     --    --
     2. BD (   1) O   1 - H   4    40.0  258.3    39.2  253.0   3.5      --     --    --
     9. LP (   1) O   1             --     --    124.5  140.8   --       --     --    --
    10. LP (   2) O   1             --     --    129.3  269.6   --       --     --    --
    12. LP (   2)Cl   3             --     --    121.0    8.8   --       --     --    --
    13. LP (   3)Cl   3             --     --    132.4  132.5   --       --     --    --
    14. LP (   4)Cl   3             --     --     58.0   76.9   --       --     --    --


 Natural Bond Orbitals (Summary):

           NBO                  Occupancy  
 -----------------------------------------------
 Molecular unit  1  (H2O)
     1. BD (   1) O   1 - H   2          1.96629
     2. BD (   1) O   1 - H   4          1.96703
     3. CR (   1) O   1                  1.99968
     9. LP (   1) O   1                  1.97091
    10. LP (   2) O   1                  1.96084
    15. RY*(   1) O   1                  0.02020
    16. RY*(   2) O   1                  0.01483
    17. RY*(   3) O   1                  0.00710
    18. RY*(   4) O   1                  0.00626
    19. RY*(   5) O   1                  0.00620
    20. RY*(   6) O   1                  0.00591
    21. RY*(   7) O   1                  0.00566
    22. RY*(   8) O   1                  0.00284
    23. RY*(   9) O   1                  0.00224
    24. RY*(  10) O   1                  0.00062
    25. RY*(  11) O   1                  0.00057
    26. RY*(  12) O   1                  0.00057
    27. RY*(  13) O   1                  0.00052
    28. RY*(  14) O   1                  0.00046
    29. RY*(  15) O   1                  0.00044
    30. RY*(  16) O   1                  0.00044
    31. RY*(  17) O   1                  0.00043
    32. RY*(  18) O   1                  0.00044
    33. RY*(  19) O   1                  0.00041
    34. RY*(  20) O   1                  0.00041
    35. RY*(  21) O   1                  0.00037
    36. RY*(  22) O   1                  0.00034
    37. RY*(  23) O   1                  0.00031
    38. RY*(  24) O   1                  0.00029
    39. RY*(  25) O   1                  0.00018
    40. RY*(  26) O   1                  0.00014
    41. RY*(  27) O   1                  0.00010
    42. RY*(  28) O   1                  0.00008
    43. RY*(  29) O   1                  0.00007
    44. RY*(  30) O   1                  0.00008
    45. RY*(  31) O   1                  0.00007
    46. RY*(  32) O   1                  0.00007
    47. RY*(  33) O   1                  0.00007
    48. RY*(  34) O   1                  0.00007
    49. RY*(  35) O   1                  0.00005
    50. RY*(  36) O   1                  0.00005
    51. RY*(  37) O   1                  0.00003
    52. RY*(  38) O   1                  0.00003
    53. RY*(  39) O   1                  0.00002
    54. RY*(  40) O   1                 -0.00000
    55. RY*(  41) O   1                 -0.00000
    56. RY*(   1) H   2                  0.00205
    57. RY*(   2) H   2                  0.00160
    58. RY*(   3) H   2                  0.00081
    59. RY*(   4) H   2                  0.00046
    60. RY*(   5) H   2                  0.00028
    61. RY*(   6) H   2                  0.00017
    62. RY*(   7) H   2                  0.00012
    63. RY*(   8) H   2                  0.00011
    64. RY*(   9) H   2                  0.00010
    65. RY*(  10) H   2                  0.00009
    66. RY*(  11) H   2                  0.00008
    67. RY*(  12) H   2                  0.00006
    68. RY*(  13) H   2                  0.00006
    69. RY*(  14) H   2                  0.00003
    70. RY*(  15) H   2                  0.00004
    71. RY*(  16) H   2                  0.00003
    72. RY*(  17) H   2                  0.00002
    73. RY*(  18) H   2                  0.00003
    74. RY*(  19) H   2                  0.00002
    75. RY*(  20) H   2                  0.00001
    76. RY*(  21) H   2                  0.00001
    77. RY*(  22) H   2                  0.00001
   119. RY*(   1) H   4                  0.00522
   120. RY*(   2) H   4                  0.00405
   121. RY*(   3) H   4                  0.00307
   122. RY*(   4) H   4                  0.00135
   123. RY*(   5) H   4                  0.00050
   124. RY*(   6) H   4                  0.00036
   125. RY*(   7) H   4                  0.00026
   126. RY*(   8) H   4                  0.00020
   127. RY*(   9) H   4                  0.00016
   128. RY*(  10) H   4                  0.00013
   129. RY*(  11) H   4                  0.00013
   130. RY*(  12) H   4                  0.00009
   131. RY*(  13) H   4                  0.00009
   132. RY*(  14) H   4                  0.00007
   133. RY*(  15) H   4                  0.00007
   134. RY*(  16) H   4                  0.00007
   135. RY*(  17) H   4                  0.00005
   136. RY*(  18) H   4                  0.00003
   137. RY*(  19) H   4                  0.00004
   138. RY*(  20) H   4                  0.00004
   139. RY*(  21) H   4                  0.00002
   140. RY*(  22) H   4                  0.00001
   141. BD*(   1) O   1 - H   2          0.02157
   142. BD*(   1) O   1 - H   4          0.02561
       -------------------------------
              Total Lewis    9.86474  ( 98.5181%)
        Valence non-Lewis    0.04718  (  0.4712%)
        Rydberg non-Lewis    0.10121  (  1.0108%)
       -------------------------------
            Total unit  1   10.01313  (100.0000%)
           Charge unit  1   -0.01313

 Molecular unit  2  (Cl)
     4. CR (   1)Cl   3                  2.00001
     5. CR (   2)Cl   3                  2.00000
     6. CR (   3)Cl   3                  2.00003
     7. CR (   4)Cl   3                  2.00002
     8. CR (   5)Cl   3                  2.00002
    11. LP (   1)Cl   3                  1.98073
    12. LP (   2)Cl   3                  1.95242
    13. LP (   3)Cl   3                  1.95217
    14. LP (   4)Cl   3                  1.94577
    78. RY*(   1)Cl   3                  0.01844
    79. RY*(   2)Cl   3                  0.01842
    80. RY*(   3)Cl   3                  0.01837
    81. RY*(   4)Cl   3                  0.01834
    82. RY*(   5)Cl   3                  0.01834
    83. RY*(   6)Cl   3                  0.01422
    84. RY*(   7)Cl   3                  0.01408
    85. RY*(   8)Cl   3                  0.01316
    86. RY*(   9)Cl   3                  0.00480
    87. RY*(  10)Cl   3                  0.00130
    88. RY*(  11)Cl   3                  0.00130
    89. RY*(  12)Cl   3                  0.00130
    90. RY*(  13)Cl   3                  0.00130
    91. RY*(  14)Cl   3                  0.00130
    92. RY*(  15)Cl   3                  0.00130
    93. RY*(  16)Cl   3                  0.00130
    94. RY*(  17)Cl   3                  0.00102
    95. RY*(  18)Cl   3                  0.00102
    96. RY*(  19)Cl   3                  0.00093
    97. RY*(  20)Cl   3                  0.00089
    98. RY*(  21)Cl   3                  0.00085
    99. RY*(  22)Cl   3                  0.00059
   100. RY*(  23)Cl   3                  0.00058
   101. RY*(  24)Cl   3                  0.00055
   102. RY*(  25)Cl   3                  0.00038
   103. RY*(  26)Cl   3                  0.00015
   104. RY*(  27)Cl   3                  0.00015
   105. RY*(  28)Cl   3                  0.00015
   106. RY*(  29)Cl   3                  0.00015
   107. RY*(  30)Cl   3                  0.00015
   108. RY*(  31)Cl   3                  0.00014
   109. RY*(  32)Cl   3                  0.00015
   110. RY*(  33)Cl   3                  0.00012
   111. RY*(  34)Cl   3                  0.00011
   112. RY*(  35)Cl   3                  0.00011
   113. RY*(  36)Cl   3                  0.00010
   114. RY*(  37)Cl   3                  0.00009
   115. RY*(  38)Cl   3                  0.00006
   116. RY*(  39)Cl   3                  0.00001
   117. RY*(  40)Cl   3                  0.00000
   118. RY*(  41)Cl   3                  0.00000
       -------------------------------
              Total Lewis   17.83117  ( 99.1344%)
        Valence non-Lewis    0.00000  (  0.0000%)
        Rydberg non-Lewis    0.15570  (  0.8656%)
       -------------------------------
            Total unit  2   17.98687  (100.0000%)
           Charge unit  2   -0.98687
 Leave Link  607 at Tue Oct 19 16:02:28 2021, MaxMem= 16106127360 cpu:              69.6 elap:               2.5
 (Enter /sw/contrib/gaussian/g16/B01/g16/l9999.exe)
 1\1\GINC-N2098\SP\RMP2-FC\Aug-CC-pVTZ\Cl1H2O1(1-)\CGAVINH\19-Oct-2021\
 0\\#p pop=NBO SP NoSymm mp2/aug-cc-pvtz density=current\\title\\-1,1\O
 \X,1,10.\H,1,0.96061628,2,90.\Cl,1,3.08954942,2,90.,3,101.71720655,0\H
 ,1,0.96984,2,40.,3,101.71720655,0\\Version=ES64L-G16RevB.01\HF=-535.63
 34968\MP2=-536.1146002\RMSD=4.528e-09\Dipole=0.881302,1.4301815,0.3571
 813\Quadrupole=10.5629558,-21.6271413,11.0641855,-6.2995776,-0.1873257
 ,-0.3431665\PG=C01 [X(Cl1H2O1)]\\@


 TO DETECT ERRORS, THE PROGRAMMER MUST HAVE A CONNIVING MIND,
 ONE THAT DELIGHTS IN UNCOVERING FLAWS WHERE BEAUTY AND
 PERFECTION WERE ONCE THOUGHT TO LIE.

             -- THE PSYCHOLOGY OF COMPUTER PROGRAMMING
                GERALD M. WEINBERG
 Job cpu time:       0 days  0 hours  3 minutes  8.1 seconds.
 Elapsed time:       0 days  0 hours  0 minutes  8.8 seconds.
 File lengths (MBytes):  RWF=     10 Int=      0 D2E=      0 Chk=      8 Scr=      1
 Normal termination of Gaussian 16 at Tue Oct 19 16:02:29 2021.
