 Entering Gaussian System, Link 0=g16
 Input=clhod_oop_45_sp.gjf
 Output=clhod_oop_45_sp.log
 Initial command:
 /sw/contrib/gaussian/g16/B01/g16/l1.exe "/scr/Gau-4700.inp" -scrdir="/scr/"
 Entering Link 1 = /sw/contrib/gaussian/g16/B01/g16/l1.exe PID=      4701.
  
 Copyright (c) 1988-2017, Gaussian, Inc.  All Rights Reserved.
  
 This is part of the Gaussian(R) 16 program.  It is based on
 the Gaussian(R) 09 system (copyright 2009, Gaussian, Inc.),
 the Gaussian(R) 03 system (copyright 2003, Gaussian, Inc.),
 the Gaussian(R) 98 system (copyright 1998, Gaussian, Inc.),
 the Gaussian(R) 94 system (copyright 1995, Gaussian, Inc.),
 the Gaussian 92(TM) system (copyright 1992, Gaussian, Inc.),
 the Gaussian 90(TM) system (copyright 1990, Gaussian, Inc.),
 the Gaussian 88(TM) system (copyright 1988, Gaussian, Inc.),
 the Gaussian 86(TM) system (copyright 1986, Carnegie Mellon
 University), and the Gaussian 82(TM) system (copyright 1983,
 Carnegie Mellon University). Gaussian is a federally registered
 trademark of Gaussian, Inc.
  
 This software contains proprietary and confidential information,
 including trade secrets, belonging to Gaussian, Inc.
  
 This software is provided under written license and may be
 used, copied, transmitted, or stored only in accord with that
 written license.
  
 The following legend is applicable only to US Government
 contracts under FAR:
  
                    RESTRICTED RIGHTS LEGEND
  
 Use, reproduction and disclosure by the US Government is
 subject to restrictions as set forth in subparagraphs (a)
 and (c) of the Commercial Computer Software - Restricted
 Rights clause in FAR 52.227-19.
  
 Gaussian, Inc.
 340 Quinnipiac St., Bldg. 40, Wallingford CT 06492
  
  
 ---------------------------------------------------------------
 Warning -- This program may not be used in any manner that
 competes with the business of Gaussian, Inc. or will provide
 assistance to any competitor of Gaussian, Inc.  The licensee
 of this program is prohibited from giving any competitor of
 Gaussian, Inc. access to this program.  By using this program,
 the user acknowledges that Gaussian, Inc. is engaged in the
 business of creating and licensing software in the field of
 computational chemistry and represents and warrants to the
 licensee that it is not a competitor of Gaussian, Inc. and that
 it will not use this program in any manner prohibited above.
 ---------------------------------------------------------------
  

 Cite this work as:
 Gaussian 16, Revision B.01,
 M. J. Frisch, G. W. Trucks, H. B. Schlegel, G. E. Scuseria, 
 M. A. Robb, J. R. Cheeseman, G. Scalmani, V. Barone, 
 G. A. Petersson, H. Nakatsuji, X. Li, M. Caricato, A. V. Marenich, 
 J. Bloino, B. G. Janesko, R. Gomperts, B. Mennucci, H. P. Hratchian, 
 J. V. Ortiz, A. F. Izmaylov, J. L. Sonnenberg, D. Williams-Young, 
 F. Ding, F. Lipparini, F. Egidi, J. Goings, B. Peng, A. Petrone, 
 T. Henderson, D. Ranasinghe, V. G. Zakrzewski, J. Gao, N. Rega, 
 G. Zheng, W. Liang, M. Hada, M. Ehara, K. Toyota, R. Fukuda, 
 J. Hasegawa, M. Ishida, T. Nakajima, Y. Honda, O. Kitao, H. Nakai, 
 T. Vreven, K. Throssell, J. A. Montgomery, Jr., J. E. Peralta, 
 F. Ogliaro, M. J. Bearpark, J. J. Heyd, E. N. Brothers, K. N. Kudin, 
 V. N. Staroverov, T. A. Keith, R. Kobayashi, J. Normand, 
 K. Raghavachari, A. P. Rendell, J. C. Burant, S. S. Iyengar, 
 J. Tomasi, M. Cossi, J. M. Millam, M. Klene, C. Adamo, R. Cammi, 
 J. W. Ochterski, R. L. Martin, K. Morokuma, O. Farkas, 
 J. B. Foresman, and D. J. Fox, Gaussian, Inc., Wallingford CT, 2016.
 
 ******************************************
 Gaussian 16:  ES64L-G16RevB.01 20-Dec-2017
                19-Oct-2021 
 ******************************************
 %nproc=28
 Will use up to   28 processors via shared memory.
 %mem=120GB
 %chk=/gscratch/ilahie/mccoygrp/coire_hocl/oop_s_rOH_opt/clhod/clhod_oop_45_sp.ch
 k
 ----------------------------------------------------
 #p pop=NBO SP NoSymm mp2/aug-cc-pvtz density=current
 ----------------------------------------------------
 1/30=1,38=1,172=1/1;
 2/12=2,15=1,17=6,18=5,40=1/2;
 3/5=16,6=1,7=10,11=9,25=1,30=1,71=1/1,2,3;
 4//1;
 5/5=2,38=5/2;
 8/6=4,10=1/1;
 9/15=1,16=-3/6;
 10/5=1,13=10,31=1/2;
 6/7=2,8=2,9=2,10=2,22=-1,40=1/1,7;
 99/5=1,9=1/99;
 Leave Link    1 at Tue Oct 19 16:02:09 2021, MaxMem= 16106127360 cpu:               3.0 elap:               0.1
 (Enter /sw/contrib/gaussian/g16/B01/g16/l101.exe)
 -----
 title
 -----
 Symbolic Z-matrix:
 Charge = -1 Multiplicity = 1
 O
 X                    1     10. 
 H(iso=2)             1    r1       2     90. 
 Cl                   1    r2       2     90.      3    a1       0
 H                    1    r3       2    oop      3    a1       0
       Variables:
  r1                    0.96062                  
  r2                    3.08955                  
  r3                    0.97153                  
  a1                  101.71721                  
  OOP                  45.                       
 
 ITRead=  0  0  0  0
 MicOpt= -1 -1 -1 -1
 NAtoms=      4 NQM=        4 NQMF=       0 NMMI=      0 NMMIF=      0
                NMic=       0 NMicF=      0.
                    Isotopes and Nuclear Properties:
 (Nuclear quadrupole moments (NQMom) in fm**2, nuclear magnetic moments (NMagM)
  in nuclear magnetons)

  Atom         1           2           3           4
 IAtWgt=          16           2          35           1
 AtmWgt=  15.9949146   2.0141018  34.9688527   1.0078250
 NucSpn=           0           2           3           1
 AtZEff=  -0.0000000  -0.0000000  -0.0000000  -0.0000000
 NQMom=    0.0000000   0.2860000  -8.1650000   0.0000000
 NMagM=    0.0000000   0.8574380   0.8218740   2.7928460
 AtZNuc=   8.0000000   1.0000000  17.0000000   1.0000000
 Leave Link  101 at Tue Oct 19 16:02:10 2021, MaxMem= 16106127360 cpu:               3.5 elap:               0.2
 (Enter /sw/contrib/gaussian/g16/B01/g16/l202.exe)
                          Input orientation:                          
 ---------------------------------------------------------------------
 Center     Atomic      Atomic             Coordinates (Angstroms)
 Number     Number       Type             X           Y           Z
 ---------------------------------------------------------------------
      1          8           0        0.000000    0.000000    0.000000
      2          1           0        0.960616    0.000000    0.000000
      3         17           0       -0.627430   -3.025169    0.000000
      4          1           0       -0.139512   -0.672660    0.686975
 ---------------------------------------------------------------------
                    Distance matrix (angstroms):
                    1          2          3          4
     1  O    0.000000
     2  H    0.960616   0.000000
     3  Cl   3.089549   3.416656   0.000000
     4  H    0.971530   1.461057   2.498859   0.000000
 Symmetry turned off by external request.
 Stoichiometry    ClH2O(1-)
 Framework group  C1[X(ClH2O)]
 Deg. of freedom     6
 Full point group                 C1      NOp   1
 Rotational constants (GHZ):         249.6640168           4.2994077           4.2591542
 Leave Link  202 at Tue Oct 19 16:02:10 2021, MaxMem= 16106127360 cpu:               1.8 elap:               0.1
 (Enter /sw/contrib/gaussian/g16/B01/g16/l301.exe)
 Standard basis: Aug-CC-pVTZ (5D, 7F)
 Ernie: Thresh=  0.10000D-02 Tol=  0.10000D-05 Strict=F.
 Ernie:  16 primitive shells out of 116 were deleted.
   142 basis functions,   240 primitive gaussians,   164 cartesian basis functions
    14 alpha electrons       14 beta electrons
       nuclear repulsion energy        38.6537234314 Hartrees.
 IExCor=    0 DFT=F Ex=HF Corr=None ExCW=0 ScaHFX=  1.000000
 ScaDFX=  1.000000  1.000000  1.000000  1.000000 ScalE2=  1.000000  1.000000
 IRadAn=      5 IRanWt=     -1 IRanGd=            0 ICorTp=0 IEmpDi=  4
 NAtoms=    4 NActive=    4 NUniq=    4 SFac= 1.00D+00 NAtFMM=   60 NAOKFM=F Big=F
 Integral buffers will be    131072 words long.
 Raffenetti 1 integral format.
 Two-electron integral symmetry is turned off.
 Leave Link  301 at Tue Oct 19 16:02:10 2021, MaxMem= 16106127360 cpu:               1.2 elap:               0.1
 (Enter /sw/contrib/gaussian/g16/B01/g16/l302.exe)
 NPDir=0 NMtPBC=     1 NCelOv=     1 NCel=       1 NClECP=     1 NCelD=      1
         NCelK=      1 NCelE2=     1 NClLst=     1 CellRange=     0.0.
 One-electron integrals computed using PRISM.
 NBasis=   142 RedAO= T EigKep=  3.51D-04  NBF=   142
 NBsUse=   142 1.00D-06 EigRej= -1.00D+00 NBFU=   142
 Leave Link  302 at Tue Oct 19 16:02:10 2021, MaxMem= 16106127360 cpu:               4.5 elap:               0.2
 (Enter /sw/contrib/gaussian/g16/B01/g16/l303.exe)
 DipDrv:  MaxL=1.
 Leave Link  303 at Tue Oct 19 16:02:10 2021, MaxMem= 16106127360 cpu:               0.7 elap:               0.1
 (Enter /sw/contrib/gaussian/g16/B01/g16/l401.exe)
 ExpMin= 2.53D-02 ExpMax= 4.56D+05 ExpMxC= 1.44D+03 IAcc=3 IRadAn=         5 AccDes= 0.00D+00
 Harris functional with IExCor=  205 and IRadAn=       5 diagonalized for initial guess.
 HarFok:  IExCor=  205 AccDes= 0.00D+00 IRadAn=         5 IDoV= 1 UseB2=F ITyADJ=14
 ICtDFT=  3500011 ScaDFX=  1.000000  1.000000  1.000000  1.000000
 FoFCou: FMM=F IPFlag=           0 FMFlag=      100000 FMFlg1=           0
         NFxFlg=           0 DoJE=T BraDBF=F KetDBF=T FulRan=T
         wScrn=  0.000000 ICntrl=       500 IOpCl=  0 I1Cent=   200000004 NGrid=           0
         NMat0=    1 NMatS0=      1 NMatT0=    0 NMatD0=    1 NMtDS0=    0 NMtDT0=    0
 Symmetry not used in FoFCou.
 Harris En= -535.435557061076    
 JPrj=0 DoOrth=F DoCkMO=F.
 Leave Link  401 at Tue Oct 19 16:02:10 2021, MaxMem= 16106127360 cpu:               8.2 elap:               0.4
 (Enter /sw/contrib/gaussian/g16/B01/g16/l502.exe)
 Keep R1 ints in memory in canonical form, NReq=65346027.
 FoFCou: FMM=F IPFlag=           0 FMFlag=           0 FMFlg1=           0
         NFxFlg=           0 DoJE=F BraDBF=F KetDBF=F FulRan=T
         wScrn=  0.000000 ICntrl=       600 IOpCl=  0 I1Cent=           0 NGrid=           0
         NMat0=    1 NMatS0=  10153 NMatT0=    0 NMatD0=    1 NMtDS0=    0 NMtDT0=    0
 Symmetry not used in FoFCou.
 Two-electron integral symmetry not used.
 Closed shell SCF:
 Using DIIS extrapolation, IDIIS=  1040.
 NGot= 16106127360 LenX= 16054521101 LenY= 16054493764
 Requested convergence on RMS density matrix=1.00D-08 within 128 cycles.
 Requested convergence on MAX density matrix=1.00D-06.
 Requested convergence on             energy=1.00D-06.
 No special actions if energy rises.

 Cycle   1  Pass 1  IDiag  1:
 E= -535.495390134969    
 DIIS: error= 3.44D-02 at cycle   1 NSaved=   1.
 NSaved= 1 IEnMin= 1 EnMin= -535.495390134969     IErMin= 1 ErrMin= 3.44D-02
 ErrMax= 3.44D-02  0.00D+00 EMaxC= 1.00D-01 BMatC= 3.41D-01 BMatP= 3.41D-01
 IDIUse=3 WtCom= 6.56D-01 WtEn= 3.44D-01
 Coeff-Com:  0.100D+01
 Coeff-En:   0.100D+01
 Coeff:      0.100D+01
 Gap=     0.348 Goal=   None    Shift=    0.000
 GapD=    0.348 DampG=1.000 DampE=0.500 DampFc=0.5000 IDamp=-1.
 Damping current iteration by 5.00D-01
 RMSDP=2.23D-03 MaxDP=5.71D-02              OVMax= 1.25D-01

 Cycle   2  Pass 1  IDiag  1:
 E= -535.570227370420     Delta-E=       -0.074837235450 Rises=F Damp=T
 DIIS: error= 1.43D-02 at cycle   2 NSaved=   2.
 NSaved= 2 IEnMin= 2 EnMin= -535.570227370420     IErMin= 2 ErrMin= 1.43D-02
 ErrMax= 1.43D-02  0.00D+00 EMaxC= 1.00D-01 BMatC= 6.26D-02 BMatP= 3.41D-01
 IDIUse=3 WtCom= 8.57D-01 WtEn= 1.43D-01
 Coeff-Com: -0.479D+00 0.148D+01
 Coeff-En:   0.000D+00 0.100D+01
 Coeff:     -0.411D+00 0.141D+01
 Gap=     0.295 Goal=   None    Shift=    0.000
 RMSDP=8.79D-04 MaxDP=3.47D-02 DE=-7.48D-02 OVMax= 6.48D-02

 Cycle   3  Pass 1  IDiag  1:
 E= -535.634443439227     Delta-E=       -0.064216068807 Rises=F Damp=F
 DIIS: error= 3.74D-03 at cycle   3 NSaved=   3.
 NSaved= 3 IEnMin= 3 EnMin= -535.634443439227     IErMin= 3 ErrMin= 3.74D-03
 ErrMax= 3.74D-03  0.00D+00 EMaxC= 1.00D-01 BMatC= 2.38D-03 BMatP= 6.26D-02
 IDIUse=3 WtCom= 9.63D-01 WtEn= 3.74D-02
 Coeff-Com: -0.151D+00 0.275D+00 0.876D+00
 Coeff-En:   0.000D+00 0.000D+00 0.100D+01
 Coeff:     -0.145D+00 0.264D+00 0.881D+00
 Gap=     0.301 Goal=   None    Shift=    0.000
 RMSDP=1.57D-04 MaxDP=3.92D-03 DE=-6.42D-02 OVMax= 1.19D-02

 Cycle   4  Pass 1  IDiag  1:
 E= -535.635970402325     Delta-E=       -0.001526963098 Rises=F Damp=F
 DIIS: error= 3.74D-04 at cycle   4 NSaved=   4.
 NSaved= 4 IEnMin= 4 EnMin= -535.635970402325     IErMin= 4 ErrMin= 3.74D-04
 ErrMax= 3.74D-04  0.00D+00 EMaxC= 1.00D-01 BMatC= 4.81D-05 BMatP= 2.38D-03
 IDIUse=3 WtCom= 9.96D-01 WtEn= 3.74D-03
 Coeff-Com: -0.251D-01 0.436D-01 0.183D+00 0.798D+00
 Coeff-En:   0.000D+00 0.000D+00 0.000D+00 0.100D+01
 Coeff:     -0.251D-01 0.435D-01 0.183D+00 0.799D+00
 Gap=     0.296 Goal=   None    Shift=    0.000
 RMSDP=3.79D-05 MaxDP=8.38D-04 DE=-1.53D-03 OVMax= 2.25D-03

 Cycle   5  Pass 1  IDiag  1:
 E= -535.636020446429     Delta-E=       -0.000050044104 Rises=F Damp=F
 DIIS: error= 1.40D-04 at cycle   5 NSaved=   5.
 NSaved= 5 IEnMin= 5 EnMin= -535.636020446429     IErMin= 5 ErrMin= 1.40D-04
 ErrMax= 1.40D-04  0.00D+00 EMaxC= 1.00D-01 BMatC= 3.91D-06 BMatP= 4.81D-05
 IDIUse=3 WtCom= 9.99D-01 WtEn= 1.40D-03
 Coeff-Com:  0.159D-01-0.305D-01-0.933D-01-0.494D-01 0.116D+01
 Coeff-En:   0.000D+00 0.000D+00 0.000D+00 0.000D+00 0.100D+01
 Coeff:      0.159D-01-0.304D-01-0.932D-01-0.493D-01 0.116D+01
 Gap=     0.297 Goal=   None    Shift=    0.000
 RMSDP=2.00D-05 MaxDP=4.45D-04 DE=-5.00D-05 OVMax= 1.17D-03

 Cycle   6  Pass 1  IDiag  1:
 E= -535.636029972172     Delta-E=       -0.000009525742 Rises=F Damp=F
 DIIS: error= 3.68D-05 at cycle   6 NSaved=   6.
 NSaved= 6 IEnMin= 6 EnMin= -535.636029972172     IErMin= 6 ErrMin= 3.68D-05
 ErrMax= 3.68D-05  0.00D+00 EMaxC= 1.00D-01 BMatC= 2.22D-07 BMatP= 3.91D-06
 IDIUse=1 WtCom= 1.00D+00 WtEn= 0.00D+00
 Coeff-Com: -0.189D-02 0.416D-02 0.109D-01-0.156D-01-0.340D+00 0.134D+01
 Coeff:     -0.189D-02 0.416D-02 0.109D-01-0.156D-01-0.340D+00 0.134D+01
 Gap=     0.297 Goal=   None    Shift=    0.000
 RMSDP=6.56D-06 MaxDP=1.65D-04 DE=-9.53D-06 OVMax= 4.53D-04

 Cycle   7  Pass 1  IDiag  1:
 E= -535.636030733221     Delta-E=       -0.000000761050 Rises=F Damp=F
 DIIS: error= 6.20D-06 at cycle   7 NSaved=   7.
 NSaved= 7 IEnMin= 7 EnMin= -535.636030733221     IErMin= 7 ErrMin= 6.20D-06
 ErrMax= 6.20D-06  0.00D+00 EMaxC= 1.00D-01 BMatC= 6.42D-09 BMatP= 2.22D-07
 IDIUse=1 WtCom= 1.00D+00 WtEn= 0.00D+00
 Coeff-Com:  0.478D-04-0.281D-03-0.638D-03 0.444D-02 0.759D-01-0.438D+00
 Coeff-Com:  0.136D+01
 Coeff:      0.478D-04-0.281D-03-0.638D-03 0.444D-02 0.759D-01-0.438D+00
 Coeff:      0.136D+01
 Gap=     0.297 Goal=   None    Shift=    0.000
 RMSDP=1.27D-06 MaxDP=3.17D-05 DE=-7.61D-07 OVMax= 7.92D-05

 Cycle   8  Pass 1  IDiag  1:
 E= -535.636030754814     Delta-E=       -0.000000021593 Rises=F Damp=F
 DIIS: error= 1.33D-06 at cycle   8 NSaved=   8.
 NSaved= 8 IEnMin= 8 EnMin= -535.636030754814     IErMin= 8 ErrMin= 1.33D-06
 ErrMax= 1.33D-06  0.00D+00 EMaxC= 1.00D-01 BMatC= 2.17D-10 BMatP= 6.42D-09
 IDIUse=1 WtCom= 1.00D+00 WtEn= 0.00D+00
 Coeff-Com:  0.458D-04-0.850D-04-0.245D-03-0.585D-04 0.274D-02 0.645D-02
 Coeff-Com: -0.160D+00 0.115D+01
 Coeff:      0.458D-04-0.850D-04-0.245D-03-0.585D-04 0.274D-02 0.645D-02
 Coeff:     -0.160D+00 0.115D+01
 Gap=     0.297 Goal=   None    Shift=    0.000
 RMSDP=2.23D-07 MaxDP=6.92D-06 DE=-2.16D-08 OVMax= 1.17D-05

 Cycle   9  Pass 1  IDiag  1:
 E= -535.636030755421     Delta-E=       -0.000000000607 Rises=F Damp=F
 DIIS: error= 4.14D-07 at cycle   9 NSaved=   9.
 NSaved= 9 IEnMin= 9 EnMin= -535.636030755421     IErMin= 9 ErrMin= 4.14D-07
 ErrMax= 4.14D-07  0.00D+00 EMaxC= 1.00D-01 BMatC= 1.79D-11 BMatP= 2.17D-10
 IDIUse=1 WtCom= 1.00D+00 WtEn= 0.00D+00
 Coeff-Com: -0.854D-05 0.325D-04 0.778D-04-0.342D-03-0.678D-02 0.374D-01
 Coeff-Com: -0.105D+00-0.843D-01 0.116D+01
 Coeff:     -0.854D-05 0.325D-04 0.778D-04-0.342D-03-0.678D-02 0.374D-01
 Coeff:     -0.105D+00-0.843D-01 0.116D+01
 Gap=     0.297 Goal=   None    Shift=    0.000
 RMSDP=6.21D-08 MaxDP=1.40D-06 DE=-6.07D-10 OVMax= 3.49D-06

 Cycle  10  Pass 1  IDiag  1:
 E= -535.636030755475     Delta-E=       -0.000000000054 Rises=F Damp=F
 DIIS: error= 9.59D-08 at cycle  10 NSaved=  10.
 NSaved=10 IEnMin=10 EnMin= -535.636030755475     IErMin=10 ErrMin= 9.59D-08
 ErrMax= 9.59D-08  0.00D+00 EMaxC= 1.00D-01 BMatC= 8.65D-13 BMatP= 1.79D-11
 IDIUse=1 WtCom= 1.00D+00 WtEn= 0.00D+00
 Coeff-Com: -0.558D-06-0.804D-06-0.183D-05 0.395D-04 0.629D-03-0.447D-02
 Coeff-Com:  0.193D-01-0.439D-01-0.120D+00 0.115D+01
 Coeff:     -0.558D-06-0.804D-06-0.183D-05 0.395D-04 0.629D-03-0.447D-02
 Coeff:      0.193D-01-0.439D-01-0.120D+00 0.115D+01
 Gap=     0.297 Goal=   None    Shift=    0.000
 RMSDP=1.35D-08 MaxDP=2.61D-07 DE=-5.38D-11 OVMax= 6.83D-07

 Cycle  11  Pass 1  IDiag  1:
 E= -535.636030755476     Delta-E=       -0.000000000001 Rises=F Damp=F
 DIIS: error= 2.97D-08 at cycle  11 NSaved=  11.
 NSaved=11 IEnMin=11 EnMin= -535.636030755476     IErMin=11 ErrMin= 2.97D-08
 ErrMax= 2.97D-08  0.00D+00 EMaxC= 1.00D-01 BMatC= 6.83D-14 BMatP= 8.65D-13
 IDIUse=1 WtCom= 1.00D+00 WtEn= 0.00D+00
 Coeff-Com:  0.964D-06-0.264D-05-0.588D-05 0.181D-04 0.375D-03-0.188D-02
 Coeff-Com:  0.446D-02 0.100D-01-0.707D-01-0.125D+00 0.118D+01
 Coeff:      0.964D-06-0.264D-05-0.588D-05 0.181D-04 0.375D-03-0.188D-02
 Coeff:      0.446D-02 0.100D-01-0.707D-01-0.125D+00 0.118D+01
 Gap=     0.297 Goal=   None    Shift=    0.000
 RMSDP=4.63D-09 MaxDP=1.31D-07 DE=-1.14D-12 OVMax= 2.41D-07

 SCF Done:  E(RHF) =  -535.636030755     A.U. after   11 cycles
            NFock= 11  Conv=0.46D-08     -V/T= 2.0002
 KE= 5.355551074652D+02 PE=-1.360207330687D+03 EE= 2.503624690344D+02
 Leave Link  502 at Tue Oct 19 16:02:12 2021, MaxMem= 16106127360 cpu:              19.6 elap:               1.5
 (Enter /sw/contrib/gaussian/g16/B01/g16/l801.exe)
 ExpMin= 2.53D-02 ExpMax= 4.56D+05 ExpMxC= 1.44D+03 IAcc=3 IRadAn=         5 AccDes= 0.00D+00
 HarFok:  IExCor=  205 AccDes= 0.00D+00 IRadAn=         5 IDoV=-2 UseB2=F ITyADJ=14
 ICtDFT= 12500011 ScaDFX=  1.000000  1.000000  1.000000  1.000000
 Largest valence mixing into a core orbital is  4.54D-04
 Largest core mixing into a valence orbital is  1.84D-04
 Range of M.O.s used for correlation:     7   142
 NBasis=   142 NAE=    14 NBE=    14 NFC=     6 NFV=     0
 NROrb=    136 NOA=     8 NOB=     8 NVA=   128 NVB=   128

 **** Warning!!: The largest alpha MO coefficient is  0.14681921D+02

 Leave Link  801 at Tue Oct 19 16:02:12 2021, MaxMem= 16106127360 cpu:               2.0 elap:               0.1
 (Enter /sw/contrib/gaussian/g16/B01/g16/l906.exe)
 Frozen-core derivative calculation, NFC=   6 NFV=   0.
 FulOut=F Deriv=T AODrv=F NAtomX=     4
   MMem=         252  MDisk=           8 MDiskD=           8
  W3Min=      326032 MinDsk=      657538 NBas6D=         164
 NBas2D=       13905    NTT=       13530    LW2=     3500000
    MDV= 16105868050 MDiskM=      490971 NBas2p=       13814
 Fully in-core method, ICMem=   205321089.
 IMap=   1   2   3   4   5   6   7   8   9  10  11  12  13  14
 JobTyp=1 Pass  1 fully in-core, NPsUse= 28.
 Compute canonical integrals.
 FoFCou: FMM=F IPFlag=           0 FMFlag=           0 FMFlg1=           0
         NFxFlg=           0 DoJE=F BraDBF=F KetDBF=F FulRan=T
         wScrn=  0.000000 ICntrl=       600 IOpCl=  1 I1Cent=           0 NGrid=           0
         NMat0=    1 NMatS0=  13905 NMatT0=    0 NMatD0=    1 NMtDS0=    0 NMtDT0=    0
 Symmetry not used in FoFCou.
 Spin components of T(2) and E(2):
     alpha-alpha T2 =       0.1952796690D-01 E2=     -0.5968777376D-01
     alpha-beta  T2 =       0.1074184088D+00 E2=     -0.3618989136D+00
     beta-beta   T2 =       0.1952796690D-01 E2=     -0.5968777376D-01
 The integrals were generated   1 times.
 ANorm=    0.1070735421D+01
 E2 =    -0.4812744611D+00 EUMP2 =    -0.53611730521661D+03
 Leave Link  906 at Tue Oct 19 16:02:14 2021, MaxMem= 16106127360 cpu:              53.0 elap:               2.0
 (Enter /sw/contrib/gaussian/g16/B01/g16/l1002.exe)
 Minotr:  Closed shell wavefunction.
          Computing MP2/KS-MP2 derivatives.
          Using Z-Vector for PSCF gradient.
          Skipping F1 and S1 gradient terms here.
          Frozen-core window.
          Direct CPHF calculation.
          Differentiating once with respect to electric field.
                with respect to dipole field.
          Electric field/nuclear overlap derivatives assumed to be zero.
          Requested convergence is 1.0D-10 RMS, and 1.0D-09 maximum.
          NewPWx=F KeepS1=T KeepF1=T KeepIn=T MapXYZ=F SortEE=F KeepMc=T.
 Keep R1 ints in memory in canonical form, NReq=65348896.
 FoFCou: FMM=F IPFlag=           0 FMFlag=           0 FMFlg1=           0
         NFxFlg=           0 DoJE=F BraDBF=F KetDBF=F FulRan=T
         wScrn=  0.000000 ICntrl=       600 IOpCl=  0 I1Cent=           0 NGrid=           0
         NMat0=    1 NMatS0=  10153 NMatT0=    0 NMatD0=    1 NMtDS0=    0 NMtDT0=    0
 Symmetry not used in FoFCou.
 Two-electron integral symmetry not used.
          MDV=   16106127360 using IRadAn=       5.
          Solving linear equations separately, MaxMat=       0.
          There are     1 degrees of freedom in the 1st order CPHF.  IDoFFX=0 NUNeed=     1.
 LinEq1:  Iter=  0 NonCon=     1 RMS=3.02D-03 Max=3.06D-02 NDo=     1
 AX will form     1 AO Fock derivatives at one time.
 LinEq1:  Iter=  1 NonCon=     1 RMS=3.90D-04 Max=3.98D-03 NDo=     1
 LinEq1:  Iter=  2 NonCon=     1 RMS=1.13D-04 Max=9.30D-04 NDo=     1
 LinEq1:  Iter=  3 NonCon=     1 RMS=4.07D-05 Max=3.26D-04 NDo=     1
 LinEq1:  Iter=  4 NonCon=     1 RMS=1.12D-05 Max=1.03D-04 NDo=     1
 LinEq1:  Iter=  5 NonCon=     1 RMS=3.32D-06 Max=2.77D-05 NDo=     1
 LinEq1:  Iter=  6 NonCon=     1 RMS=9.03D-07 Max=8.19D-06 NDo=     1
 LinEq1:  Iter=  7 NonCon=     1 RMS=2.04D-07 Max=1.47D-06 NDo=     1
 LinEq1:  Iter=  8 NonCon=     1 RMS=4.68D-08 Max=4.35D-07 NDo=     1
 LinEq1:  Iter=  9 NonCon=     1 RMS=1.02D-08 Max=8.45D-08 NDo=     1
 LinEq1:  Iter= 10 NonCon=     1 RMS=1.69D-09 Max=1.32D-08 NDo=     1
 LinEq1:  Iter= 11 NonCon=     1 RMS=2.79D-10 Max=2.40D-09 NDo=     1
 LinEq1:  Iter= 12 NonCon=     0 RMS=6.83D-11 Max=6.61D-10 NDo=     1
 Linear equations converged to 1.000D-10 1.000D-09 after    12 iterations.
 End of Minotr F.D. properties file   721 does not exist.
 End of Minotr F.D. properties file   722 does not exist.
 End of Minotr F.D. properties file   788 does not exist.
 Leave Link 1002 at Tue Oct 19 16:02:16 2021, MaxMem= 16106127360 cpu:              30.3 elap:               2.2
 (Enter /sw/contrib/gaussian/g16/B01/g16/l601.exe)
 Copying SCF densities to generalized density rwf, IOpCl= 0 IROHF=0.

 **********************************************************************

            Population analysis using the MP2 Density.

 **********************************************************************

 Alpha  occ. eigenvalues -- -104.51404 -20.39583 -10.23824  -7.70431  -7.70427
 Alpha  occ. eigenvalues --   -7.70423  -1.18053  -0.74543  -0.52814  -0.42622
 Alpha  occ. eigenvalues --   -0.34012  -0.16275  -0.16085  -0.15870
 Alpha virt. eigenvalues --    0.13805   0.17010   0.25475   0.26948   0.28843
 Alpha virt. eigenvalues --    0.29439   0.29614   0.31225   0.33993   0.37631
 Alpha virt. eigenvalues --    0.39670   0.42313   0.43838   0.47846   0.51526
 Alpha virt. eigenvalues --    0.56564   0.58157   0.59172   0.61611   0.64026
 Alpha virt. eigenvalues --    0.65581   0.67676   0.69174   0.75863   0.83362
 Alpha virt. eigenvalues --    0.86570   0.87814   0.89513   0.90995   0.91704
 Alpha virt. eigenvalues --    0.99979   1.02242   1.06095   1.07277   1.08876
 Alpha virt. eigenvalues --    1.09754   1.11740   1.15746   1.17061   1.19417
 Alpha virt. eigenvalues --    1.21729   1.22656   1.23011   1.23352   1.25630
 Alpha virt. eigenvalues --    1.28360   1.30534   1.31126   1.37600   1.41802
 Alpha virt. eigenvalues --    1.42967   1.46320   1.46841   1.49915   1.54840
 Alpha virt. eigenvalues --    1.57622   1.66975   1.67584   1.70853   1.80376
 Alpha virt. eigenvalues --    1.81983   1.91875   2.04754   2.07328   2.17414
 Alpha virt. eigenvalues --    2.33665   2.46962   2.51311   2.57830   2.61827
 Alpha virt. eigenvalues --    2.63437   2.68658   2.70574   2.82674   2.82958
 Alpha virt. eigenvalues --    2.84418   2.86089   2.88029   2.92070   2.94808
 Alpha virt. eigenvalues --    2.97093   2.98748   2.99815   3.00338   3.10790
 Alpha virt. eigenvalues --    3.19446   3.36207   3.36273   3.39413   3.39948
 Alpha virt. eigenvalues --    3.47565   3.49002   3.58358   3.89897   3.93123
 Alpha virt. eigenvalues --    4.26985   4.30087   4.37345   4.42858   4.47704
 Alpha virt. eigenvalues --    4.54335   4.59275   4.63026   4.73075   4.93711
 Alpha virt. eigenvalues --    5.05644   5.31414   5.36287   5.43147   5.47198
 Alpha virt. eigenvalues --    5.71536   5.79116   5.96059   6.42579   6.68697
 Alpha virt. eigenvalues --    6.91384   7.17668   7.29974   7.38411   7.45944
 Alpha virt. eigenvalues --    7.51748   7.55744   7.59164   7.74636   7.98766
 Alpha virt. eigenvalues --    8.14319   9.00081  15.89319
          Condensed to atoms (all electrons):
               1          2          3          4
     1  O    8.131836   0.204942  -0.068603   0.181112
     2  H    0.204942   0.588696   0.003471   0.021291
     3  Cl  -0.068603   0.003471  17.991958   0.037230
     4  H    0.181112   0.021291   0.037230   0.528626
 Mulliken charges:
               1
     1  O   -0.449286
     2  H    0.181600
     3  Cl  -0.964056
     4  H    0.231742
 Sum of Mulliken charges =  -1.00000
 Mulliken charges with hydrogens summed into heavy atoms:
               1
     1  O   -0.035944
     3  Cl  -0.964056
 Electronic spatial extent (au):  <R**2>=            672.4312
 Charge=             -1.0000 electrons
 Dipole moment (field-independent basis, Debye):
    X=              3.9527    Y=             12.7051    Z=              0.6935  Tot=             13.3238
 Quadrupole moment (field-independent basis, Debye-Ang):
   XX=            -24.5894   YY=            -67.3084   ZZ=            -24.1615
   XY=             -8.3423   XZ=             -0.2420   YZ=             -0.4750
 Traceless Quadrupole moment (field-independent basis, Debye-Ang):
   XX=             14.0970   YY=            -28.6220   ZZ=             14.5249
   XY=             -8.3423   XZ=             -0.2420   YZ=             -0.4750
 Octapole moment (field-independent basis, Debye-Ang**2):
  XXX=             33.6622  YYY=            288.2579  ZZZ=             -1.5852  XYY=             36.3982
  XXY=             58.1307  XXZ=             -0.8368  XZZ=             10.1016  YZZ=             52.1911
  YYZ=             -2.3775  XYZ=             -0.3479
 Hexadecapole moment (field-independent basis, Debye-Ang**3):
 XXXX=            -79.4060 YYYY=          -1389.5372 ZZZZ=            -39.4862 XXXY=           -101.7480
 XXXZ=              0.2673 YYYX=           -177.8109 YYYZ=              8.2609 ZZZX=              0.1523
 ZZZY=              1.7143 XXYY=           -195.6671 XXZZ=            -20.1076 YYZZ=           -172.3492
 XXYZ=              0.9557 YYXZ=              1.3078 ZZXY=            -32.7246
 N-N= 3.865372343141D+01 E-N=-1.360141177894D+03  KE= 5.360373274136D+02
 No NMR shielding tensors so no spin-rotation constants.
 Leave Link  601 at Tue Oct 19 16:02:16 2021, MaxMem= 16106127360 cpu:               4.1 elap:               0.2
 (Enter /sw/contrib/gaussian/g16/B01/g16/l607.exe)
 ******************************Gaussian NBO Version 3.1******************************
             N A T U R A L   A T O M I C   O R B I T A L   A N D
          N A T U R A L   B O N D   O R B I T A L   A N A L Y S I S
 ******************************Gaussian NBO Version 3.1******************************
       /RESON  / : Allow strongly delocalized NBO set

 Analyzing the MP2 density

 Job title: title                                                           

 Storage needed:     61222 in NPA,     81148 in NBO (********** available)
 GSVD:  LWork=       -2300 too small for GESVD, short by       46292 words or       46292 for optimal perf.


 NATURAL POPULATIONS:  Natural atomic orbital occupancies 
                                                          
   NAO  Atom  No  lang   Type(AO)    Occupancy
 --------------------------------------------
     1    O    1  S      Cor( 1S)     1.99968
     2    O    1  S      Val( 2S)     1.74762
     3    O    1  S      Ryd( 3S)     0.00639
     4    O    1  S      Ryd( 4S)     0.00072
     5    O    1  S      Ryd( 5S)     0.00019
     6    O    1  px     Val( 2p)     1.52627
     7    O    1  px     Ryd( 3p)     0.00986
     8    O    1  px     Ryd( 4p)     0.00059
     9    O    1  px     Ryd( 5p)     0.00010
    10    O    1  py     Val( 2p)     1.79329
    11    O    1  py     Ryd( 3p)     0.01655
    12    O    1  py     Ryd( 4p)     0.00061
    13    O    1  py     Ryd( 5p)     0.00014
    14    O    1  pz     Val( 2p)     1.76939
    15    O    1  pz     Ryd( 3p)     0.01647
    16    O    1  pz     Ryd( 4p)     0.00065
    17    O    1  pz     Ryd( 5p)     0.00010
    18    O    1  dxy    Ryd( 3d)     0.00926
    19    O    1  dxy    Ryd( 4d)     0.00074
    20    O    1  dxy    Ryd( 5d)     0.00015
    21    O    1  dxz    Ryd( 3d)     0.00983
    22    O    1  dxz    Ryd( 4d)     0.00072
    23    O    1  dxz    Ryd( 5d)     0.00012
    24    O    1  dyz    Ryd( 3d)     0.01057
    25    O    1  dyz    Ryd( 4d)     0.00044
    26    O    1  dyz    Ryd( 5d)     0.00012
    27    O    1  dx2y2  Ryd( 3d)     0.00973
    28    O    1  dx2y2  Ryd( 4d)     0.00036
    29    O    1  dx2y2  Ryd( 5d)     0.00014
    30    O    1  dz2    Ryd( 3d)     0.00915
    31    O    1  dz2    Ryd( 4d)     0.00045
    32    O    1  dz2    Ryd( 5d)     0.00013
    33    O    1  f(0)   Ryd( 4f)     0.00057
    34    O    1  f(0)   Ryd( 5f)     0.00010
    35    O    1  f(C1)  Ryd( 4f)     0.00044
    36    O    1  f(C1)  Ryd( 5f)     0.00009
    37    O    1  f(S1)  Ryd( 4f)     0.00062
    38    O    1  f(S1)  Ryd( 5f)     0.00011
    39    O    1  f(C2)  Ryd( 4f)     0.00067
    40    O    1  f(C2)  Ryd( 5f)     0.00014
    41    O    1  f(S2)  Ryd( 4f)     0.00052
    42    O    1  f(S2)  Ryd( 5f)     0.00009
    43    O    1  f(C3)  Ryd( 4f)     0.00045
    44    O    1  f(C3)  Ryd( 5f)     0.00010
    45    O    1  f(S3)  Ryd( 4f)     0.00065
    46    O    1  f(S3)  Ryd( 5f)     0.00015

    47    H    2  S      Val( 1S)     0.54967
    48    H    2  S      Ryd( 2S)     0.00173
    49    H    2  S      Ryd( 3S)     0.00039
    50    H    2  S      Ryd( 4S)     0.00013
    51    H    2  px     Ryd( 3p)     0.00024
    52    H    2  px     Ryd( 2p)     0.00068
    53    H    2  px     Ryd( 4p)     0.00018
    54    H    2  py     Ryd( 2p)     0.00097
    55    H    2  py     Ryd( 3p)     0.00016
    56    H    2  py     Ryd( 4p)     0.00006
    57    H    2  pz     Ryd( 2p)     0.00093
    58    H    2  pz     Ryd( 3p)     0.00015
    59    H    2  pz     Ryd( 4p)     0.00006
    60    H    2  dxy    Ryd( 3d)     0.00025
    61    H    2  dxy    Ryd( 4d)     0.00007
    62    H    2  dxz    Ryd( 3d)     0.00022
    63    H    2  dxz    Ryd( 4d)     0.00007
    64    H    2  dyz    Ryd( 3d)     0.00010
    65    H    2  dyz    Ryd( 4d)     0.00005
    66    H    2  dx2y2  Ryd( 3d)     0.00016
    67    H    2  dx2y2  Ryd( 4d)     0.00006
    68    H    2  dz2    Ryd( 3d)     0.00011
    69    H    2  dz2    Ryd( 4d)     0.00006

    70   Cl    3  S      Cor( 1S)     2.00001
    71   Cl    3  S      Cor( 2S)     2.00000
    72   Cl    3  S      Val( 3S)     1.98058
    73   Cl    3  S      Ryd( 4S)     0.00419
    74   Cl    3  S      Ryd( 5S)     0.00044
    75   Cl    3  S      Ryd( 6S)     0.00008
    76   Cl    3  px     Cor( 2p)     2.00003
    77   Cl    3  px     Val( 3p)     1.95190
    78   Cl    3  px     Ryd( 4p)     0.01407
    79   Cl    3  px     Ryd( 5p)     0.00059
    80   Cl    3  px     Ryd( 6p)     0.00001
    81   Cl    3  py     Cor( 2p)     2.00002
    82   Cl    3  py     Val( 3p)     1.94520
    83   Cl    3  py     Ryd( 4p)     0.01310
    84   Cl    3  py     Ryd( 5p)     0.00059
    85   Cl    3  py     Ryd( 6p)     0.00002
    86   Cl    3  pz     Cor( 2p)     2.00002
    87   Cl    3  pz     Val( 3p)     1.94995
    88   Cl    3  pz     Ryd( 4p)     0.01397
    89   Cl    3  pz     Ryd( 5p)     0.00059
    90   Cl    3  pz     Ryd( 6p)     0.00002
    91   Cl    3  dxy    Ryd( 3d)     0.01843
    92   Cl    3  dxy    Ryd( 4d)     0.00091
    93   Cl    3  dxy    Ryd( 5d)     0.00012
    94   Cl    3  dxz    Ryd( 3d)     0.01838
    95   Cl    3  dxz    Ryd( 4d)     0.00101
    96   Cl    3  dxz    Ryd( 5d)     0.00011
    97   Cl    3  dyz    Ryd( 3d)     0.01857
    98   Cl    3  dyz    Ryd( 4d)     0.00094
    99   Cl    3  dyz    Ryd( 5d)     0.00014
   100   Cl    3  dx2y2  Ryd( 3d)     0.01830
   101   Cl    3  dx2y2  Ryd( 4d)     0.00097
   102   Cl    3  dx2y2  Ryd( 5d)     0.00014
   103   Cl    3  dz2    Ryd( 3d)     0.01834
   104   Cl    3  dz2    Ryd( 4d)     0.00099
   105   Cl    3  dz2    Ryd( 5d)     0.00012
   106   Cl    3  f(0)   Ryd( 4f)     0.00130
   107   Cl    3  f(0)   Ryd( 5f)     0.00015
   108   Cl    3  f(C1)  Ryd( 4f)     0.00130
   109   Cl    3  f(C1)  Ryd( 5f)     0.00014
   110   Cl    3  f(S1)  Ryd( 4f)     0.00129
   111   Cl    3  f(S1)  Ryd( 5f)     0.00015
   112   Cl    3  f(C2)  Ryd( 4f)     0.00130
   113   Cl    3  f(C2)  Ryd( 5f)     0.00016
   114   Cl    3  f(S2)  Ryd( 4f)     0.00130
   115   Cl    3  f(S2)  Ryd( 5f)     0.00015
   116   Cl    3  f(C3)  Ryd( 4f)     0.00129
   117   Cl    3  f(C3)  Ryd( 5f)     0.00016
   118   Cl    3  f(S3)  Ryd( 4f)     0.00129
   119   Cl    3  f(S3)  Ryd( 5f)     0.00016

   120    H    4  S      Val( 1S)     0.49765
   121    H    4  S      Ryd( 2S)     0.00374
   122    H    4  S      Ryd( 3S)     0.00041
   123    H    4  S      Ryd( 4S)     0.00008
   124    H    4  px     Ryd( 2p)     0.00300
   125    H    4  px     Ryd( 3p)     0.00034
   126    H    4  px     Ryd( 4p)     0.00009
   127    H    4  py     Ryd( 2p)     0.00467
   128    H    4  py     Ryd( 3p)     0.00043
   129    H    4  py     Ryd( 4p)     0.00017
   130    H    4  pz     Ryd( 2p)     0.00281
   131    H    4  pz     Ryd( 3p)     0.00045
   132    H    4  pz     Ryd( 4p)     0.00016
   133    H    4  dxy    Ryd( 3d)     0.00017
   134    H    4  dxy    Ryd( 4d)     0.00008
   135    H    4  dxz    Ryd( 3d)     0.00010
   136    H    4  dxz    Ryd( 4d)     0.00007
   137    H    4  dyz    Ryd( 3d)     0.00026
   138    H    4  dyz    Ryd( 4d)     0.00007
   139    H    4  dx2y2  Ryd( 3d)     0.00027
   140    H    4  dx2y2  Ryd( 4d)     0.00009
   141    H    4  dz2    Ryd( 3d)     0.00011
   142    H    4  dz2    Ryd( 4d)     0.00008


 Summary of Natural Population Analysis:                  
                                                          
                                       Natural Population 
                Natural  -----------------------------------------------
    Atom  No    Charge         Core      Valence    Rydberg      Total
 -----------------------------------------------------------------------
      O    1   -0.94524      1.99968     6.83657    0.10899     8.94524
      H    2    0.44351      0.00000     0.54967    0.00682     0.55649
     Cl    3   -0.98299     10.00008     7.82763    0.15528    17.98299
      H    4    0.48471      0.00000     0.49765    0.01764     0.51529
 =======================================================================
   * Total *   -1.00000     11.99976    15.71152    0.28873    28.00000

                                 Natural Population      
 --------------------------------------------------------
   Core                      11.99976 ( 99.9980% of  12)
   Valence                   15.71152 ( 98.1970% of  16)
   Natural Minimal Basis     27.71127 ( 98.9688% of  28)
   Natural Rydberg Basis      0.28873 (  1.0312% of  28)
 --------------------------------------------------------

    Atom  No          Natural Electron Configuration
 ----------------------------------------------------------------------------
      O    1      [core]2S( 1.75)2p( 5.09)3S( 0.01)3p( 0.04)3d( 0.05)
      H    2            1S( 0.55)
     Cl    3      [core]3S( 1.98)3p( 5.85)3d( 0.09)4p( 0.04)4f( 0.01)
      H    4            1S( 0.50)2p( 0.01)


 NATURAL BOND ORBITAL ANALYSIS:
 Warning:  a bond orbital has occupanc of -0.00001

                       Occupancies       Lewis Structure    Low   High
           Occ.    -------------------  -----------------   occ   occ
  Cycle   Thresh.   Lewis   Non-Lewis     CR  BD  3C  LP    (L)   (NL)   Dev
 =============================================================================
   1(1)    1.90    27.69322   0.30678      6   2   0   6     0      0    0.01
 -----------------------------------------------------------------------------

 Structure accepted: No low occupancy Lewis orbitals

 --------------------------------------------------------
   Core                     11.99976 ( 99.998% of  12)
   Valence Lewis            15.69346 ( 98.084% of  16)
  ==================       ============================
   Total Lewis              27.69322 ( 98.904% of  28)
  -----------------------------------------------------
   Valence non-Lewis         0.04984 (  0.178% of  28)
   Rydberg non-Lewis         0.25694 (  0.918% of  28)
  ==================       ============================
   Total non-Lewis           0.30678 (  1.096% of  28)
 --------------------------------------------------------


       (Occupancy)   Bond orbital/ Coefficients/ Hybrids
 ---------------------------------------------------------------------------------
     1. (1.96630) BD ( 1) O   1 - H   2  
                ( 72.81%)   0.8533* O   1 s( 20.60%)p 3.83( 78.92%)d 0.02(  0.46%)
                                                  f 0.00(  0.01%)
                                            0.0002  0.4538 -0.0051  0.0041 -0.0049
                                            0.8853 -0.0312  0.0081 -0.0003  0.0524
                                           -0.0105  0.0008 -0.0022 -0.0370  0.0130
                                           -0.0011  0.0016 -0.0104 -0.0006  0.0024
                                            0.0191 -0.0030 -0.0001 -0.0058 -0.0000
                                            0.0016  0.0554 -0.0032  0.0025 -0.0315
                                            0.0017 -0.0013 -0.0000  0.0003 -0.0045
                                           -0.0019 -0.0005  0.0002 -0.0004 -0.0001
                                           -0.0062  0.0018  0.0070  0.0018  0.0009
                                           -0.0001
                ( 27.19%)   0.5214* H   2 s( 99.89%)p 0.00(  0.10%)d 0.00(  0.01%)
                                            0.9995  0.0036 -0.0001  0.0002 -0.0013
                                            0.0303 -0.0042  0.0038  0.0015 -0.0006
                                            0.0005  0.0020 -0.0002  0.0032 -0.0017
                                            0.0011  0.0011 -0.0026 -0.0008  0.0081
                                           -0.0011 -0.0034  0.0007
     2. (1.96720) BD ( 1) O   1 - H   4  
                ( 75.76%)   0.8704* O   1 s( 22.97%)p 3.33( 76.54%)d 0.02(  0.47%)
                                                  f 0.00(  0.02%)
                                           -0.0003 -0.4793 -0.0010 -0.0014  0.0012
                                            0.1826 -0.0184 -0.0005  0.0023  0.5821
                                           -0.0144  0.0058 -0.0008 -0.6264  0.0120
                                           -0.0075  0.0054  0.0095 -0.0045  0.0021
                                           -0.0087  0.0043 -0.0020  0.0597 -0.0024
                                           -0.0021  0.0212 -0.0011  0.0006 -0.0218
                                            0.0026 -0.0015  0.0067 -0.0015  0.0005
                                            0.0008  0.0073  0.0011  0.0029  0.0028
                                           -0.0027 -0.0008 -0.0004 -0.0010  0.0038
                                           -0.0030
                ( 24.24%)   0.4924* H   4 s( 99.84%)p 0.00(  0.15%)d 0.00(  0.01%)
                                           -0.9991 -0.0095 -0.0004 -0.0001 -0.0201
                                            0.0014  0.0009 -0.0077 -0.0153 -0.0048
                                           -0.0206  0.0178  0.0081  0.0001  0.0018
                                            0.0009 -0.0020  0.0025  0.0007 -0.0078
                                           -0.0003  0.0022  0.0007
     3. (1.99968) CR ( 1) O   1           s(100.00%)
                                            1.0000 -0.0004  0.0000 -0.0000  0.0000
                                           -0.0001  0.0000 -0.0000  0.0000  0.0001
                                           -0.0000  0.0000  0.0000 -0.0000  0.0000
                                           -0.0000  0.0000  0.0000 -0.0000  0.0000
                                            0.0000  0.0000 -0.0000  0.0000 -0.0000
                                           -0.0000 -0.0000  0.0000  0.0000  0.0000
                                            0.0000 -0.0000  0.0000 -0.0000  0.0000
                                            0.0000  0.0000  0.0000  0.0000  0.0000
                                            0.0000 -0.0000 -0.0000 -0.0000  0.0000
                                           -0.0000
     4. (2.00001) CR ( 1)Cl   3           s(100.00%)
                                            1.0000 -0.0000  0.0000 -0.0000 -0.0000
                                           -0.0000 -0.0000 -0.0000 -0.0000 -0.0000
                                            0.0000 -0.0000 -0.0000 -0.0000  0.0000
                                            0.0000 -0.0000 -0.0000 -0.0000  0.0000
                                           -0.0000 -0.0000 -0.0000 -0.0000 -0.0000
                                           -0.0000 -0.0000 -0.0000 -0.0000 -0.0000
                                            0.0000  0.0000 -0.0000 -0.0000 -0.0000
                                           -0.0000  0.0000  0.0000  0.0000  0.0000
                                           -0.0000 -0.0000  0.0000  0.0000 -0.0000
                                           -0.0000  0.0000  0.0000  0.0000  0.0000
     5. (2.00000) CR ( 2)Cl   3           s(100.00%)
                                           -0.0000  1.0000 -0.0000 -0.0000 -0.0000
                                           -0.0000 -0.0000 -0.0000 -0.0000 -0.0000
                                            0.0000 -0.0000 -0.0000 -0.0000  0.0000
                                            0.0000 -0.0000 -0.0000 -0.0000  0.0000
                                           -0.0000 -0.0000 -0.0000 -0.0000 -0.0000
                                           -0.0000 -0.0000 -0.0000 -0.0000 -0.0000
                                            0.0000  0.0000 -0.0000  0.0000 -0.0000
                                           -0.0000  0.0000  0.0000  0.0000  0.0000
                                           -0.0000  0.0000  0.0000  0.0000 -0.0000
                                           -0.0000  0.0000  0.0000  0.0000  0.0000
     6. (2.00003) CR ( 3)Cl   3           s(  0.00%)p 1.00(100.00%)
                                           -0.0000 -0.0000 -0.0000 -0.0000  0.0000
                                           -0.0000  1.0000  0.0000 -0.0000  0.0000
                                           -0.0000 -0.0000 -0.0000 -0.0000  0.0000
                                           -0.0000 -0.0000 -0.0000 -0.0000  0.0000
                                           -0.0000  0.0000  0.0000 -0.0000  0.0000
                                            0.0000  0.0000 -0.0000 -0.0000 -0.0000
                                            0.0000  0.0000  0.0000 -0.0000 -0.0000
                                           -0.0000  0.0000  0.0000 -0.0000 -0.0000
                                           -0.0000 -0.0000  0.0000  0.0000  0.0000
                                            0.0000 -0.0000  0.0000  0.0000  0.0000
     7. (2.00002) CR ( 4)Cl   3           s(  0.00%)p 1.00(100.00%)
                                           -0.0000 -0.0000 -0.0000 -0.0000 -0.0000
                                            0.0000 -0.0000 -0.0000 -0.0000 -0.0000
                                            0.0000  1.0000 -0.0000 -0.0000  0.0000
                                            0.0000 -0.0000 -0.0000 -0.0000  0.0000
                                           -0.0000 -0.0000 -0.0000 -0.0000 -0.0000
                                           -0.0000 -0.0000 -0.0000 -0.0000 -0.0000
                                            0.0000  0.0000 -0.0000 -0.0000 -0.0000
                                           -0.0000  0.0000  0.0000 -0.0000 -0.0000
                                           -0.0000 -0.0000  0.0000  0.0000 -0.0000
                                           -0.0000  0.0000  0.0000  0.0000  0.0000
     8. (2.00002) CR ( 5)Cl   3           s(  0.00%)p 1.00(100.00%)
                                           -0.0000 -0.0000 -0.0000 -0.0000  0.0000
                                           -0.0000 -0.0000 -0.0000 -0.0000 -0.0000
                                            0.0000 -0.0000 -0.0000  0.0000  0.0000
                                           -0.0000  1.0000  0.0000 -0.0000  0.0000
                                           -0.0000 -0.0000 -0.0000 -0.0000 -0.0000
                                           -0.0000 -0.0000 -0.0000 -0.0000 -0.0000
                                            0.0000  0.0000 -0.0000  0.0000  0.0000
                                            0.0000  0.0000  0.0000  0.0000  0.0000
                                            0.0000  0.0000  0.0000  0.0000 -0.0000
                                           -0.0000  0.0000  0.0000  0.0000  0.0000
     9. (1.97085) LP ( 1) O   1           s( 56.25%)p 0.78( 43.62%)d 0.00(  0.13%)
                                                  f 0.00(  0.00%)
                                            0.0003  0.7500  0.0025 -0.0020  0.0026
                                           -0.4198 -0.0024  0.0036 -0.0013  0.3696
                                            0.0090 -0.0038  0.0011 -0.3510 -0.0070
                                            0.0029  0.0011  0.0204 -0.0016 -0.0024
                                           -0.0252  0.0039  0.0007  0.0137 -0.0021
                                            0.0002 -0.0028  0.0014 -0.0031 -0.0013
                                            0.0003  0.0008  0.0034 -0.0015 -0.0001
                                            0.0001  0.0017 -0.0004 -0.0011  0.0011
                                            0.0027 -0.0004 -0.0007  0.0004  0.0035
                                           -0.0019
    10. (1.96088) LP ( 2) O   1           s(  0.12%)p99.99( 99.54%)d 2.54(  0.31%)
                                                  f 0.22(  0.03%)
                                            0.0000  0.0297 -0.0158 -0.0099 -0.0001
                                           -0.0016 -0.0008  0.0009 -0.0020 -0.7186
                                           -0.0215  0.0046 -0.0014 -0.6913 -0.0244
                                            0.0059 -0.0021 -0.0310  0.0097 -0.0048
                                           -0.0301  0.0089 -0.0045 -0.0099  0.0030
                                           -0.0026 -0.0107 -0.0010  0.0032 -0.0278
                                            0.0005  0.0045 -0.0001 -0.0011  0.0013
                                           -0.0005  0.0073 -0.0023 -0.0107  0.0039
                                           -0.0002  0.0003  0.0003  0.0007 -0.0077
                                            0.0041
    11. (1.98066) LP ( 1)Cl   3           s( 99.83%)p 0.00(  0.17%)d 0.00(  0.00%)
                                                  f 0.00(  0.00%)
                                           -0.0000 -0.0000  0.9992 -0.0001 -0.0000
                                           -0.0000  0.0000 -0.0066  0.0005 -0.0000
                                            0.0001  0.0000 -0.0382  0.0008 -0.0002
                                            0.0002  0.0000 -0.0136  0.0010 -0.0001
                                            0.0003  0.0007  0.0003  0.0001  0.0003
                                            0.0001 -0.0000  0.0018  0.0008  0.0001
                                           -0.0008 -0.0003  0.0001 -0.0005 -0.0002
                                           -0.0000 -0.0004 -0.0003 -0.0000 -0.0000
                                           -0.0001 -0.0001 -0.0005 -0.0004  0.0002
                                            0.0002 -0.0002 -0.0002 -0.0002 -0.0002
    12. (1.95244) LP ( 2)Cl   3           s(  0.00%)p 1.00( 99.99%)d 0.00(  0.00%)
                                                  f 0.00(  0.00%)
                                           -0.0000  0.0000  0.0030 -0.0000 -0.0008
                                            0.0008 -0.0000  0.8073  0.0003  0.0005
                                           -0.0004 -0.0000  0.1432 -0.0010  0.0000
                                           -0.0001  0.0000 -0.5724  0.0012 -0.0000
                                            0.0001  0.0030  0.0012  0.0003  0.0019
                                            0.0012  0.0007 -0.0004  0.0004  0.0006
                                            0.0022  0.0014  0.0010 -0.0029 -0.0020
                                           -0.0012 -0.0003 -0.0003 -0.0003 -0.0002
                                           -0.0010 -0.0009  0.0001 -0.0000  0.0009
                                            0.0007 -0.0005 -0.0004  0.0005  0.0004
    13. (1.95222) LP ( 3)Cl   3           s(  0.01%)p 1.00( 99.99%)d 0.00(  0.00%)
                                                  f 0.00(  0.00%)
                                           -0.0000 -0.0000  0.0066 -0.0013 -0.0039
                                            0.0028  0.0000 -0.5574 -0.0002 -0.0003
                                            0.0002 -0.0000  0.5036 -0.0026 -0.0003
                                            0.0009  0.0000 -0.6601  0.0017  0.0001
                                            0.0001 -0.0013 -0.0001  0.0002 -0.0029
                                           -0.0019 -0.0012  0.0012  0.0015  0.0014
                                           -0.0017 -0.0009 -0.0001 -0.0021 -0.0013
                                           -0.0006 -0.0004 -0.0004 -0.0002 -0.0002
                                           -0.0011 -0.0009 -0.0008 -0.0007 -0.0008
                                           -0.0007  0.0000 -0.0001 -0.0006 -0.0005
    14. (1.94291) LP ( 4)Cl   3           s(  0.16%)p99.99( 99.82%)d 0.09(  0.02%)
                                                  f 0.01(  0.00%)
                                            0.0000  0.0000  0.0404  0.0018  0.0009
                                            0.0003  0.0000  0.1936  0.0011  0.0000
                                           -0.0003  0.0000  0.8511  0.0011 -0.0005
                                           -0.0001  0.0000  0.4862  0.0037 -0.0001
                                            0.0005  0.0033  0.0013  0.0004  0.0027
                                            0.0010  0.0004  0.0100  0.0037  0.0014
                                           -0.0040 -0.0011  0.0002 -0.0002  0.0001
                                            0.0003 -0.0015 -0.0011 -0.0001 -0.0001
                                            0.0002 -0.0001 -0.0018 -0.0014  0.0008
                                            0.0005 -0.0008 -0.0006 -0.0007 -0.0006
    15. (0.02022) RY*( 1) O   1           s(  0.18%)p99.99( 96.91%)d16.19(  2.83%)
                                                  f 0.48(  0.08%)
                                            0.0000 -0.0009  0.0379  0.0177  0.0018
                                            0.0001  0.0018 -0.0030  0.0041 -0.0303
                                            0.7110  0.0282 -0.0110 -0.0294  0.6785
                                            0.0216 -0.0083  0.1070 -0.0262  0.0108
                                            0.0973 -0.0244  0.0109  0.0300 -0.0080
                                            0.0057  0.0202 -0.0023 -0.0021  0.0664
                                           -0.0086 -0.0028 -0.0034  0.0018  0.0029
                                            0.0006 -0.0076  0.0075  0.0145 -0.0115
                                            0.0021 -0.0014  0.0032 -0.0016  0.0148
                                           -0.0112
    16. (0.01494) RY*( 2) O   1           s( 21.48%)p 3.47( 74.46%)d 0.18(  3.92%)
                                                  f 0.01(  0.14%)
                                           -0.0000 -0.0110  0.4614 -0.0417  0.0041
                                            0.0106 -0.5001 -0.0137  0.0008 -0.0084
                                            0.4757  0.0107 -0.0111  0.0044 -0.5170
                                           -0.0132  0.0101  0.1121 -0.0070 -0.0048
                                           -0.1557  0.0177 -0.0012  0.0343 -0.0117
                                           -0.0036 -0.0184  0.0079 -0.0082 -0.0116
                                           -0.0038  0.0046  0.0128 -0.0093 -0.0125
                                            0.0049 -0.0087  0.0022 -0.0175  0.0082
                                            0.0115 -0.0047  0.0099 -0.0023  0.0148
                                           -0.0091
    17. (0.00711) RY*( 3) O   1           s(  3.73%)p15.66( 58.45%)d 9.94( 37.08%)
                                                  f 0.20(  0.74%)
                                            0.0000  0.0038  0.1892 -0.0362  0.0142
                                           -0.0549 -0.6031 -0.0188 -0.0152 -0.0199
                                           -0.3148 -0.0092 -0.0120  0.0173  0.3407
                                            0.0256 -0.0208 -0.3998 -0.0031 -0.0050
                                            0.1138 -0.0080  0.0076  0.2279  0.0315
                                           -0.0117  0.3703  0.0461 -0.0226  0.0680
                                           -0.0149  0.0123  0.0115 -0.0040 -0.0138
                                            0.0063  0.0158 -0.0018  0.0410 -0.0158
                                           -0.0222  0.0077  0.0168 -0.0068 -0.0578
                                            0.0252
    18. (0.00626) RY*( 4) O   1           s(  0.22%)p33.46(  7.37%)d99.99( 91.20%)
                                                  f 5.49(  1.21%)
                                           -0.0000  0.0028  0.0456 -0.0107  0.0013
                                           -0.0244 -0.2129 -0.0171  0.0042 -0.0189
                                           -0.1460 -0.0190  0.0114  0.0065  0.0725
                                            0.0003 -0.0003  0.4255  0.0445 -0.0153
                                            0.5297  0.0434 -0.0131  0.0960  0.0123
                                           -0.0038 -0.2114 -0.0135 -0.0008 -0.6231
                                           -0.0585  0.0154 -0.0714  0.0295 -0.0001
                                           -0.0007  0.0363 -0.0149  0.0328 -0.0122
                                           -0.0007 -0.0007  0.0148 -0.0067  0.0517
                                           -0.0204
    19. (0.00621) RY*( 5) O   1           s( 12.31%)p 0.72(  8.92%)d 6.31( 77.72%)
                                                  f 0.09(  1.05%)
                                            0.0000  0.0128  0.3506  0.0036 -0.0015
                                            0.0129  0.2490  0.0187 -0.0073  0.0226
                                            0.0999  0.0063 -0.0113 -0.0298 -0.1225
                                           -0.0088 -0.0015 -0.5476 -0.0374  0.0191
                                            0.5704  0.0366 -0.0174  0.0011  0.0104
                                           -0.0060 -0.3591 -0.0397  0.0126  0.1323
                                            0.0112 -0.0039 -0.0247  0.0075  0.0444
                                           -0.0109 -0.0090  0.0091  0.0094  0.0014
                                           -0.0563  0.0224 -0.0547  0.0126 -0.0257
                                            0.0062
    20. (0.00592) RY*( 6) O   1           s(  0.14%)p19.02(  2.67%)d99.99( 96.28%)
                                                  f 6.50(  0.91%)
                                            0.0000  0.0002  0.0371 -0.0051  0.0003
                                           -0.0010  0.0228  0.0008 -0.0027 -0.0273
                                           -0.0832 -0.0027 -0.0173 -0.0375 -0.1291
                                           -0.0097 -0.0068  0.4795  0.0583 -0.0172
                                            0.4762  0.0558 -0.0172 -0.0084  0.0027
                                           -0.0020  0.3280  0.0323 -0.0024  0.6215
                                            0.0630 -0.0092  0.0173 -0.0091  0.0364
                                           -0.0129 -0.0512  0.0210  0.0510 -0.0198
                                            0.0027 -0.0009  0.0224 -0.0077  0.0236
                                           -0.0078
    21. (0.00566) RY*( 7) O   1           s(  6.14%)p 0.98(  6.03%)d14.18( 87.11%)
                                                  f 0.12(  0.72%)
                                           -0.0000  0.0225  0.2467  0.0008 -0.0069
                                            0.0356  0.1483  0.0132 -0.0041 -0.0370
                                           -0.1532 -0.0184 -0.0042  0.0224  0.1053
                                            0.0058  0.0033  0.2003  0.0207 -0.0035
                                           -0.2297 -0.0263  0.0082  0.7834  0.0971
                                           -0.0097 -0.3388 -0.0416  0.0039  0.1920
                                            0.0201 -0.0028  0.0406 -0.0160  0.0148
                                           -0.0051  0.0353 -0.0143  0.0097 -0.0053
                                            0.0469 -0.0172 -0.0234  0.0080  0.0179
                                           -0.0058
    22. (0.00286) RY*( 8) O   1           s(  7.50%)p 3.12( 23.40%)d 9.08( 68.05%)
                                                  f 0.14(  1.06%)
                                            0.0000 -0.0034  0.2702  0.0435 -0.0077
                                            0.0286 -0.2494  0.0131 -0.0461  0.0193
                                           -0.2838 -0.0210 -0.0521 -0.0242  0.2876
                                            0.0353 -0.0046  0.1758  0.0506  0.0029
                                           -0.1658 -0.0445  0.0006 -0.5096 -0.0896
                                           -0.0330 -0.5155 -0.0656 -0.0631  0.2699
                                            0.0049  0.0420  0.0117 -0.0034  0.0142
                                           -0.0045 -0.0630  0.0398 -0.0499  0.0232
                                            0.0015 -0.0076 -0.0291  0.0107  0.0239
                                           -0.0079
    23. (0.00224) RY*( 9) O   1           s( 46.49%)p 0.48( 22.11%)d 0.66( 30.58%)
                                                  f 0.02(  0.82%)
                                            0.0000 -0.0067  0.6796  0.0236 -0.0501
                                           -0.0125  0.4244  0.0540 -0.0045 -0.0068
                                           -0.1325 -0.0230 -0.0751 -0.0038  0.1157
                                            0.0232  0.0135  0.1043  0.0420 -0.0020
                                           -0.1251 -0.0604  0.0138 -0.1512 -0.0689
                                           -0.0150  0.3994  0.1129  0.0486 -0.2464
                                           -0.1010 -0.0177  0.0073 -0.0061 -0.0333
                                            0.0410 -0.0355  0.0300  0.0104  0.0017
                                            0.0085  0.0004  0.0277 -0.0447 -0.0139
                                           -0.0001
    24. (0.00062) RY*(10) O   1           s( 53.29%)p 0.33( 17.39%)d 0.28( 15.14%)
                                                  f 0.27( 14.18%)
                                            0.0000 -0.0033 -0.0583  0.7236  0.0764
                                           -0.0032 -0.0349  0.0086 -0.0713 -0.0061
                                            0.0201 -0.1776 -0.2329 -0.0071 -0.0590
                                            0.2784  0.0157 -0.0100 -0.0917  0.0070
                                            0.0307  0.0158  0.0414  0.0571  0.0168
                                            0.1527  0.0086 -0.0482 -0.0764 -0.0095
                                           -0.3235  0.0115  0.2286 -0.0635 -0.0449
                                            0.0123 -0.2758  0.0234  0.0383 -0.0496
                                           -0.0403  0.0218 -0.0226  0.0079 -0.0083
                                           -0.0025
    25. (0.00057) RY*(11) O   1           s(  1.92%)p 6.25( 12.00%)d37.30( 71.56%)
                                                  f 7.57( 14.52%)
                                           -0.0000 -0.0020 -0.0026  0.1365  0.0232
                                            0.0019  0.0022  0.0856 -0.0197  0.0085
                                            0.0454 -0.2951 -0.0081  0.0091  0.0371
                                           -0.1439  0.0282 -0.0331  0.6055  0.0143
                                           -0.0221  0.5117  0.0206  0.0039  0.0064
                                            0.0152 -0.0119  0.1720 -0.0095 -0.0338
                                            0.2319  0.0009  0.1355 -0.0222 -0.0891
                                           -0.0016  0.0734 -0.0131 -0.2284  0.0279
                                           -0.0274  0.0029 -0.0857 -0.0068 -0.2257
                                            0.0291
    26. (0.00057) RY*(12) O   1           s(  1.51%)p39.28( 59.20%)d20.80( 31.34%)
                                                  f 5.28(  7.95%)
                                           -0.0000  0.0035  0.0265  0.1150 -0.0335
                                            0.0026  0.0084 -0.4267  0.0624 -0.0124
                                           -0.0175 -0.4705 -0.0108 -0.0055  0.0293
                                           -0.4280 -0.0065 -0.0091 -0.3907 -0.0248
                                           -0.0049  0.0522 -0.0257  0.0075 -0.1802
                                           -0.0077 -0.0278  0.2555 -0.0146 -0.0062
                                            0.2401  0.0122  0.0637 -0.0026 -0.0548
                                            0.0050 -0.0299 -0.0045  0.0649  0.0058
                                            0.0316 -0.0114  0.1036 -0.0151  0.2332
                                           -0.0287
    27. (0.00052) RY*(13) O   1           s(  0.50%)p99.99( 56.59%)d60.56( 30.24%)
                                                  f25.38( 12.67%)
                                            0.0000 -0.0059 -0.0328  0.0259  0.0567
                                           -0.0053 -0.0348  0.5312 -0.0468 -0.0010
                                            0.0373 -0.4747 -0.1108 -0.0084 -0.0230
                                           -0.1912 -0.0639 -0.0071  0.1006 -0.0146
                                            0.0009 -0.4542 -0.0432 -0.0152  0.2338
                                            0.0279  0.0136  0.0031  0.0002 -0.0143
                                            0.1642  0.0296 -0.2545  0.0061  0.1031
                                            0.0016 -0.0819 -0.0075  0.1728 -0.0097
                                           -0.0786  0.0085 -0.0851  0.0013  0.0321
                                            0.0029
    28. (0.00044) RY*(14) O   1           s(  2.14%)p16.08( 34.37%)d 6.10( 13.05%)
                                                  f23.59( 50.44%)
                                           -0.0000  0.0038 -0.0203  0.1084  0.0959
                                           -0.0029 -0.0171  0.1283 -0.0396 -0.0073
                                           -0.0169  0.4039  0.0336 -0.0015  0.0038
                                           -0.3943 -0.0732 -0.0010  0.0505 -0.0054
                                            0.0018 -0.0299  0.0143  0.0848 -0.3195
                                            0.0239 -0.0184  0.1157 -0.0194 -0.0135
                                            0.0514  0.0035 -0.1831 -0.0297 -0.3673
                                           -0.0393 -0.4950 -0.0693  0.0703 -0.0191
                                           -0.0110  0.0118 -0.2748 -0.0295 -0.0408
                                           -0.0005
    29. (0.00045) RY*(15) O   1           s(  0.62%)p52.84( 33.01%)d45.14( 28.20%)
                                                  f61.11( 38.17%)
                                           -0.0000  0.0016 -0.0204  0.0199  0.0737
                                           -0.0036 -0.0138  0.1762 -0.0366 -0.0030
                                           -0.0038  0.0236 -0.0971  0.0033  0.0069
                                           -0.5118 -0.1595 -0.0054 -0.0070 -0.0087
                                            0.0201  0.0032  0.0390  0.0456 -0.2419
                                            0.0057  0.0259 -0.1981 -0.0387  0.0249
                                           -0.4148 -0.0719  0.0582 -0.0097  0.3855
                                            0.0340  0.0840 -0.0002 -0.3792 -0.0384
                                            0.0864  0.0238  0.2557  0.0265 -0.0443
                                            0.0080
    30. (0.00044) RY*(16) O   1           s(  0.19%)p17.51(  3.29%)d46.82(  8.80%)
                                                  f99.99( 87.71%)
                                            0.0000 -0.0016 -0.0024  0.0291  0.0320
                                           -0.0005 -0.0039  0.0705 -0.0164 -0.0017
                                           -0.0054 -0.1399 -0.0780 -0.0001 -0.0095
                                            0.0302 -0.0313  0.0248 -0.1742 -0.0258
                                            0.0448 -0.0565  0.0189  0.0037 -0.0609
                                           -0.0098  0.0522 -0.0918  0.0158  0.0678
                                           -0.1746  0.0233 -0.1730 -0.0286 -0.4890
                                           -0.0549  0.4713  0.0661 -0.4076 -0.0468
                                            0.0307  0.0087 -0.4284 -0.0481  0.1502
                                            0.0084
    31. (0.00045) RY*(17) O   1           s(  0.93%)p22.21( 20.65%)d 9.47(  8.80%)
                                                  f74.90( 69.62%)
                                           -0.0000 -0.0025 -0.0043 -0.0638  0.0721
                                           -0.0054 -0.0149  0.4230 -0.0045 -0.0081
                                           -0.0163  0.1112  0.0583  0.0085  0.0171
                                            0.0920  0.0479 -0.0354 -0.0681 -0.0435
                                            0.0014  0.1530  0.0284  0.0194 -0.1325
                                           -0.0252  0.0188  0.0952  0.0208 -0.0402
                                            0.1607  0.0128  0.4214  0.0352  0.1020
                                            0.0142 -0.0280 -0.0123 -0.0831  0.0167
                                           -0.2032 -0.0067 -0.0558 -0.0080  0.6728
                                            0.0381
    32. (0.00043) RY*(18) O   1           s(  0.37%)p 2.42(  0.90%)d 9.76(  3.61%)
                                                  f99.99( 95.12%)
                                           -0.0000  0.0001 -0.0012  0.0490  0.0361
                                            0.0032 -0.0073  0.0539  0.0139  0.0004
                                            0.0092  0.0319  0.0082 -0.0025 -0.0075
                                           -0.0612 -0.0289 -0.0582  0.1260 -0.0369
                                            0.0426 -0.0720  0.0313 -0.0471  0.0110
                                           -0.0206  0.0074 -0.0502 -0.0310 -0.0192
                                            0.0295 -0.0032  0.2602  0.0378 -0.0074
                                            0.0080  0.1072  0.0156  0.2526  0.0287
                                            0.8681  0.1120 -0.1578 -0.0228  0.1166
                                            0.0187
    33. (0.00041) RY*(19) O   1           s(  2.28%)p 1.04(  2.38%)d 8.66( 19.73%)
                                                  f33.21( 75.62%)
                                           -0.0000 -0.0004 -0.0010  0.1378  0.0616
                                            0.0041  0.0069 -0.0721 -0.0173  0.0022
                                            0.0094 -0.0270  0.0044 -0.0002 -0.0027
                                            0.1261  0.0381 -0.0763  0.2483 -0.0131
                                           -0.0681  0.2594  0.0068  0.0333 -0.1711
                                           -0.0139  0.0134 -0.0014  0.0068  0.0556
                                           -0.1497  0.0371 -0.6596 -0.1070  0.1266
                                            0.0262  0.0569  0.0146  0.1859  0.0210
                                            0.1019  0.0133  0.1501  0.0245  0.4636
                                            0.0763
    34. (0.00041) RY*(20) O   1           s(  5.10%)p 3.18( 16.21%)d 8.60( 43.85%)
                                                  f 6.83( 34.84%)
                                           -0.0000 -0.0017 -0.0104  0.1653  0.1535
                                            0.0016 -0.0160  0.1853  0.0337  0.0003
                                           -0.0070  0.0364  0.0825  0.0021 -0.0151
                                            0.3236  0.1149  0.0152 -0.2037 -0.0484
                                            0.0424 -0.1338  0.0035  0.0637 -0.3542
                                           -0.0622 -0.0207  0.3182  0.0452 -0.0176
                                            0.3460  0.1329 -0.1853 -0.0262  0.2030
                                            0.0377  0.0202  0.0012 -0.3542 -0.0571
                                            0.2406  0.0402  0.1301  0.0041 -0.2506
                                           -0.0489
    35. (0.00037) RY*(21) O   1           s(  6.20%)p 1.26(  7.83%)d 7.26( 45.04%)
                                                  f 6.60( 40.93%)
                                            0.0000  0.0025 -0.0231  0.2036  0.1414
                                           -0.0002 -0.0096 -0.0741 -0.1112  0.0010
                                            0.0144  0.2128  0.0543 -0.0033 -0.0296
                                           -0.1042 -0.0123 -0.0235  0.2990  0.0630
                                            0.0359 -0.4015 -0.0828 -0.0051 -0.0312
                                            0.0657 -0.0856  0.3974  0.0874  0.0457
                                           -0.0829  0.0062  0.1501  0.0323 -0.2230
                                           -0.0528  0.3926  0.0927  0.1130  0.0051
                                           -0.1417 -0.0239  0.3522  0.0840  0.0731
                                            0.0229
    36. (0.00034) RY*(22) O   1           s(  4.12%)p 5.04( 20.77%)d 7.36( 30.30%)
                                                  f10.88( 44.82%)
                                            0.0000  0.0021  0.0296  0.1750 -0.0984
                                           -0.0044 -0.0006 -0.3755 -0.1405  0.0030
                                           -0.0034  0.1920  0.0104 -0.0010  0.0010
                                           -0.0883  0.0464 -0.0162  0.2092  0.0845
                                            0.0130 -0.2708 -0.1194 -0.0119  0.2879
                                            0.1302  0.0744 -0.0431  0.0087 -0.0471
                                            0.2126  0.0959 -0.0433 -0.0416  0.3096
                                            0.0781 -0.1110 -0.0370 -0.4013 -0.1457
                                            0.0139  0.0124 -0.2768 -0.0619  0.2474
                                            0.0680
    37. (0.00031) RY*(23) O   1           s( 11.22%)p 1.60( 17.96%)d 2.78( 31.24%)
                                                  f 3.53( 39.57%)
                                           -0.0000  0.0026  0.0615  0.3231  0.0635
                                           -0.0015 -0.0102  0.1412  0.0320 -0.0052
                                           -0.0313  0.3126 -0.0019  0.0035  0.0223
                                           -0.2430 -0.0148  0.0506 -0.2779 -0.0984
                                           -0.0564  0.2643  0.0944 -0.0662  0.2258
                                            0.1902  0.0159  0.0120 -0.0279 -0.0156
                                            0.1802  0.1248 -0.0945 -0.0835  0.2266
                                            0.0933  0.3925  0.1509  0.2622  0.0566
                                           -0.1126 -0.0201 -0.1702 -0.0745 -0.1419
                                           -0.0567
    38. (0.00029) RY*(24) O   1           s(  7.18%)p 1.07(  7.65%)d 3.69( 26.49%)
                                                  f 8.17( 58.68%)
                                           -0.0000  0.0048 -0.0374 -0.0617  0.2580
                                            0.0081 -0.0008 -0.1842 -0.0867 -0.0040
                                            0.0197 -0.1283  0.0733  0.0026 -0.0224
                                            0.0912 -0.0629  0.0176  0.1254  0.0693
                                           -0.0149 -0.1255 -0.0752  0.0466 -0.4006
                                           -0.1564  0.0077  0.0732  0.0078  0.0007
                                           -0.1481 -0.0888  0.0962  0.0966  0.3420
                                            0.1383  0.1216  0.0544  0.2361  0.1368
                                           -0.1840 -0.0863 -0.4928 -0.2077 -0.1067
                                           -0.0345
    39. (0.00018) RY*(25) O   1           s(  5.64%)p 1.86( 10.51%)d13.22( 74.53%)
                                                  f 1.65(  9.32%)
                                            0.0000 -0.0000  0.0484  0.2289 -0.0406
                                           -0.0107  0.0326 -0.0176  0.2766 -0.0072
                                            0.0057  0.0061  0.1625  0.0026 -0.0122
                                           -0.0164  0.0112 -0.0148  0.1276  0.0817
                                            0.0112 -0.1369 -0.1626  0.0392 -0.2604
                                           -0.1669  0.1047 -0.5645 -0.3643 -0.0484
                                            0.2913  0.1735  0.0560  0.0346 -0.0983
                                           -0.0579  0.1052  0.1058  0.0497  0.0407
                                           -0.1027 -0.1340  0.1221  0.0773  0.0056
                                           -0.0086
    40. (0.00013) RY*(26) O   1           s(  2.69%)p17.12( 46.08%)d13.70( 36.87%)
                                                  f 5.33( 14.36%)
                                           -0.0000  0.0008  0.0187  0.1264 -0.1030
                                            0.0027 -0.0293  0.1094  0.3614 -0.0023
                                           -0.0107 -0.0304  0.4867 -0.0040  0.0224
                                           -0.0572  0.2750 -0.0073 -0.0042 -0.1443
                                            0.0005 -0.0250 -0.3148 -0.0366  0.1352
                                           -0.0137 -0.0353  0.1495 -0.1478  0.0459
                                           -0.2260 -0.3600 -0.0178 -0.1787  0.0014
                                            0.0996 -0.0105 -0.1553 -0.0499 -0.0468
                                            0.0202 -0.0126 -0.0289 -0.2452  0.0069
                                           -0.1047
    41. (0.00010) RY*(27) O   1           s( 59.07%)p 0.05(  2.70%)d 0.31( 18.17%)
                                                  f 0.34( 20.06%)
                                           -0.0000 -0.0018  0.0854 -0.0833  0.7593
                                            0.0051  0.0564 -0.1201 -0.0451  0.0014
                                           -0.0156 -0.0233  0.0657 -0.0008  0.0230
                                            0.0147  0.0387  0.0118 -0.0315 -0.2098
                                           -0.0199  0.0344 -0.0163 -0.0538  0.1538
                                            0.1850  0.0402 -0.1077 -0.2078 -0.0154
                                            0.0558 -0.1188 -0.0145  0.0761 -0.0215
                                           -0.1697 -0.0071 -0.3269 -0.0425 -0.0425
                                            0.0097 -0.0778  0.0197  0.2145  0.0146
                                           -0.0451
    42. (0.00008) RY*(28) O   1           s(  3.88%)p 2.14(  8.30%)d12.97( 50.32%)
                                                  f 9.67( 37.51%)
    43. (0.00008) RY*(29) O   1           s(  0.86%)p 4.56(  3.92%)d 5.68(  4.88%)
                                                  f99.99( 90.35%)
    44. (0.00007) RY*(30) O   1           s(  1.62%)p 1.02(  1.66%)d 3.19(  5.18%)
                                                  f56.39( 91.53%)
    45. (0.00007) RY*(31) O   1           s(  2.46%)p 0.97(  2.37%)d12.38( 30.43%)
                                                  f26.34( 64.74%)
    46. (0.00008) RY*(32) O   1           s(  1.55%)p 2.99(  4.63%)d 6.80( 10.55%)
                                                  f53.67( 83.27%)
    47. (0.00006) RY*(33) O   1           s(  1.73%)p 1.63(  2.82%)d18.35( 31.67%)
                                                  f36.97( 63.79%)
    48. (0.00007) RY*(34) O   1           s(  1.64%)p 0.08(  0.13%)d 6.24( 10.24%)
                                                  f53.61( 87.99%)
    49. (0.00005) RY*(35) O   1           s(  0.71%)p14.45( 10.30%)d46.70( 33.30%)
                                                  f78.08( 55.68%)
    50. (0.00005) RY*(36) O   1           s(  9.37%)p 0.37(  3.45%)d 6.46( 60.48%)
                                                  f 2.85( 26.70%)
    51. (0.00003) RY*(37) O   1           s( 10.38%)p 0.60(  6.19%)d 4.31( 44.73%)
                                                  f 3.73( 38.69%)
    52. (0.00003) RY*(38) O   1           s(  0.32%)p69.62( 22.07%)d99.99( 63.12%)
                                                  f45.74( 14.50%)
    53. (0.00002) RY*(39) O   1           s(  0.97%)p15.12( 14.66%)d82.37( 79.83%)
                                                  f 4.69(  4.54%)
    54. (0.00000) RY*(40) O   1           s(  1.33%)p60.11( 80.10%)d11.93( 15.89%)
                                                  f 2.01(  2.67%)
    55. (-.00001) RY*(41) O   1           s(  0.08%)p99.99( 71.00%)d99.99( 26.26%)
                                                  f32.19(  2.66%)
    56. (0.00204) RY*( 1) H   2           s( 47.43%)p 0.87( 41.37%)d 0.24( 11.20%)
                                           -0.0006  0.6676 -0.1554 -0.0674 -0.1468
                                            0.0147 -0.0285 -0.4271 -0.0909 -0.0112
                                           -0.4459 -0.0380 -0.0020 -0.2273  0.0485
[...]
   114. (0.00009) RY*(37)Cl   3           s(  2.37%)p 1.16(  2.75%)d38.39( 91.05%)
                                                  f 1.62(  3.83%)
   115. (0.00006) RY*(38)Cl   3           s( 96.17%)p 0.01(  0.87%)d 0.03(  2.86%)
                                                  f 0.00(  0.09%)
   116. (0.00001) RY*(39)Cl   3           s(  0.31%)p99.99( 95.98%)d 7.27(  2.26%)
                                                  f 4.68(  1.45%)
   117. (0.00000) RY*(40)Cl   3           s(  0.56%)p99.99( 97.98%)d 1.44(  0.81%)
                                                  f 1.16(  0.65%)
   118. (0.00000) RY*(41)Cl   3           s(  0.18%)p99.99( 96.86%)d12.73(  2.33%)
                                                  f 3.40(  0.62%)
   119. (0.00567) RY*( 1) H   4           s( 27.46%)p 2.55( 70.14%)d 0.09(  2.40%)
                                           -0.0164  0.5188 -0.0695 -0.0181  0.1447
                                           -0.0282  0.0034  0.8193 -0.0387  0.0032
                                            0.0815 -0.0031 -0.0152 -0.0155  0.0067
                                           -0.0039 -0.0038 -0.1166 -0.0095  0.0843
                                           -0.0377  0.0137 -0.0360
   120. (0.00418) RY*( 2) H   4           s( 39.25%)p 1.52( 59.57%)d 0.03(  1.18%)
                                            0.0128  0.6244 -0.0435  0.0238 -0.2253
                                            0.0060 -0.0199 -0.2941 -0.0281 -0.0254
                                           -0.6638 -0.1232 -0.0273 -0.0525  0.0074
                                           -0.0274  0.0175 -0.0091 -0.0075 -0.0038
                                            0.0426  0.0696  0.0338
   121. (0.00318) RY*( 3) H   4           s( 12.94%)p 6.61( 85.55%)d 0.12(  1.51%)
                                           -0.0216  0.3247  0.1480 -0.0401  0.8295
                                            0.0088  0.0152 -0.3667 -0.0102 -0.0092
                                            0.1767 -0.0029 -0.0352 -0.0197  0.0092
                                           -0.0322  0.0005  0.0161 -0.0183  0.1048
                                            0.0104 -0.0411  0.0161
   122. (0.00147) RY*( 4) H   4           s( 29.05%)p 2.33( 67.68%)d 0.11(  3.27%)
                                           -0.0082  0.4380  0.3087  0.0568 -0.4314
                                           -0.0101  0.0127 -0.1958  0.2647 -0.0063
                                            0.5867  0.1341 -0.1405  0.0705 -0.0288
                                            0.0733 -0.0120  0.1318 -0.0374 -0.0474
                                            0.0137 -0.0069  0.0132
   123. (0.00050) RY*( 5) H   4           s( 19.72%)p 3.24( 63.99%)d 0.83( 16.28%)
                                            0.0073 -0.1177  0.4218  0.0732  0.1596
                                            0.2336 -0.0081  0.2056  0.3623  0.0384
                                           -0.3748  0.4558 -0.1914  0.0758  0.0013
                                            0.0871 -0.0696  0.3357 -0.0675 -0.1303
                                            0.0073  0.1013  0.0127
   124. (0.00037) RY*( 6) H   4           s(  2.53%)p34.44( 86.98%)d 4.16( 10.50%)
                                           -0.0014 -0.0149 -0.0249  0.1562  0.0859
                                           -0.8782  0.1288  0.0227  0.2382  0.0039
                                           -0.0763  0.0604  0.0888 -0.0781 -0.1239
                                           -0.0167  0.0921  0.1138 -0.0356 -0.2397
                                           -0.0502  0.0211 -0.0102
   125. (0.00028) RY*( 7) H   4           s( 10.60%)p 5.72( 60.64%)d 2.71( 28.76%)
                                            0.0017  0.0339  0.2677 -0.1822 -0.0141
                                           -0.0365  0.1977  0.0481 -0.3765  0.5826
                                           -0.0175 -0.2752  0.0793  0.2277  0.0515
                                            0.0809 -0.0847  0.2806 -0.1057 -0.2751
                                           -0.1802 -0.1199  0.0834
   126. (0.00021) RY*( 8) H   4           s(  8.28%)p 2.72( 22.53%)d 8.36( 69.19%)
                                            0.0049 -0.0497  0.2119 -0.1882 -0.0649
                                           -0.2550  0.0078  0.0235 -0.2907 -0.2346
                                           -0.0788  0.0854 -0.0492  0.3748 -0.1643
                                            0.2690  0.2168  0.1669 -0.0011  0.5980
                                            0.0897  0.0335  0.1025
   127. (0.00017) RY*( 9) H   4           s(  5.35%)p 4.64( 24.83%)d13.05( 69.81%)
                                            0.0073 -0.0154  0.2096 -0.0965 -0.0605
                                           -0.0581 -0.1615  0.0590 -0.4054 -0.1712
                                            0.0536  0.0518 -0.1118 -0.6338 -0.1637
                                           -0.3134 -0.1128  0.3574  0.0611 -0.0143
                                            0.0766  0.0270  0.1430
   128. (0.00014) RY*(10) H   4           s(  9.44%)p 5.33( 50.26%)d 4.27( 40.30%)
                                           -0.0141 -0.1251  0.2773 -0.0404  0.0140
                                           -0.0703 -0.0244  0.0772  0.1747 -0.0567
                                           -0.0678 -0.4270 -0.5199  0.0355 -0.1702
                                           -0.1064 -0.0548 -0.3726 -0.2131 -0.0487
                                            0.1868 -0.1970  0.3132
   129. (0.00014) RY*(11) H   4           s(  4.43%)p 6.75( 29.93%)d14.81( 65.64%)
                                            0.0017  0.0361 -0.1004  0.1815  0.0909
                                            0.0836 -0.0059  0.0627 -0.1223 -0.4546
                                            0.0664 -0.2289  0.0402  0.2475  0.0906
                                            0.2479 -0.0061  0.2454  0.2638 -0.4616
                                            0.2507  0.1337  0.3191
   130. (0.00009) RY*(12) H   4           s( 18.38%)p 2.74( 50.28%)d 1.71( 31.35%)
   131. (0.00009) RY*(13) H   4           s(  4.51%)p10.71( 48.26%)d10.48( 47.23%)
   132. (0.00007) RY*(14) H   4           s( 10.32%)p 0.73(  7.53%)d 7.96( 82.15%)
   133. (0.00007) RY*(15) H   4           s(  0.39%)p55.00( 21.34%)d99.99( 78.28%)
   134. (0.00008) RY*(16) H   4           s(  2.59%)p 5.40( 13.96%)d32.28( 83.46%)
   135. (0.00005) RY*(17) H   4           s( 39.04%)p 0.74( 28.74%)d 0.83( 32.23%)
   136. (0.00004) RY*(18) H   4           s(  0.94%)p 5.72(  5.39%)d99.47( 93.67%)
   137. (0.00003) RY*(19) H   4           s( 49.36%)p 0.28( 13.96%)d 0.74( 36.68%)
   138. (0.00003) RY*(20) H   4           s(  2.44%)p 9.91( 24.21%)d30.03( 73.35%)
   139. (0.00004) RY*(21) H   4           s(  2.10%)p12.71( 26.74%)d33.81( 71.15%)
   140. (0.00002) RY*(22) H   4           s(  1.06%)p35.09( 37.33%)d57.90( 61.60%)
   141. (0.02153) BD*( 1) O   1 - H   2  
                ( 27.19%)   0.5214* O   1 s( 20.60%)p 3.83( 78.92%)d 0.02(  0.46%)
                                                  f 0.00(  0.01%)
                                           -0.0002 -0.4538  0.0051 -0.0041  0.0049
                                           -0.8853  0.0312 -0.0081  0.0003 -0.0524
                                            0.0105 -0.0008  0.0022  0.0370 -0.0130
                                            0.0011 -0.0016  0.0104  0.0006 -0.0024
                                           -0.0191  0.0030  0.0001  0.0058  0.0000
                                           -0.0016 -0.0554  0.0032 -0.0025  0.0315
                                           -0.0017  0.0013  0.0000 -0.0003  0.0045
                                            0.0019  0.0005 -0.0002  0.0004  0.0001
                                            0.0062 -0.0018 -0.0070 -0.0018 -0.0009
                                            0.0001
                ( 72.81%)  -0.8533* H   2 s( 99.89%)p 0.00(  0.10%)d 0.00(  0.01%)
                                           -0.9995 -0.0036  0.0001 -0.0002  0.0013
                                           -0.0303  0.0042 -0.0038 -0.0015  0.0006
                                           -0.0005 -0.0020  0.0002 -0.0032  0.0017
                                           -0.0011 -0.0011  0.0026  0.0008 -0.0081
                                            0.0011  0.0034 -0.0007
   142. (0.02831) BD*( 1) O   1 - H   4  
                ( 24.24%)   0.4924* O   1 s( 22.97%)p 3.33( 76.54%)d 0.02(  0.47%)
                                                  f 0.00(  0.02%)
                                            0.0003  0.4793  0.0010  0.0014 -0.0012
                                           -0.1826  0.0184  0.0005 -0.0023 -0.5821
                                            0.0144 -0.0058  0.0008  0.6264 -0.0120
                                            0.0075 -0.0054 -0.0095  0.0045 -0.0021
                                            0.0087 -0.0043  0.0020 -0.0597  0.0024
                                            0.0021 -0.0212  0.0011 -0.0006  0.0218
                                           -0.0026  0.0015 -0.0067  0.0015 -0.0005
                                           -0.0008 -0.0073 -0.0011 -0.0029 -0.0028
                                            0.0027  0.0008  0.0004  0.0010 -0.0038
                                            0.0030
                ( 75.76%)  -0.8704* H   4 s( 99.84%)p 0.00(  0.15%)d 0.00(  0.01%)
                                            0.9991  0.0095  0.0004  0.0001  0.0201
                                           -0.0014 -0.0009  0.0077  0.0153  0.0048
                                            0.0206 -0.0178 -0.0081 -0.0001 -0.0018
                                           -0.0009  0.0020 -0.0025 -0.0007  0.0078
                                            0.0003 -0.0022 -0.0007


 NHO Directionality and "Bond Bending" (deviations from line of nuclear centers)

         [Thresholds for printing:  angular deviation  >  1.0 degree]
                                    hybrid p-character > 25.0%
                                    orbital occupancy  >  0.10e

                                Line of Centers        Hybrid 1              Hybrid 2
                                ---------------  -------------------   ------------------
                NBO               Theta   Phi    Theta   Phi    Dev    Theta   Phi    Dev
 ========================================================================================
     1. BD (   1) O   1 - H   2    90.0    0.0    91.6    2.7   3.1      --     --    --
     2. BD (   1) O   1 - H   4    45.0  258.3    44.0  253.8   3.3      --     --    --
     9. LP (   1) O   1             --     --    122.1  138.2   --       --     --    --
    10. LP (   2) O   1             --     --    134.0  269.7   --       --     --    --
    12. LP (   2)Cl   3             --     --    124.9   10.0   --       --     --    --
    13. LP (   3)Cl   3             --     --    131.3  138.0   --       --     --    --
    14. LP (   4)Cl   3             --     --     60.7   77.1   --       --     --    --


 Natural Bond Orbitals (Summary):

           NBO                  Occupancy  
 -----------------------------------------------
 Molecular unit  1  (H2O)
     1. BD (   1) O   1 - H   2          1.96630
     2. BD (   1) O   1 - H   4          1.96720
     3. CR (   1) O   1                  1.99968
     9. LP (   1) O   1                  1.97085
    10. LP (   2) O   1                  1.96088
    15. RY*(   1) O   1                  0.02022
    16. RY*(   2) O   1                  0.01494
    17. RY*(   3) O   1                  0.00711
    18. RY*(   4) O   1                  0.00626
    19. RY*(   5) O   1                  0.00621
    20. RY*(   6) O   1                  0.00592
    21. RY*(   7) O   1                  0.00566
    22. RY*(   8) O   1                  0.00286
    23. RY*(   9) O   1                  0.00224
    24. RY*(  10) O   1                  0.00062
    25. RY*(  11) O   1                  0.00057
    26. RY*(  12) O   1                  0.00057
    27. RY*(  13) O   1                  0.00052
    28. RY*(  14) O   1                  0.00044
    29. RY*(  15) O   1                  0.00045
    30. RY*(  16) O   1                  0.00044
    31. RY*(  17) O   1                  0.00045
    32. RY*(  18) O   1                  0.00043
    33. RY*(  19) O   1                  0.00041
    34. RY*(  20) O   1                  0.00041
    35. RY*(  21) O   1                  0.00037
    36. RY*(  22) O   1                  0.00034
    37. RY*(  23) O   1                  0.00031
    38. RY*(  24) O   1                  0.00029
    39. RY*(  25) O   1                  0.00018
    40. RY*(  26) O   1                  0.00013
    41. RY*(  27) O   1                  0.00010
    42. RY*(  28) O   1                  0.00008
    43. RY*(  29) O   1                  0.00008
    44. RY*(  30) O   1                  0.00007
    45. RY*(  31) O   1                  0.00007
    46. RY*(  32) O   1                  0.00008
    47. RY*(  33) O   1                  0.00006
    48. RY*(  34) O   1                  0.00007
    49. RY*(  35) O   1                  0.00005
    50. RY*(  36) O   1                  0.00005
    51. RY*(  37) O   1                  0.00003
    52. RY*(  38) O   1                  0.00003
    53. RY*(  39) O   1                  0.00002
    54. RY*(  40) O   1                  0.00000
    55. RY*(  41) O   1                 -0.00001
    56. RY*(   1) H   2                  0.00204
    57. RY*(   2) H   2                  0.00162
    58. RY*(   3) H   2                  0.00081
    59. RY*(   4) H   2                  0.00047
    60. RY*(   5) H   2                  0.00029
    61. RY*(   6) H   2                  0.00018
    62. RY*(   7) H   2                  0.00012
    63. RY*(   8) H   2                  0.00011
    64. RY*(   9) H   2                  0.00010
    65. RY*(  10) H   2                  0.00008
    66. RY*(  11) H   2                  0.00009
    67. RY*(  12) H   2                  0.00006
    68. RY*(  13) H   2                  0.00005
    69. RY*(  14) H   2                  0.00003
    70. RY*(  15) H   2                  0.00003
    71. RY*(  16) H   2                  0.00004
    72. RY*(  17) H   2                  0.00002
    73. RY*(  18) H   2                  0.00003
    74. RY*(  19) H   2                  0.00001
    75. RY*(  20) H   2                  0.00001
    76. RY*(  21) H   2                  0.00001
    77. RY*(  22) H   2                  0.00002
   119. RY*(   1) H   4                  0.00567
   120. RY*(   2) H   4                  0.00418
   121. RY*(   3) H   4                  0.00318
   122. RY*(   4) H   4                  0.00147
   123. RY*(   5) H   4                  0.00050
   124. RY*(   6) H   4                  0.00037
   125. RY*(   7) H   4                  0.00028
   126. RY*(   8) H   4                  0.00021
   127. RY*(   9) H   4                  0.00017
   128. RY*(  10) H   4                  0.00014
   129. RY*(  11) H   4                  0.00014
   130. RY*(  12) H   4                  0.00009
   131. RY*(  13) H   4                  0.00009
   132. RY*(  14) H   4                  0.00007
   133. RY*(  15) H   4                  0.00007
   134. RY*(  16) H   4                  0.00008
   135. RY*(  17) H   4                  0.00005
   136. RY*(  18) H   4                  0.00004
   137. RY*(  19) H   4                  0.00003
   138. RY*(  20) H   4                  0.00003
   139. RY*(  21) H   4                  0.00004
   140. RY*(  22) H   4                  0.00002
   141. BD*(   1) O   1 - H   2          0.02153
   142. BD*(   1) O   1 - H   4          0.02831
       -------------------------------
              Total Lewis    9.86490  ( 98.4815%)
        Valence non-Lewis    0.04984  (  0.4975%)
        Rydberg non-Lewis    0.10227  (  1.0210%)
       -------------------------------
            Total unit  1   10.01701  (100.0000%)
           Charge unit  1   -0.01701

 Molecular unit  2  (Cl)
     4. CR (   1)Cl   3                  2.00001
     5. CR (   2)Cl   3                  2.00000
     6. CR (   3)Cl   3                  2.00003
     7. CR (   4)Cl   3                  2.00002
     8. CR (   5)Cl   3                  2.00002
    11. LP (   1)Cl   3                  1.98066
    12. LP (   2)Cl   3                  1.95244
    13. LP (   3)Cl   3                  1.95222
    14. LP (   4)Cl   3                  1.94291
    78. RY*(   1)Cl   3                  0.01843
    79. RY*(   2)Cl   3                  0.01841
    80. RY*(   3)Cl   3                  0.01833
    81. RY*(   4)Cl   3                  0.01833
    82. RY*(   5)Cl   3                  0.01834
    83. RY*(   6)Cl   3                  0.01411
    84. RY*(   7)Cl   3                  0.01397
    85. RY*(   8)Cl   3                  0.01290
    86. RY*(   9)Cl   3                  0.00445
    87. RY*(  10)Cl   3                  0.00130
    88. RY*(  11)Cl   3                  0.00130
    89. RY*(  12)Cl   3                  0.00130
    90. RY*(  13)Cl   3                  0.00129
    91. RY*(  14)Cl   3                  0.00130
    92. RY*(  15)Cl   3                  0.00130
    93. RY*(  16)Cl   3                  0.00130
    94. RY*(  17)Cl   3                  0.00101
    95. RY*(  18)Cl   3                  0.00101
    96. RY*(  19)Cl   3                  0.00090
    97. RY*(  20)Cl   3                  0.00087
    98. RY*(  21)Cl   3                  0.00083
    99. RY*(  22)Cl   3                  0.00059
   100. RY*(  23)Cl   3                  0.00057
   101. RY*(  24)Cl   3                  0.00055
   102. RY*(  25)Cl   3                  0.00036
   103. RY*(  26)Cl   3                  0.00015
   104. RY*(  27)Cl   3                  0.00015
   105. RY*(  28)Cl   3                  0.00015
   106. RY*(  29)Cl   3                  0.00015
   107. RY*(  30)Cl   3                  0.00015
   108. RY*(  31)Cl   3                  0.00014
   109. RY*(  32)Cl   3                  0.00015
   110. RY*(  33)Cl   3                  0.00012
   111. RY*(  34)Cl   3                  0.00011
   112. RY*(  35)Cl   3                  0.00010
   113. RY*(  36)Cl   3                  0.00011
   114. RY*(  37)Cl   3                  0.00009
   115. RY*(  38)Cl   3                  0.00006
   116. RY*(  39)Cl   3                  0.00001
   117. RY*(  40)Cl   3                  0.00000
   118. RY*(  41)Cl   3                  0.00000
       -------------------------------
              Total Lewis   17.82832  ( 99.1399%)
        Valence non-Lewis    0.00000  (  0.0000%)
        Rydberg non-Lewis    0.15467  (  0.8601%)
       -------------------------------
            Total unit  2   17.98299  (100.0000%)
           Charge unit  2   -0.98299
 Leave Link  607 at Tue Oct 19 16:02:19 2021, MaxMem= 16106127360 cpu:              73.4 elap:               2.7
 (Enter /sw/contrib/gaussian/g16/B01/g16/l9999.exe)
 1\1\GINC-N2098\SP\RMP2-FC\Aug-CC-pVTZ\Cl1H2O1(1-)\CGAVINH\19-Oct-2021\
 0\\#p pop=NBO SP NoSymm mp2/aug-cc-pvtz density=current\\title\\-1,1\O
 \X,1,10.\H,1,0.96061628,2,90.\Cl,1,3.08954942,2,90.,3,101.71720655,0\H
 ,1,0.97153,2,45.,3,101.71720655,0\\Version=ES64L-G16RevB.01\HF=-535.63
 60308\MP2=-536.1173052\RMSD=4.632e-09\Dipole=0.866035,1.3520644,0.3209
 14\Quadrupole=10.4808109,-21.2797474,10.7989365,-6.2023016,-0.1799068,
 -0.3531433\PG=C01 [X(Cl1H2O1)]\\@


 IF AT FIRST YOU DON'T SUCCEED, TRY LOOKING IN 
 THE WASTEBASKET FOR THE DIRECTIONS.
 Job cpu time:       0 days  0 hours  3 minutes 26.6 seconds.
 Elapsed time:       0 days  0 hours  0 minutes  9.7 seconds.
 File lengths (MBytes):  RWF=     10 Int=      0 D2E=      0 Chk=      8 Scr=      1
 Normal termination of Gaussian 16 at Tue Oct 19 16:02:19 2021.
