 Entering Gaussian System, Link 0=g16
 Input=clhod_oop_15_sp.gjf
 Output=clhod_oop_15_sp.log
 Initial command:
 /sw/contrib/gaussian/g16/B01/g16/l1.exe "/scr/Gau-2184.inp" -scrdir="/scr/"
 Entering Link 1 = /sw/contrib/gaussian/g16/B01/g16/l1.exe PID=      2185.
  
 Copyright (c) 1988-2017, Gaussian, Inc.  All Rights Reserved.
  
 This is part of the Gaussian(R) 16 program.  It is based on
 the Gaussian(R) 09 system (copyright 2009, Gaussian, Inc.),
 the Gaussian(R) 03 system (copyright 2003, Gaussian, Inc.),
 the Gaussian(R) 98 system (copyright 1998, Gaussian, Inc.),
 the Gaussian(R) 94 system (copyright 1995, Gaussian, Inc.),
 the Gaussian 92(TM) system (copyright 1992, Gaussian, Inc.),
 the Gaussian 90(TM) system (copyright 1990, Gaussian, Inc.),
 the Gaussian 88(TM) system (copyright 1988, Gaussian, Inc.),
 the Gaussian 86(TM) system (copyright 1986, Carnegie Mellon
 University), and the Gaussian 82(TM) system (copyright 1983,
 Carnegie Mellon University). Gaussian is a federally registered
 trademark of Gaussian, Inc.
  
 This software contains proprietary and confidential information,
 including trade secrets, belonging to Gaussian, Inc.
  
 This software is provided under written license and may be
 used, copied, transmitted, or stored only in accord with that
 written license.
  
 The following legend is applicable only to US Government
 contracts under FAR:
  
                    RESTRICTED RIGHTS LEGEND
  
 Use, reproduction and disclosure by the US Government is
 subject to restrictions as set forth in subparagraphs (a)
 and (c) of the Commercial Computer Software - Restricted
 Rights clause in FAR 52.227-19.
  
 Gaussian, Inc.
 340 Quinnipiac St., Bldg. 40, Wallingford CT 06492
  
  
 ---------------------------------------------------------------
 Warning -- This program may not be used in any manner that
 competes with the business of Gaussian, Inc. or will provide
 assistance to any competitor of Gaussian, Inc.  The licensee
 of this program is prohibited from giving any competitor of
 Gaussian, Inc. access to this program.  By using this program,
 the user acknowledges that Gaussian, Inc. is engaged in the
 business of creating and licensing software in the field of
 computational chemistry and represents and warrants to the
 licensee that it is not a competitor of Gaussian, Inc. and that
 it will not use this program in any manner prohibited above.
 ---------------------------------------------------------------
  

 Cite this work as:
 Gaussian 16, Revision B.01,
 M. J. Frisch, G. W. Trucks, H. B. Schlegel, G. E. Scuseria, 
 M. A. Robb, J. R. Cheeseman, G. Scalmani, V. Barone, 
 G. A. Petersson, H. Nakatsuji, X. Li, M. Caricato, A. V. Marenich, 
 J. Bloino, B. G. Janesko, R. Gomperts, B. Mennucci, H. P. Hratchian, 
 J. V. Ortiz, A. F. Izmaylov, J. L. Sonnenberg, D. Williams-Young, 
 F. Ding, F. Lipparini, F. Egidi, J. Goings, B. Peng, A. Petrone, 
 T. Henderson, D. Ranasinghe, V. G. Zakrzewski, J. Gao, N. Rega, 
 G. Zheng, W. Liang, M. Hada, M. Ehara, K. Toyota, R. Fukuda, 
 J. Hasegawa, M. Ishida, T. Nakajima, Y. Honda, O. Kitao, H. Nakai, 
 T. Vreven, K. Throssell, J. A. Montgomery, Jr., J. E. Peralta, 
 F. Ogliaro, M. J. Bearpark, J. J. Heyd, E. N. Brothers, K. N. Kudin, 
 V. N. Staroverov, T. A. Keith, R. Kobayashi, J. Normand, 
 K. Raghavachari, A. P. Rendell, J. C. Burant, S. S. Iyengar, 
 J. Tomasi, M. Cossi, J. M. Millam, M. Klene, C. Adamo, R. Cammi, 
 J. W. Ochterski, R. L. Martin, K. Morokuma, O. Farkas, 
 J. B. Foresman, and D. J. Fox, Gaussian, Inc., Wallingford CT, 2016.
 
 ******************************************
 Gaussian 16:  ES64L-G16RevB.01 20-Dec-2017
                19-Oct-2021 
 ******************************************
 %nproc=28
 Will use up to   28 processors via shared memory.
 %mem=120GB
 %chk=/gscratch/ilahie/mccoygrp/coire_hocl/oop_s_rOH_opt/clhod/clhod_oop_15_sp.ch
 k
 ----------------------------------------------------
 #p pop=NBO SP NoSymm mp2/aug-cc-pvtz density=current
 ----------------------------------------------------
 1/30=1,38=1,172=1/1;
 2/12=2,15=1,17=6,18=5,40=1/2;
 3/5=16,6=1,7=10,11=9,25=1,30=1,71=1/1,2,3;
 4//1;
 5/5=2,38=5/2;
 8/6=4,10=1/1;
 9/15=1,16=-3/6;
 10/5=1,13=10,31=1/2;
 6/7=2,8=2,9=2,10=2,22=-1,40=1/1,7;
 99/5=1,9=1/99;
 Leave Link    1 at Tue Oct 19 16:01:12 2021, MaxMem= 16106127360 cpu:               2.3 elap:               0.1
 (Enter /sw/contrib/gaussian/g16/B01/g16/l101.exe)
 -----
 title
 -----
 Symbolic Z-matrix:
 Charge = -1 Multiplicity = 1
 O
 X                    1     10. 
 H(iso=2)             1    r1       2     90. 
 Cl                   1    r2       2     90.      3    a1       0
 H                    1    r3       2    oop      3    a1       0
       Variables:
  r1                    0.96062                  
  r2                    3.08955                  
  r3                    0.98828                  
  a1                  101.71721                  
  OOP                  75.                       
 
 ITRead=  0  0  0  0
 MicOpt= -1 -1 -1 -1
 NAtoms=      4 NQM=        4 NQMF=       0 NMMI=      0 NMMIF=      0
                NMic=       0 NMicF=      0.
                    Isotopes and Nuclear Properties:
 (Nuclear quadrupole moments (NQMom) in fm**2, nuclear magnetic moments (NMagM)
  in nuclear magnetons)

  Atom         1           2           3           4
 IAtWgt=          16           2          35           1
 AtmWgt=  15.9949146   2.0141018  34.9688527   1.0078250
 NucSpn=           0           2           3           1
 AtZEff=  -0.0000000  -0.0000000  -0.0000000  -0.0000000
 NQMom=    0.0000000   0.2860000  -8.1650000   0.0000000
 NMagM=    0.0000000   0.8574380   0.8218740   2.7928460
 AtZNuc=   8.0000000   1.0000000  17.0000000   1.0000000
 Leave Link  101 at Tue Oct 19 16:01:12 2021, MaxMem= 16106127360 cpu:               2.8 elap:               0.1
 (Enter /sw/contrib/gaussian/g16/B01/g16/l202.exe)
                          Input orientation:                          
 ---------------------------------------------------------------------
 Center     Atomic      Atomic             Coordinates (Angstroms)
 Number     Number       Type             X           Y           Z
 ---------------------------------------------------------------------
      1          8           0        0.000000    0.000000    0.000000
      2          1           0        0.960616    0.000000    0.000000
      3         17           0       -0.627430   -3.025169    0.000000
      4          1           0       -0.193863   -0.934713    0.255786
 ---------------------------------------------------------------------
                    Distance matrix (angstroms):
                    1          2          3          4
     1  O    0.000000
     2  H    0.960616   0.000000
     3  Cl   3.089549   3.416656   0.000000
     4  H    0.988280   1.507294   2.150212   0.000000
 Symmetry turned off by external request.
 Stoichiometry    ClH2O(1-)
 Framework group  C1[X(ClH2O)]
 Deg. of freedom     6
 Full point group                 C1      NOp   1
 Rotational constants (GHZ):         310.5885444           4.3377463           4.2826269
 Leave Link  202 at Tue Oct 19 16:01:12 2021, MaxMem= 16106127360 cpu:               2.2 elap:               0.1
 (Enter /sw/contrib/gaussian/g16/B01/g16/l301.exe)
 Standard basis: Aug-CC-pVTZ (5D, 7F)
 Ernie: Thresh=  0.10000D-02 Tol=  0.10000D-05 Strict=F.
 Ernie:  16 primitive shells out of 116 were deleted.
   142 basis functions,   240 primitive gaussians,   164 cartesian basis functions
    14 alpha electrons       14 beta electrons
       nuclear repulsion energy        39.1524906574 Hartrees.
 IExCor=    0 DFT=F Ex=HF Corr=None ExCW=0 ScaHFX=  1.000000
 ScaDFX=  1.000000  1.000000  1.000000  1.000000 ScalE2=  1.000000  1.000000
 IRadAn=      5 IRanWt=     -1 IRanGd=            0 ICorTp=0 IEmpDi=  4
 NAtoms=    4 NActive=    4 NUniq=    4 SFac= 1.00D+00 NAtFMM=   60 NAOKFM=F Big=F
 Integral buffers will be    131072 words long.
 Raffenetti 1 integral format.
 Two-electron integral symmetry is turned off.
 Leave Link  301 at Tue Oct 19 16:01:12 2021, MaxMem= 16106127360 cpu:               1.2 elap:               0.1
 (Enter /sw/contrib/gaussian/g16/B01/g16/l302.exe)
 NPDir=0 NMtPBC=     1 NCelOv=     1 NCel=       1 NClECP=     1 NCelD=      1
         NCelK=      1 NCelE2=     1 NClLst=     1 CellRange=     0.0.
 One-electron integrals computed using PRISM.
 NBasis=   142 RedAO= T EigKep=  2.99D-04  NBF=   142
 NBsUse=   142 1.00D-06 EigRej= -1.00D+00 NBFU=   142
 Leave Link  302 at Tue Oct 19 16:01:12 2021, MaxMem= 16106127360 cpu:               3.8 elap:               0.2
 (Enter /sw/contrib/gaussian/g16/B01/g16/l303.exe)
 DipDrv:  MaxL=1.
 Leave Link  303 at Tue Oct 19 16:01:12 2021, MaxMem= 16106127360 cpu:               0.6 elap:               0.0
 (Enter /sw/contrib/gaussian/g16/B01/g16/l401.exe)
 ExpMin= 2.53D-02 ExpMax= 4.56D+05 ExpMxC= 1.44D+03 IAcc=3 IRadAn=         5 AccDes= 0.00D+00
 Harris functional with IExCor=  205 and IRadAn=       5 diagonalized for initial guess.
 HarFok:  IExCor=  205 AccDes= 0.00D+00 IRadAn=         5 IDoV= 1 UseB2=F ITyADJ=14
 ICtDFT=  3500011 ScaDFX=  1.000000  1.000000  1.000000  1.000000
 FoFCou: FMM=F IPFlag=           0 FMFlag=      100000 FMFlg1=           0
         NFxFlg=           0 DoJE=T BraDBF=F KetDBF=T FulRan=T
         wScrn=  0.000000 ICntrl=       500 IOpCl=  0 I1Cent=   200000004 NGrid=           0
         NMat0=    1 NMatS0=      1 NMatT0=    0 NMatD0=    1 NMtDS0=    0 NMtDT0=    0
 Symmetry not used in FoFCou.
 Harris En= -535.444771217560    
 JPrj=0 DoOrth=F DoCkMO=F.
 Leave Link  401 at Tue Oct 19 16:01:13 2021, MaxMem= 16106127360 cpu:               5.9 elap:               0.3
 (Enter /sw/contrib/gaussian/g16/B01/g16/l502.exe)
 Keep R1 ints in memory in canonical form, NReq=65346247.
 FoFCou: FMM=F IPFlag=           0 FMFlag=           0 FMFlg1=           0
         NFxFlg=           0 DoJE=F BraDBF=F KetDBF=F FulRan=T
         wScrn=  0.000000 ICntrl=       600 IOpCl=  0 I1Cent=           0 NGrid=           0
         NMat0=    1 NMatS0=  10153 NMatT0=    0 NMatD0=    1 NMtDS0=    0 NMtDT0=    0
 Symmetry not used in FoFCou.
 Two-electron integral symmetry not used.
 Closed shell SCF:
 Using DIIS extrapolation, IDIIS=  1040.
 NGot= 16106127360 LenX= 16054521101 LenY= 16054493764
 Requested convergence on RMS density matrix=1.00D-08 within 128 cycles.
 Requested convergence on MAX density matrix=1.00D-06.
 Requested convergence on             energy=1.00D-06.
 No special actions if energy rises.

 Cycle   1  Pass 1  IDiag  1:
 E= -535.511624653714    
 DIIS: error= 4.06D-02 at cycle   1 NSaved=   1.
 NSaved= 1 IEnMin= 1 EnMin= -535.511624653714     IErMin= 1 ErrMin= 4.06D-02
 ErrMax= 4.06D-02  0.00D+00 EMaxC= 1.00D-01 BMatC= 3.42D-01 BMatP= 3.42D-01
 IDIUse=3 WtCom= 5.94D-01 WtEn= 4.06D-01
 Coeff-Com:  0.100D+01
 Coeff-En:   0.100D+01
 Coeff:      0.100D+01
 Gap=     0.382 Goal=   None    Shift=    0.000
 GapD=    0.382 DampG=1.000 DampE=0.500 DampFc=0.5000 IDamp=-1.
 Damping current iteration by 5.00D-01
 RMSDP=2.23D-03 MaxDP=5.74D-02              OVMax= 1.30D-01

 Cycle   2  Pass 1  IDiag  1:
 E= -535.584256131090     Delta-E=       -0.072631477377 Rises=F Damp=T
 DIIS: error= 1.16D-02 at cycle   2 NSaved=   2.
 NSaved= 2 IEnMin= 2 EnMin= -535.584256131090     IErMin= 2 ErrMin= 1.16D-02
 ErrMax= 1.16D-02  0.00D+00 EMaxC= 1.00D-01 BMatC= 6.27D-02 BMatP= 3.42D-01
 IDIUse=3 WtCom= 8.84D-01 WtEn= 1.16D-01
 Coeff-Com: -0.478D+00 0.148D+01
 Coeff-En:   0.000D+00 0.100D+01
 Coeff:     -0.423D+00 0.142D+01
 Gap=     0.315 Goal=   None    Shift=    0.000
 RMSDP=9.28D-04 MaxDP=3.48D-02 DE=-7.26D-02 OVMax= 6.75D-02

 Cycle   3  Pass 1  IDiag  1:
 E= -535.646604059940     Delta-E=       -0.062347928849 Rises=F Damp=F
 DIIS: error= 5.39D-03 at cycle   3 NSaved=   3.
 NSaved= 3 IEnMin= 3 EnMin= -535.646604059940     IErMin= 3 ErrMin= 5.39D-03
 ErrMax= 5.39D-03  0.00D+00 EMaxC= 1.00D-01 BMatC= 2.78D-03 BMatP= 6.27D-02
 IDIUse=3 WtCom= 9.46D-01 WtEn= 5.39D-02
 Coeff-Com: -0.162D+00 0.297D+00 0.866D+00
 Coeff-En:   0.000D+00 0.000D+00 0.100D+01
 Coeff:     -0.153D+00 0.281D+00 0.873D+00
 Gap=     0.318 Goal=   None    Shift=    0.000
 RMSDP=1.75D-04 MaxDP=4.17D-03 DE=-6.23D-02 OVMax= 1.22D-02

 Cycle   4  Pass 1  IDiag  1:
 E= -535.648384031183     Delta-E=       -0.001779971244 Rises=F Damp=F
 DIIS: error= 5.09D-04 at cycle   4 NSaved=   4.
 NSaved= 4 IEnMin= 4 EnMin= -535.648384031183     IErMin= 4 ErrMin= 5.09D-04
 ErrMax= 5.09D-04  0.00D+00 EMaxC= 1.00D-01 BMatC= 4.95D-05 BMatP= 2.78D-03
 IDIUse=3 WtCom= 9.95D-01 WtEn= 5.09D-03
 Coeff-Com: -0.256D-01 0.444D-01 0.181D+00 0.800D+00
 Coeff-En:   0.000D+00 0.000D+00 0.000D+00 0.100D+01
 Coeff:     -0.255D-01 0.442D-01 0.180D+00 0.801D+00
 Gap=     0.312 Goal=   None    Shift=    0.000
 RMSDP=3.83D-05 MaxDP=9.13D-04 DE=-1.78D-03 OVMax= 2.30D-03

 Cycle   5  Pass 1  IDiag  1:
 E= -535.648435597485     Delta-E=       -0.000051566301 Rises=F Damp=F
 DIIS: error= 1.53D-04 at cycle   5 NSaved=   5.
 NSaved= 5 IEnMin= 5 EnMin= -535.648435597485     IErMin= 5 ErrMin= 1.53D-04
 ErrMax= 1.53D-04  0.00D+00 EMaxC= 1.00D-01 BMatC= 3.74D-06 BMatP= 4.95D-05
 IDIUse=3 WtCom= 9.98D-01 WtEn= 1.53D-03
 Coeff-Com:  0.162D-01-0.310D-01-0.891D-01-0.474D-01 0.115D+01
 Coeff-En:   0.000D+00 0.000D+00 0.000D+00 0.000D+00 0.100D+01
 Coeff:      0.162D-01-0.309D-01-0.890D-01-0.473D-01 0.115D+01
 Gap=     0.313 Goal=   None    Shift=    0.000
 RMSDP=2.05D-05 MaxDP=5.16D-04 DE=-5.16D-05 OVMax= 1.52D-03

 Cycle   6  Pass 1  IDiag  1:
 E= -535.648445252507     Delta-E=       -0.000009655022 Rises=F Damp=F
 DIIS: error= 4.04D-05 at cycle   6 NSaved=   6.
 NSaved= 6 IEnMin= 6 EnMin= -535.648445252507     IErMin= 6 ErrMin= 4.04D-05
 ErrMax= 4.04D-05  0.00D+00 EMaxC= 1.00D-01 BMatC= 2.37D-07 BMatP= 3.74D-06
 IDIUse=1 WtCom= 1.00D+00 WtEn= 0.00D+00
 Coeff-Com: -0.215D-02 0.470D-02 0.112D-01-0.133D-01-0.361D+00 0.136D+01
 Coeff:     -0.215D-02 0.470D-02 0.112D-01-0.133D-01-0.361D+00 0.136D+01
 Gap=     0.313 Goal=   None    Shift=    0.000
 RMSDP=6.91D-06 MaxDP=1.46D-04 DE=-9.66D-06 OVMax= 5.02D-04

 Cycle   7  Pass 1  IDiag  1:
 E= -535.648446093933     Delta-E=       -0.000000841427 Rises=F Damp=F
 DIIS: error= 7.12D-06 at cycle   7 NSaved=   7.
 NSaved= 7 IEnMin= 7 EnMin= -535.648446093933     IErMin= 7 ErrMin= 7.12D-06
 ErrMax= 7.12D-06  0.00D+00 EMaxC= 1.00D-01 BMatC= 7.46D-09 BMatP= 2.37D-07
 IDIUse=1 WtCom= 1.00D+00 WtEn= 0.00D+00
 Coeff-Com:  0.252D-04-0.238D-03-0.295D-03 0.460D-02 0.710D-01-0.421D+00
 Coeff-Com:  0.135D+01
 Coeff:      0.252D-04-0.238D-03-0.295D-03 0.460D-02 0.710D-01-0.421D+00
 Coeff:      0.135D+01
 Gap=     0.313 Goal=   None    Shift=    0.000
 RMSDP=1.21D-06 MaxDP=3.01D-05 DE=-8.41D-07 OVMax= 8.17D-05

 Cycle   8  Pass 1  IDiag  1:
 E= -535.648446118358     Delta-E=       -0.000000024425 Rises=F Damp=F
 DIIS: error= 1.63D-06 at cycle   8 NSaved=   8.
 NSaved= 8 IEnMin= 8 EnMin= -535.648446118358     IErMin= 8 ErrMin= 1.63D-06
 ErrMax= 1.63D-06  0.00D+00 EMaxC= 1.00D-01 BMatC= 2.61D-10 BMatP= 7.46D-09
 IDIUse=1 WtCom= 1.00D+00 WtEn= 0.00D+00
 Coeff-Com:  0.591D-04-0.129D-03-0.329D-03 0.197D-03 0.103D-01-0.344D-01
 Coeff-Com: -0.351D-01 0.106D+01
 Coeff:      0.591D-04-0.129D-03-0.329D-03 0.197D-03 0.103D-01-0.344D-01
 Coeff:     -0.351D-01 0.106D+01
 Gap=     0.313 Goal=   None    Shift=    0.000
 RMSDP=1.69D-07 MaxDP=3.85D-06 DE=-2.44D-08 OVMax= 1.16D-05

 Cycle   9  Pass 1  IDiag  1:
 E= -535.648446118970     Delta-E=       -0.000000000612 Rises=F Damp=F
 DIIS: error= 4.59D-07 at cycle   9 NSaved=   9.
 NSaved= 9 IEnMin= 9 EnMin= -535.648446118970     IErMin= 9 ErrMin= 4.59D-07
 ErrMax= 4.59D-07  0.00D+00 EMaxC= 1.00D-01 BMatC= 2.51D-11 BMatP= 2.61D-10
 IDIUse=1 WtCom= 1.00D+00 WtEn= 0.00D+00
 Coeff-Com: -0.134D-04 0.446D-04 0.841D-04-0.407D-03-0.781D-02 0.431D-01
 Coeff-Com: -0.123D+00-0.111D+00 0.120D+01
 Coeff:     -0.134D-04 0.446D-04 0.841D-04-0.407D-03-0.781D-02 0.431D-01
 Coeff:     -0.123D+00-0.111D+00 0.120D+01
 Gap=     0.313 Goal=   None    Shift=    0.000
 RMSDP=5.13D-08 MaxDP=1.01D-06 DE=-6.12D-10 OVMax= 3.97D-06

 Cycle  10  Pass 1  IDiag  1:
 E= -535.648446119038     Delta-E=       -0.000000000068 Rises=F Damp=F
 DIIS: error= 7.97D-08 at cycle  10 NSaved=  10.
 NSaved=10 IEnMin=10 EnMin= -535.648446119038     IErMin=10 ErrMin= 7.97D-08
 ErrMax= 7.97D-08  0.00D+00 EMaxC= 1.00D-01 BMatC= 1.06D-12 BMatP= 2.51D-11
 IDIUse=1 WtCom= 1.00D+00 WtEn= 0.00D+00
 Coeff-Com: -0.106D-05 0.908D-06 0.286D-05 0.246D-04 0.302D-03-0.266D-02
 Coeff-Com:  0.147D-01-0.408D-01-0.110D+00 0.114D+01
 Coeff:     -0.106D-05 0.908D-06 0.286D-05 0.246D-04 0.302D-03-0.266D-02
 Coeff:      0.147D-01-0.408D-01-0.110D+00 0.114D+01
 Gap=     0.313 Goal=   None    Shift=    0.000
 RMSDP=1.50D-08 MaxDP=4.33D-07 DE=-6.82D-11 OVMax= 7.98D-07

 Cycle  11  Pass 1  IDiag  1:
 E= -535.648446119040     Delta-E=       -0.000000000001 Rises=F Damp=F
 DIIS: error= 2.04D-08 at cycle  11 NSaved=  11.
 NSaved=11 IEnMin=11 EnMin= -535.648446119040     IErMin=11 ErrMin= 2.04D-08
 ErrMax= 2.04D-08  0.00D+00 EMaxC= 1.00D-01 BMatC= 5.99D-14 BMatP= 1.06D-12
 IDIUse=1 WtCom= 1.00D+00 WtEn= 0.00D+00
 Coeff-Com:  0.111D-05-0.304D-05-0.567D-05 0.211D-04 0.412D-03-0.216D-02
 Coeff-Com:  0.528D-02 0.996D-02-0.635D-01-0.109D+00 0.116D+01
 Coeff:      0.111D-05-0.304D-05-0.567D-05 0.211D-04 0.412D-03-0.216D-02
 Coeff:      0.528D-02 0.996D-02-0.635D-01-0.109D+00 0.116D+01
 Gap=     0.313 Goal=   None    Shift=    0.000
 RMSDP=5.40D-09 MaxDP=1.85D-07 DE=-1.25D-12 OVMax= 2.07D-07

 SCF Done:  E(RHF) =  -535.648446119     A.U. after   11 cycles
            NFock= 11  Conv=0.54D-08     -V/T= 2.0002
 KE= 5.355448134744D+02 PE=-1.361109846732D+03 EE= 2.507640964816D+02
 Leave Link  502 at Tue Oct 19 16:01:14 2021, MaxMem= 16106127360 cpu:              20.2 elap:               1.5
 (Enter /sw/contrib/gaussian/g16/B01/g16/l801.exe)
 ExpMin= 2.53D-02 ExpMax= 4.56D+05 ExpMxC= 1.44D+03 IAcc=3 IRadAn=         5 AccDes= 0.00D+00
 HarFok:  IExCor=  205 AccDes= 0.00D+00 IRadAn=         5 IDoV=-2 UseB2=F ITyADJ=14
 ICtDFT= 12500011 ScaDFX=  1.000000  1.000000  1.000000  1.000000
 Largest valence mixing into a core orbital is  4.53D-04
 Largest core mixing into a valence orbital is  1.83D-04
 Range of M.O.s used for correlation:     7   142
 NBasis=   142 NAE=    14 NBE=    14 NFC=     6 NFV=     0
 NROrb=    136 NOA=     8 NOB=     8 NVA=   128 NVB=   128

 **** Warning!!: The largest alpha MO coefficient is  0.15239737D+02

 Leave Link  801 at Tue Oct 19 16:01:14 2021, MaxMem= 16106127360 cpu:               2.2 elap:               0.1
 (Enter /sw/contrib/gaussian/g16/B01/g16/l906.exe)
 Frozen-core derivative calculation, NFC=   6 NFV=   0.
 FulOut=F Deriv=T AODrv=F NAtomX=     4
   MMem=         252  MDisk=           8 MDiskD=           8
  W3Min=      326032 MinDsk=      657538 NBas6D=         164
 NBas2D=       13905    NTT=       13530    LW2=     3500000
    MDV= 16105867672 MDiskM=      490971 NBas2p=       13814
 Fully in-core method, ICMem=   205321089.
 IMap=   1   2   3   4   5   6   7   8   9  10  11  12  13  14
 JobTyp=1 Pass  1 fully in-core, NPsUse= 28.
 Compute canonical integrals.
 FoFCou: FMM=F IPFlag=           0 FMFlag=           0 FMFlg1=           0
         NFxFlg=           0 DoJE=F BraDBF=F KetDBF=F FulRan=T
         wScrn=  0.000000 ICntrl=       600 IOpCl=  1 I1Cent=           0 NGrid=           0
         NMat0=    1 NMatS0=  13905 NMatT0=    0 NMatD0=    1 NMtDS0=    0 NMtDT0=    0
 Symmetry not used in FoFCou.
 Spin components of T(2) and E(2):
     alpha-alpha T2 =       0.1962189028D-01 E2=     -0.6011457311D-01
     alpha-beta  T2 =       0.1073693953D+00 E2=     -0.3628821433D+00
     beta-beta   T2 =       0.1962189028D-01 E2=     -0.6011457311D-01
 The integrals were generated   1 times.
 ANorm=    0.1070800250D+01
 E2 =    -0.4831112896D+00 EUMP2 =    -0.53613155740860D+03
 Leave Link  906 at Tue Oct 19 16:01:16 2021, MaxMem= 16106127360 cpu:              55.8 elap:               2.0
 (Enter /sw/contrib/gaussian/g16/B01/g16/l1002.exe)
 Minotr:  Closed shell wavefunction.
          Computing MP2/KS-MP2 derivatives.
          Using Z-Vector for PSCF gradient.
          Skipping F1 and S1 gradient terms here.
          Frozen-core window.
          Direct CPHF calculation.
          Differentiating once with respect to electric field.
                with respect to dipole field.
          Electric field/nuclear overlap derivatives assumed to be zero.
          Requested convergence is 1.0D-10 RMS, and 1.0D-09 maximum.
          NewPWx=F KeepS1=T KeepF1=T KeepIn=T MapXYZ=F SortEE=F KeepMc=T.
 Keep R1 ints in memory in canonical form, NReq=65349028.
 FoFCou: FMM=F IPFlag=           0 FMFlag=           0 FMFlg1=           0
         NFxFlg=           0 DoJE=F BraDBF=F KetDBF=F FulRan=T
         wScrn=  0.000000 ICntrl=       600 IOpCl=  0 I1Cent=           0 NGrid=           0
         NMat0=    1 NMatS0=  10153 NMatT0=    0 NMatD0=    1 NMtDS0=    0 NMtDT0=    0
 Symmetry not used in FoFCou.
 Two-electron integral symmetry not used.
          MDV=   16106127360 using IRadAn=       5.
          Solving linear equations separately, MaxMat=       0.
          There are     1 degrees of freedom in the 1st order CPHF.  IDoFFX=0 NUNeed=     1.
 LinEq1:  Iter=  0 NonCon=     1 RMS=3.01D-03 Max=3.55D-02 NDo=     1
 AX will form     1 AO Fock derivatives at one time.
 LinEq1:  Iter=  1 NonCon=     1 RMS=3.76D-04 Max=5.36D-03 NDo=     1
 LinEq1:  Iter=  2 NonCon=     1 RMS=1.13D-04 Max=1.10D-03 NDo=     1
 LinEq1:  Iter=  3 NonCon=     1 RMS=3.77D-05 Max=3.22D-04 NDo=     1
 LinEq1:  Iter=  4 NonCon=     1 RMS=1.08D-05 Max=9.46D-05 NDo=     1
 LinEq1:  Iter=  5 NonCon=     1 RMS=2.76D-06 Max=2.24D-05 NDo=     1
 LinEq1:  Iter=  6 NonCon=     1 RMS=6.99D-07 Max=8.19D-06 NDo=     1
 LinEq1:  Iter=  7 NonCon=     1 RMS=1.76D-07 Max=1.23D-06 NDo=     1
 LinEq1:  Iter=  8 NonCon=     1 RMS=4.14D-08 Max=4.07D-07 NDo=     1
 LinEq1:  Iter=  9 NonCon=     1 RMS=8.27D-09 Max=8.44D-08 NDo=     1
 LinEq1:  Iter= 10 NonCon=     1 RMS=1.52D-09 Max=1.54D-08 NDo=     1
 LinEq1:  Iter= 11 NonCon=     1 RMS=3.26D-10 Max=3.12D-09 NDo=     1
 LinEq1:  Iter= 12 NonCon=     0 RMS=8.15D-11 Max=8.13D-10 NDo=     1
 Linear equations converged to 1.000D-10 1.000D-09 after    12 iterations.
 End of Minotr F.D. properties file   721 does not exist.
 End of Minotr F.D. properties file   722 does not exist.
 End of Minotr F.D. properties file   788 does not exist.
 Leave Link 1002 at Tue Oct 19 16:01:18 2021, MaxMem= 16106127360 cpu:              26.9 elap:               2.0
 (Enter /sw/contrib/gaussian/g16/B01/g16/l601.exe)
 Copying SCF densities to generalized density rwf, IOpCl= 0 IROHF=0.

 **********************************************************************

            Population analysis using the MP2 Density.

 **********************************************************************

 Alpha  occ. eigenvalues -- -104.52749 -20.38051 -10.25191  -7.71801  -7.71795
 Alpha  occ. eigenvalues --   -7.71793  -1.16184  -0.76199  -0.51830  -0.40880
 Alpha  occ. eigenvalues --   -0.32566  -0.17909  -0.17486  -0.17408
 Alpha virt. eigenvalues --    0.13853   0.18095   0.25679   0.26688   0.27947
 Alpha virt. eigenvalues --    0.28822   0.30361   0.30699   0.35203   0.39782
 Alpha virt. eigenvalues --    0.41058   0.42275   0.43357   0.48940   0.54399
 Alpha virt. eigenvalues --    0.56234   0.58331   0.60070   0.61413   0.66187
 Alpha virt. eigenvalues --    0.67388   0.69209   0.72694   0.79787   0.86096
 Alpha virt. eigenvalues --    0.86768   0.88599   0.90364   0.90814   0.92329
 Alpha virt. eigenvalues --    0.99653   1.03416   1.06444   1.06993   1.09819
 Alpha virt. eigenvalues --    1.10441   1.10497   1.12923   1.18132   1.18699
 Alpha virt. eigenvalues --    1.20297   1.20406   1.20809   1.25116   1.28380
 Alpha virt. eigenvalues --    1.28999   1.31207   1.40388   1.41923   1.44784
 Alpha virt. eigenvalues --    1.45019   1.49350   1.55654   1.57072   1.60215
 Alpha virt. eigenvalues --    1.65773   1.70124   1.73070   1.77898   1.84870
 Alpha virt. eigenvalues --    1.85091   1.89666   2.08709   2.12212   2.24085
 Alpha virt. eigenvalues --    2.46421   2.50262   2.54190   2.61362   2.62583
 Alpha virt. eigenvalues --    2.64532   2.67932   2.72803   2.80851   2.81384
 Alpha virt. eigenvalues --    2.85788   2.89382   2.91303   2.92401   2.97035
 Alpha virt. eigenvalues --    2.99335   3.00107   3.07987   3.12962   3.15831
 Alpha virt. eigenvalues --    3.34777   3.34788   3.37426   3.39355   3.39917
 Alpha virt. eigenvalues --    3.51536   3.53023   3.58819   3.88173   4.15802
 Alpha virt. eigenvalues --    4.25207   4.34018   4.40574   4.45146   4.47448
 Alpha virt. eigenvalues --    4.56858   4.57702   4.62883   4.76822   4.96162
 Alpha virt. eigenvalues --    5.10298   5.30967   5.37789   5.46763   5.50684
 Alpha virt. eigenvalues --    5.69802   5.80467   6.18874   6.43520   6.71071
 Alpha virt. eigenvalues --    6.92958   7.12521   7.30326   7.43715   7.46006
 Alpha virt. eigenvalues --    7.48883   7.55027   7.62339   7.78786   8.07552
 Alpha virt. eigenvalues --    8.14460   8.96908  16.03822
          Condensed to atoms (all electrons):
               1          2          3          4
     1  O    8.240812   0.209011  -0.067387   0.144412
     2  H    0.209011   0.603131   0.004881   0.015083
     3  Cl  -0.067387   0.004881  17.931665   0.050008
     4  H    0.144412   0.015083   0.050008   0.512376
 Mulliken charges:
               1
     1  O   -0.526849
     2  H    0.167894
     3  Cl  -0.919167
     4  H    0.278121
 Sum of Mulliken charges =  -1.00000
 Mulliken charges with hydrogens summed into heavy atoms:
               1
     1  O   -0.080833
     3  Cl  -0.919167
 Electronic spatial extent (au):  <R**2>=            670.0765
 Charge=             -1.0000 electrons
 Dipole moment (field-independent basis, Debye):
    X=              3.7443    Y=             11.6957    Z=              0.2109  Tot=             12.2822
 Quadrupole moment (field-independent basis, Debye-Ang):
   XX=            -24.1939   YY=            -63.5371   ZZ=            -25.0035
   XY=             -7.6013   XZ=             -0.0953   YZ=             -0.2153
 Traceless Quadrupole moment (field-independent basis, Debye-Ang):
   XX=             13.3842   YY=            -25.9589   ZZ=             12.5747
   XY=             -7.6013   XZ=             -0.0953   YZ=             -0.2153
 Octapole moment (field-independent basis, Debye-Ang**2):
  XXX=             32.9744  YYY=            275.2997  ZZZ=             -0.8888  XYY=             34.2046
  XXY=             56.7730  XXZ=             -0.3478  XZZ=              9.9902  YZZ=             51.7024
  YYZ=             -1.1101  XYZ=             -0.1738
 Hexadecapole moment (field-independent basis, Debye-Ang**3):
 XXXX=            -76.8778 YYYY=          -1331.3979 ZZZZ=            -37.8463 XXXY=            -99.2092
 XXXZ=              0.1619 YYYX=           -168.5353 YYYZ=              4.4242 ZZZX=              0.1494
 ZZZY=              1.0358 XXYY=           -189.9327 XXZZ=            -19.3689 YYZZ=           -168.3839
 XXYZ=              0.4802 YYXZ=              0.7293 ZZXY=            -32.0549
 N-N= 3.915249065737D+01 E-N=-1.361054319711D+03  KE= 5.360260353628D+02
 No NMR shielding tensors so no spin-rotation constants.
 Leave Link  601 at Tue Oct 19 16:01:18 2021, MaxMem= 16106127360 cpu:               4.5 elap:               0.2
 (Enter /sw/contrib/gaussian/g16/B01/g16/l607.exe)
 ******************************Gaussian NBO Version 3.1******************************
             N A T U R A L   A T O M I C   O R B I T A L   A N D
          N A T U R A L   B O N D   O R B I T A L   A N A L Y S I S
 ******************************Gaussian NBO Version 3.1******************************
       /RESON  / : Allow strongly delocalized NBO set

 Analyzing the MP2 density

 Job title: title                                                           

 Storage needed:     61222 in NPA,     81148 in NBO (********** available)
 GSVD:  LWork=       -1046 too small for GESVD, short by       42557 words or       42557 for optimal perf.


 NATURAL POPULATIONS:  Natural atomic orbital occupancies 
                                                          
   NAO  Atom  No  lang   Type(AO)    Occupancy
 --------------------------------------------
     1    O    1  S      Cor( 1S)     1.99967
     2    O    1  S      Val( 2S)     1.74285
     3    O    1  S      Ryd( 3S)     0.00591
     4    O    1  S      Ryd( 4S)     0.00048
     5    O    1  S      Ryd( 5S)     0.00017
     6    O    1  px     Val( 2p)     1.52185
     7    O    1  px     Ryd( 3p)     0.00985
     8    O    1  px     Ryd( 4p)     0.00052
     9    O    1  px     Ryd( 5p)     0.00007
    10    O    1  py     Val( 2p)     1.68905
    11    O    1  py     Ryd( 3p)     0.01198
    12    O    1  py     Ryd( 4p)     0.00061
    13    O    1  py     Ryd( 5p)     0.00010
    14    O    1  pz     Val( 2p)     1.93097
    15    O    1  pz     Ryd( 3p)     0.02014
    16    O    1  pz     Ryd( 4p)     0.00060
    17    O    1  pz     Ryd( 5p)     0.00003
    18    O    1  dxy    Ryd( 3d)     0.00814
    19    O    1  dxy    Ryd( 4d)     0.00041
    20    O    1  dxy    Ryd( 5d)     0.00006
    21    O    1  dxz    Ryd( 3d)     0.00828
    22    O    1  dxz    Ryd( 4d)     0.00045
    23    O    1  dxz    Ryd( 5d)     0.00006
    24    O    1  dyz    Ryd( 3d)     0.00843
    25    O    1  dyz    Ryd( 4d)     0.00047
    26    O    1  dyz    Ryd( 5d)     0.00010
    27    O    1  dx2y2  Ryd( 3d)     0.01193
    28    O    1  dx2y2  Ryd( 4d)     0.00031
    29    O    1  dx2y2  Ryd( 5d)     0.00009
    30    O    1  dz2    Ryd( 3d)     0.00875
    31    O    1  dz2    Ryd( 4d)     0.00045
    32    O    1  dz2    Ryd( 5d)     0.00010
    33    O    1  f(0)   Ryd( 4f)     0.00060
    34    O    1  f(0)   Ryd( 5f)     0.00009
    35    O    1  f(C1)  Ryd( 4f)     0.00054
    36    O    1  f(C1)  Ryd( 5f)     0.00008
    37    O    1  f(S1)  Ryd( 4f)     0.00059
    38    O    1  f(S1)  Ryd( 5f)     0.00010
    39    O    1  f(C2)  Ryd( 4f)     0.00047
    40    O    1  f(C2)  Ryd( 5f)     0.00009
    41    O    1  f(S2)  Ryd( 4f)     0.00048
    42    O    1  f(S2)  Ryd( 5f)     0.00008
    43    O    1  f(C3)  Ryd( 4f)     0.00042
    44    O    1  f(C3)  Ryd( 5f)     0.00011
    45    O    1  f(S3)  Ryd( 4f)     0.00040
    46    O    1  f(S3)  Ryd( 5f)     0.00009

    47    H    2  S      Val( 1S)     0.55102
    48    H    2  S      Ryd( 2S)     0.00166
    49    H    2  S      Ryd( 3S)     0.00018
    50    H    2  S      Ryd( 4S)     0.00006
    51    H    2  px     Ryd( 2p)     0.00156
    52    H    2  px     Ryd( 3p)     0.00053
    53    H    2  px     Ryd( 4p)     0.00014
    54    H    2  py     Ryd( 2p)     0.00202
    55    H    2  py     Ryd( 3p)     0.00022
    56    H    2  py     Ryd( 4p)     0.00009
    57    H    2  pz     Ryd( 2p)     0.00485
    58    H    2  pz     Ryd( 3p)     0.00019
    59    H    2  pz     Ryd( 4p)     0.00006
    60    H    2  dxy    Ryd( 3d)     0.00006
    61    H    2  dxy    Ryd( 4d)     0.00005
    62    H    2  dxz    Ryd( 3d)     0.00008
    63    H    2  dxz    Ryd( 4d)     0.00006
    64    H    2  dyz    Ryd( 3d)     0.00012
    65    H    2  dyz    Ryd( 4d)     0.00004
    66    H    2  dx2y2  Ryd( 3d)     0.00009
    67    H    2  dx2y2  Ryd( 4d)     0.00004
    68    H    2  dz2    Ryd( 3d)     0.00011
    69    H    2  dz2    Ryd( 4d)     0.00006

    70   Cl    3  S      Cor( 1S)     2.00001
    71   Cl    3  S      Cor( 2S)     2.00000
    72   Cl    3  S      Val( 3S)     1.97696
    73   Cl    3  S      Ryd( 4S)     0.00250
    74   Cl    3  S      Ryd( 5S)     0.00027
    75   Cl    3  S      Ryd( 6S)     0.00007
    76   Cl    3  px     Cor( 2p)     2.00003
    77   Cl    3  px     Val( 3p)     1.95064
    78   Cl    3  px     Ryd( 4p)     0.01326
    79   Cl    3  px     Ryd( 5p)     0.00058
    80   Cl    3  px     Ryd( 6p)     0.00002
    81   Cl    3  py     Cor( 2p)     2.00002
    82   Cl    3  py     Val( 3p)     1.91531
    83   Cl    3  py     Ryd( 4p)     0.01149
    84   Cl    3  py     Ryd( 5p)     0.00056
    85   Cl    3  py     Ryd( 6p)     0.00009
    86   Cl    3  pz     Cor( 2p)     2.00003
    87   Cl    3  pz     Val( 3p)     1.95123
    88   Cl    3  pz     Ryd( 4p)     0.01327
    89   Cl    3  pz     Ryd( 5p)     0.00058
    90   Cl    3  pz     Ryd( 6p)     0.00001
    91   Cl    3  dxy    Ryd( 3d)     0.01840
    92   Cl    3  dxy    Ryd( 4d)     0.00076
    93   Cl    3  dxy    Ryd( 5d)     0.00011
    94   Cl    3  dxz    Ryd( 3d)     0.01829
    95   Cl    3  dxz    Ryd( 4d)     0.00098
    96   Cl    3  dxz    Ryd( 5d)     0.00011
    97   Cl    3  dyz    Ryd( 3d)     0.01844
    98   Cl    3  dyz    Ryd( 4d)     0.00078
    99   Cl    3  dyz    Ryd( 5d)     0.00011
   100   Cl    3  dx2y2  Ryd( 3d)     0.01814
   101   Cl    3  dx2y2  Ryd( 4d)     0.00087
   102   Cl    3  dx2y2  Ryd( 5d)     0.00012
   103   Cl    3  dz2    Ryd( 3d)     0.01823
   104   Cl    3  dz2    Ryd( 4d)     0.00094
   105   Cl    3  dz2    Ryd( 5d)     0.00011
   106   Cl    3  f(0)   Ryd( 4f)     0.00128
   107   Cl    3  f(0)   Ryd( 5f)     0.00015
   108   Cl    3  f(C1)  Ryd( 4f)     0.00129
   109   Cl    3  f(C1)  Ryd( 5f)     0.00014
   110   Cl    3  f(S1)  Ryd( 4f)     0.00128
   111   Cl    3  f(S1)  Ryd( 5f)     0.00016
   112   Cl    3  f(C2)  Ryd( 4f)     0.00128
   113   Cl    3  f(C2)  Ryd( 5f)     0.00015
   114   Cl    3  f(S2)  Ryd( 4f)     0.00130
   115   Cl    3  f(S2)  Ryd( 5f)     0.00015
   116   Cl    3  f(C3)  Ryd( 4f)     0.00127
   117   Cl    3  f(C3)  Ryd( 5f)     0.00015
   118   Cl    3  f(S3)  Ryd( 4f)     0.00127
   119   Cl    3  f(S3)  Ryd( 5f)     0.00016

   120    H    4  S      Val( 1S)     0.48545
   121    H    4  S      Ryd( 2S)     0.00657
   122    H    4  S      Ryd( 3S)     0.00033
   123    H    4  S      Ryd( 4S)     0.00009
   124    H    4  px     Ryd( 2p)     0.00321
   125    H    4  px     Ryd( 3p)     0.00039
   126    H    4  px     Ryd( 4p)     0.00008
   127    H    4  py     Ryd( 2p)     0.00434
   128    H    4  py     Ryd( 3p)     0.00055
   129    H    4  py     Ryd( 4p)     0.00019
   130    H    4  pz     Ryd( 2p)     0.00341
   131    H    4  pz     Ryd( 3p)     0.00046
   132    H    4  pz     Ryd( 4p)     0.00009
   133    H    4  dxy    Ryd( 3d)     0.00017
   134    H    4  dxy    Ryd( 4d)     0.00009
   135    H    4  dxz    Ryd( 3d)     0.00014
   136    H    4  dxz    Ryd( 4d)     0.00005
   137    H    4  dyz    Ryd( 3d)     0.00019
   138    H    4  dyz    Ryd( 4d)     0.00009
   139    H    4  dx2y2  Ryd( 3d)     0.00017
   140    H    4  dx2y2  Ryd( 4d)     0.00009
   141    H    4  dz2    Ryd( 3d)     0.00016
   142    H    4  dz2    Ryd( 4d)     0.00007


 Summary of Natural Population Analysis:                  
                                                          
                                       Natural Population 
                Natural  -----------------------------------------------
    Atom  No    Charge         Core      Valence    Rydberg      Total
 -----------------------------------------------------------------------
      O    1   -0.98702      1.99967     6.88472    0.10263     8.98702
      H    2    0.43672      0.00000     0.55102    0.01226     0.56328
     Cl    3   -0.94334     10.00009     7.79415    0.14911    17.94334
      H    4    0.49363      0.00000     0.48545    0.02092     0.50637
 =======================================================================
   * Total *   -1.00000     11.99976    15.71533    0.28491    28.00000

                                 Natural Population      
 --------------------------------------------------------
   Core                      11.99976 ( 99.9980% of  12)
   Valence                   15.71533 ( 98.2208% of  16)
   Natural Minimal Basis     27.71509 ( 98.9825% of  28)
   Natural Rydberg Basis      0.28491 (  1.0175% of  28)
 --------------------------------------------------------

    Atom  No          Natural Electron Configuration
 ----------------------------------------------------------------------------
      O    1      [core]2S( 1.74)2p( 5.14)3S( 0.01)3p( 0.04)3d( 0.05)
      H    2            1S( 0.55)2p( 0.01)
     Cl    3      [core]3S( 1.98)3p( 5.82)3d( 0.09)4p( 0.04)4f( 0.01)
      H    4            1S( 0.49)2S( 0.01)2p( 0.01)


 NATURAL BOND ORBITAL ANALYSIS:
 Warning:  a bond orbital has occupanc of -0.00003

                       Occupancies       Lewis Structure    Low   High
           Occ.    -------------------  -----------------   occ   occ
  Cycle   Thresh.   Lewis   Non-Lewis     CR  BD  3C  LP    (L)   (NL)   Dev
 =============================================================================
   1(1)    1.90    27.65798   0.34202      6   2   0   6     0      0    0.06
 -----------------------------------------------------------------------------

 Structure accepted: No low occupancy Lewis orbitals

 --------------------------------------------------------
   Core                     11.99976 ( 99.998% of  12)
   Valence Lewis            15.65822 ( 97.864% of  16)
  ==================       ============================
   Total Lewis              27.65798 ( 98.779% of  28)
  -----------------------------------------------------
   Valence non-Lewis         0.08318 (  0.297% of  28)
   Rydberg non-Lewis         0.25883 (  0.924% of  28)
  ==================       ============================
   Total non-Lewis           0.34202 (  1.221% of  28)
 --------------------------------------------------------


       (Occupancy)   Bond orbital/ Coefficients/ Hybrids
 ---------------------------------------------------------------------------------
     1. (1.96578) BD ( 1) O   1 - H   2  
                ( 72.73%)   0.8528* O   1 s( 20.92%)p 3.76( 78.61%)d 0.02(  0.46%)
                                                  f 0.00(  0.01%)
                                            0.0002  0.4574 -0.0050 -0.0015 -0.0024
                                            0.8841 -0.0317  0.0093 -0.0031  0.0545
                                           -0.0138  0.0008 -0.0032 -0.0099  0.0042
                                           -0.0002  0.0005 -0.0180  0.0030  0.0006
                                            0.0068 -0.0013 -0.0007 -0.0019 -0.0001
                                           -0.0012  0.0545 -0.0039 -0.0040 -0.0347
                                            0.0019 -0.0001  0.0001 -0.0000 -0.0092
                                           -0.0001 -0.0002  0.0001 -0.0007  0.0004
                                           -0.0031  0.0016  0.0041  0.0036  0.0019
                                           -0.0007
                ( 27.27%)   0.5222* H   2 s( 99.88%)p 0.00(  0.12%)d 0.00(  0.00%)
                                            0.9994  0.0035 -0.0001  0.0002  0.0183
                                            0.0273 -0.0050 -0.0083 -0.0035 -0.0021
                                            0.0055  0.0017  0.0005 -0.0003  0.0024
                                            0.0001 -0.0007 -0.0013 -0.0004 -0.0012
                                            0.0013 -0.0007 -0.0008
     2. (1.96801) BD ( 1) O   1 - H   4  
                ( 77.76%)   0.8818* O   1 s( 26.35%)p 2.78( 73.23%)d 0.02(  0.41%)
                                                  f 0.00(  0.01%)
                                           -0.0003 -0.5133  0.0017  0.0015  0.0011
                                            0.2113 -0.0181  0.0018 -0.0013  0.7952
                                           -0.0137  0.0063 -0.0018 -0.2339  0.0026
                                           -0.0023  0.0021  0.0041 -0.0026 -0.0012
                                           -0.0011  0.0009  0.0007  0.0318 -0.0024
                                            0.0001  0.0482 -0.0034 -0.0007  0.0272
                                           -0.0016  0.0014  0.0054 -0.0004 -0.0015
                                           -0.0000 -0.0060  0.0003  0.0039  0.0005
                                           -0.0016 -0.0005 -0.0024 -0.0015 -0.0011
                                           -0.0019
                ( 22.24%)   0.4716* H   4 s( 99.89%)p 0.00(  0.10%)d 0.00(  0.00%)
                                           -0.9992 -0.0246 -0.0009  0.0003 -0.0171
                                           -0.0023 -0.0011 -0.0037 -0.0228 -0.0085
                                           -0.0091  0.0070  0.0025  0.0019  0.0018
                                           -0.0008 -0.0005  0.0006 -0.0007 -0.0034
                                            0.0009  0.0004  0.0013
     3. (1.99967) CR ( 1) O   1           s(100.00%)
                                            1.0000 -0.0004  0.0000  0.0000  0.0000
                                           -0.0001  0.0000 -0.0000  0.0000  0.0001
                                           -0.0000  0.0000  0.0000 -0.0000  0.0000
                                           -0.0000  0.0000 -0.0000 -0.0000 -0.0000
                                            0.0000  0.0000  0.0000  0.0000 -0.0000
                                            0.0000 -0.0000 -0.0000  0.0000  0.0000
                                           -0.0000  0.0000  0.0000  0.0000  0.0000
                                            0.0000 -0.0000 -0.0000  0.0000  0.0000
                                           -0.0000 -0.0000 -0.0000 -0.0000 -0.0000
                                           -0.0000
     4. (2.00001) CR ( 1)Cl   3           s(100.00%)
                                            1.0000 -0.0000  0.0000  0.0000 -0.0000
                                            0.0000  0.0000  0.0000  0.0000 -0.0000
                                            0.0000  0.0000  0.0000 -0.0000 -0.0000
                                            0.0000  0.0000  0.0000  0.0000 -0.0000
                                            0.0000  0.0000  0.0000  0.0000  0.0000
                                            0.0000 -0.0000  0.0000  0.0000  0.0000
                                           -0.0000 -0.0000  0.0000 -0.0000 -0.0000
                                           -0.0000 -0.0000 -0.0000 -0.0000 -0.0000
                                           -0.0000 -0.0000 -0.0000 -0.0000  0.0000
                                            0.0000 -0.0000 -0.0000 -0.0000 -0.0000
     5. (2.00000) CR ( 2)Cl   3           s(100.00%)
                                           -0.0000  1.0000  0.0000  0.0000 -0.0000
                                            0.0000  0.0000  0.0000  0.0000 -0.0000
                                            0.0000  0.0000  0.0000 -0.0000 -0.0000
                                            0.0000  0.0000  0.0000  0.0000 -0.0000
                                            0.0000  0.0000  0.0000  0.0000  0.0000
                                            0.0000  0.0000  0.0000  0.0000  0.0000
                                           -0.0000 -0.0000  0.0000 -0.0000 -0.0000
                                           -0.0000 -0.0000 -0.0000 -0.0000 -0.0000
                                           -0.0000 -0.0000 -0.0000 -0.0000  0.0000
                                            0.0000 -0.0000 -0.0000 -0.0000 -0.0000
     6. (2.00003) CR ( 3)Cl   3           s(  0.00%)p 1.00(100.00%)
                                            0.0000  0.0000 -0.0000 -0.0000  0.0000
                                           -0.0000  1.0000  0.0000  0.0000  0.0000
                                           -0.0000 -0.0000 -0.0000  0.0000  0.0000
                                           -0.0000 -0.0000 -0.0000 -0.0000  0.0000
                                           -0.0000  0.0000  0.0000 -0.0000  0.0000
                                            0.0000  0.0000 -0.0000 -0.0000 -0.0000
                                            0.0000  0.0000  0.0000  0.0000  0.0000
                                           -0.0000  0.0000  0.0000 -0.0000 -0.0000
                                            0.0000  0.0000  0.0000  0.0000  0.0000
                                            0.0000 -0.0000 -0.0000  0.0000  0.0000
     7. (2.00002) CR ( 4)Cl   3           s(  0.00%)p 1.00(100.00%)
                                            0.0000  0.0000 -0.0000 -0.0000 -0.0000
                                           -0.0000 -0.0000 -0.0000 -0.0000  0.0000
                                           -0.0000  1.0000 -0.0001  0.0000  0.0000
                                           -0.0000 -0.0000 -0.0000 -0.0000  0.0000
                                           -0.0000 -0.0000 -0.0000 -0.0000 -0.0000
                                           -0.0000 -0.0000 -0.0000 -0.0000 -0.0000
                                            0.0000  0.0000 -0.0000  0.0000  0.0000
                                            0.0000  0.0000  0.0000  0.0000  0.0000
                                            0.0000  0.0000  0.0000  0.0000 -0.0000
                                           -0.0000  0.0000  0.0000  0.0000  0.0000
     8. (2.00003) CR ( 5)Cl   3           s(  0.00%)p 1.00(100.00%)
                                            0.0000  0.0000 -0.0000 -0.0000  0.0000
                                           -0.0000 -0.0000 -0.0000 -0.0000  0.0000
                                           -0.0000 -0.0000 -0.0000  0.0000  0.0000
                                           -0.0000  1.0000  0.0000 -0.0000  0.0000
                                           -0.0000 -0.0000 -0.0000 -0.0000  0.0000
                                            0.0000  0.0000  0.0000 -0.0000 -0.0000
                                            0.0000  0.0000 -0.0000  0.0000  0.0000
                                            0.0000 -0.0000 -0.0000  0.0000  0.0000
                                            0.0000  0.0000 -0.0000 -0.0000  0.0000
                                            0.0000  0.0000  0.0000  0.0000  0.0000
     9. (1.96987) LP ( 1) O   1           s( 52.64%)p 0.90( 47.24%)d 0.00(  0.11%)
                                                  f 0.00(  0.00%)
                                            0.0002  0.7256  0.0028  0.0016  0.0014
                                           -0.4088 -0.0046  0.0022  0.0000  0.5296
                                            0.0085 -0.0047  0.0009 -0.1572 -0.0025
                                            0.0011  0.0005  0.0276 -0.0037  0.0015
                                           -0.0091  0.0015  0.0002  0.0088 -0.0013
                                           -0.0006  0.0038  0.0001  0.0015  0.0114
                                           -0.0016 -0.0010  0.0019 -0.0006  0.0025
                                           -0.0005 -0.0020  0.0006  0.0010 -0.0005
                                            0.0017 -0.0009  0.0009 -0.0014  0.0012
                                           -0.0003
    10. (1.95955) LP ( 2) O   1           s(  0.00%)p 1.00( 99.79%)d 0.00(  0.19%)
                                                  f 0.00(  0.01%)
                                           -0.0000 -0.0016  0.0049  0.0037 -0.0005
                                           -0.0057  0.0007 -0.0001  0.0002  0.2821
                                            0.0076 -0.0016  0.0005  0.9578  0.0279
                                           -0.0068  0.0033  0.0094 -0.0011  0.0003
                                            0.0322 -0.0035  0.0007 -0.0218  0.0017
                                           -0.0042  0.0076 -0.0007  0.0010  0.0157
                                           -0.0020  0.0005 -0.0072  0.0018 -0.0009
                                            0.0004 -0.0064  0.0025  0.0006  0.0009
                                            0.0018 -0.0004 -0.0005 -0.0001  0.0002
                                            0.0001
    11. (1.97933) LP ( 1)Cl   3           s( 96.63%)p 0.03(  3.37%)d 0.00(  0.00%)
                                                  f 0.00(  0.00%)
                                            0.0000  0.0000  0.9830 -0.0003  0.0000
                                           -0.0001  0.0000 -0.0365  0.0004 -0.0001
                                            0.0001  0.0000 -0.1774  0.0009 -0.0006
                                            0.0003  0.0000 -0.0297  0.0002 -0.0001
                                            0.0001  0.0004  0.0002 -0.0001  0.0000
                                            0.0000 -0.0000  0.0003  0.0002 -0.0001
                                           -0.0008 -0.0003  0.0003 -0.0007 -0.0002
                                            0.0002 -0.0002 -0.0001 -0.0001 -0.0001
                                           -0.0004 -0.0002 -0.0002 -0.0002  0.0001
                                            0.0001 -0.0003 -0.0002 -0.0004 -0.0002
    12. (1.95270) LP ( 2)Cl   3           s(  0.00%)p 1.00( 99.99%)d 0.00(  0.00%)
                                                  f 0.00(  0.00%)
                                           -0.0000 -0.0000  0.0032  0.0003 -0.0010
                                            0.0011 -0.0000  0.2553  0.0005  0.0003
                                           -0.0002 -0.0000  0.1259 -0.0006 -0.0002
                                            0.0003  0.0000 -0.9586 -0.0003 -0.0008
                                            0.0001  0.0021  0.0006 -0.0001 -0.0018
                                           -0.0009 -0.0005 -0.0050 -0.0009  0.0008
                                            0.0001  0.0004  0.0006 -0.0030 -0.0014
                                           -0.0007  0.0012  0.0008 -0.0004 -0.0003
                                           -0.0013 -0.0009  0.0012  0.0007 -0.0006
                                           -0.0005 -0.0006 -0.0003  0.0001  0.0001
    13. (1.95249) LP ( 3)Cl   3           s(  0.00%)p 1.00( 99.99%)d 0.00(  0.01%)
                                                  f 0.00(  0.00%)
                                           -0.0000 -0.0000  0.0024 -0.0002 -0.0020
                                            0.0016  0.0000 -0.9445 -0.0017 -0.0011
                                            0.0006 -0.0000  0.2441 -0.0005 -0.0002
                                            0.0007  0.0000 -0.2195  0.0000 -0.0002
                                            0.0000 -0.0057 -0.0011  0.0006 -0.0024
                                           -0.0012 -0.0007 -0.0006  0.0000  0.0003
                                           -0.0043 -0.0015 -0.0004 -0.0001  0.0003
                                            0.0004  0.0003  0.0002  0.0005  0.0004
                                           -0.0004 -0.0002 -0.0001 -0.0001 -0.0009
                                           -0.0007  0.0014  0.0008 -0.0015 -0.0010
    14. (1.91049) LP ( 4)Cl   3           s(  3.37%)p28.70( 96.61%)d 0.01(  0.03%)
                                                  f 0.00(  0.00%)
                                           -0.0000 -0.0000  0.1835  0.0015 -0.0000
                                            0.0005  0.0000  0.2032  0.0003 -0.0004
                                            0.0002  0.0001  0.9449 -0.0020 -0.0020
                                            0.0006  0.0000  0.1788  0.0012 -0.0004
                                            0.0002  0.0062  0.0016  0.0002  0.0016
                                            0.0004  0.0000  0.0068  0.0019  0.0003
                                           -0.0110 -0.0022  0.0005 -0.0070 -0.0017
                                           -0.0001 -0.0012 -0.0006 -0.0005 -0.0003
                                           -0.0020 -0.0011 -0.0014 -0.0007  0.0006
                                            0.0002 -0.0017 -0.0007 -0.0021 -0.0009
    15. (0.01948) RY*( 1) O   1           s(  0.04%)p99.99( 98.47%)d36.11(  1.47%)
                                                  f 0.50(  0.02%)
                                           -0.0000 -0.0004  0.0178  0.0094 -0.0011
                                            0.0005 -0.0022 -0.0007  0.0002 -0.0088
                                            0.2781  0.0094 -0.0056 -0.0327  0.9513
                                            0.0288 -0.0149  0.0293 -0.0042 -0.0010
                                            0.0953 -0.0140 -0.0057 -0.0498  0.0098
                                            0.0008  0.0161 -0.0031 -0.0014  0.0395
                                           -0.0082 -0.0053 -0.0058  0.0069  0.0009
                                            0.0005 -0.0068  0.0079 -0.0024  0.0012
                                           -0.0010 -0.0009  0.0011 -0.0006 -0.0002
                                           -0.0000
    16. (0.01506) RY*( 2) O   1           s( 20.58%)p 3.73( 76.75%)d 0.13(  2.59%)
                                                  f 0.00(  0.09%)
                                            0.0000 -0.0096  0.4536  0.0004  0.0024
                                            0.0076 -0.4800 -0.0136  0.0060 -0.0088
                                            0.7006  0.0096 -0.0098  0.0017 -0.2136
                                           -0.0059  0.0061  0.1485 -0.0156 -0.0008
                                           -0.0509  0.0067  0.0036  0.0191 -0.0043
                                            0.0007 -0.0061  0.0037  0.0039  0.0187
                                           -0.0100 -0.0033 -0.0026 -0.0004  0.0004
                                           -0.0002  0.0015  0.0014 -0.0062  0.0015
                                            0.0093 -0.0062  0.0198 -0.0120  0.0113
                                           -0.0039
    17. (0.00698) RY*( 3) O   1           s(  1.53%)p46.55( 71.13%)d17.58( 26.85%)
                                                  f 0.32(  0.49%)
                                            0.0000 -0.0004  0.1153 -0.0422  0.0138
                                           -0.0593 -0.6883 -0.0406  0.0211 -0.0353
                                           -0.4618 -0.0203  0.0009  0.0079  0.1291
                                            0.0097 -0.0118 -0.2101 -0.0094 -0.0030
                                           -0.0196 -0.0007 -0.0018 -0.0041  0.0096
                                            0.0099  0.4666  0.0419  0.0241  0.0598
                                            0.0044  0.0049  0.0079 -0.0015 -0.0283
                                            0.0149 -0.0200  0.0101  0.0103 -0.0038
                                           -0.0048  0.0006  0.0229 -0.0153 -0.0440
                                            0.0221
    18. (0.00621) RY*( 4) O   1           s(  6.89%)p 0.47(  3.22%)d12.90( 88.84%)
                                                  f 0.15(  1.05%)
                                           -0.0000  0.0102  0.2620  0.0100  0.0039
                                            0.0110  0.1642  0.0104 -0.0090  0.0208
                                            0.0611  0.0009 -0.0105 -0.0115 -0.0239
                                            0.0016 -0.0016 -0.6394 -0.0203  0.0004
                                           -0.2128 -0.0172 -0.0072 -0.5161 -0.0219
                                            0.0029 -0.1024 -0.0009 -0.0011  0.3943
                                            0.0278  0.0070 -0.0162  0.0106  0.0034
                                            0.0036 -0.0199  0.0106 -0.0559  0.0310
                                           -0.0174  0.0079 -0.0562  0.0227 -0.0345
                                            0.0152
    19. (0.00613) RY*( 5) O   1           s(  6.17%)p 0.01(  0.07%)d15.04( 92.75%)
                                                  f 0.16(  1.01%)
                                           -0.0000  0.0097  0.2481 -0.0047  0.0048
                                           -0.0084 -0.0038 -0.0029 -0.0017  0.0137
                                           -0.0179 -0.0069  0.0013 -0.0017  0.0009
                                           -0.0021 -0.0026 -0.5371 -0.0125  0.0029
                                            0.5418  0.0267  0.0056  0.4876  0.0337
                                            0.0088 -0.2768 -0.0100  0.0023 -0.1698
                                           -0.0044  0.0067 -0.0084  0.0057 -0.0055
                                            0.0068  0.0446 -0.0248  0.0532 -0.0245
                                           -0.0243  0.0125 -0.0517  0.0189 -0.0108
                                            0.0021
    20. (0.00589) RY*( 6) O   1           s(  0.09%)p18.35(  1.63%)d99.99( 97.42%)
                                                  f 9.76(  0.87%)
                                           -0.0000  0.0011  0.0298 -0.0003  0.0007
                                            0.0020  0.0177  0.0004 -0.0009 -0.0110
                                           -0.0347 -0.0019 -0.0064 -0.0382 -0.1143
                                           -0.0079 -0.0040  0.2593  0.0179  0.0038
                                            0.7857  0.0575  0.0148 -0.4354 -0.0290
                                           -0.0003  0.1262  0.0098 -0.0003  0.2808
                                            0.0211  0.0019 -0.0561  0.0291  0.0206
                                           -0.0100 -0.0337  0.0180  0.0309 -0.0160
                                           -0.0299  0.0138  0.0137 -0.0064  0.0117
                                           -0.0055
    21. (0.00568) RY*( 7) O   1           s(  7.32%)p 0.66(  4.85%)d11.92( 87.23%)
                                                  f 0.08(  0.60%)
                                           -0.0000  0.0216  0.2695 -0.0096  0.0039
                                            0.0323  0.1422  0.0089 -0.0041 -0.0378
                                           -0.1547 -0.0165 -0.0079  0.0097  0.0370
                                            0.0016 -0.0001  0.2367  0.0158  0.0023
                                           -0.0934 -0.0072 -0.0023  0.4826  0.0435
                                            0.0055 -0.0094 -0.0001 -0.0028  0.7536
                                            0.0657  0.0072  0.0343 -0.0174  0.0431
                                           -0.0202 -0.0301  0.0157  0.0191 -0.0097
                                            0.0230 -0.0110 -0.0027  0.0011  0.0045
                                           -0.0005
    22. (0.00319) RY*( 8) O   1           s( 13.51%)p 1.71( 23.13%)d 4.62( 62.38%)
                                                  f 0.07(  0.99%)
                                           -0.0000 -0.0053  0.3675  0.0006  0.0018
                                            0.0305 -0.2081 -0.0056 -0.0124  0.0271
                                           -0.4092 -0.0411 -0.0582 -0.0076  0.1151
                                            0.0157 -0.0097  0.2878  0.0349 -0.0090
                                           -0.0750 -0.0115 -0.0021 -0.2301 -0.0144
                                            0.0266 -0.6731 -0.0599  0.0550 -0.1402
                                           -0.0255  0.0065 -0.0226  0.0222  0.0181
                                           -0.0106  0.0156 -0.0130 -0.0379  0.0254
                                            0.0089 -0.0111 -0.0108 -0.0076  0.0684
                                           -0.0295
    23. (0.00227) RY*( 9) O   1           s( 42.56%)p 0.51( 21.60%)d 0.83( 35.26%)
                                                  f 0.01(  0.59%)
                                            0.0000 -0.0055  0.6505 -0.0099 -0.0476
                                           -0.0177  0.4393  0.0309 -0.0070 -0.0057
                                           -0.1256 -0.0533 -0.0445 -0.0005  0.0302
                                            0.0096 -0.0031  0.1134  0.0279  0.0175
                                           -0.0362 -0.0102 -0.0054 -0.0318 -0.0082
                                            0.0107  0.4353  0.1058 -0.0500 -0.3461
                                           -0.1120  0.0214 -0.0132  0.0112 -0.0175
                                            0.0389  0.0020  0.0001 -0.0074  0.0109
                                            0.0101 -0.0027  0.0359 -0.0455 -0.0102
                                           -0.0030
    24. (0.00070) RY*(10) O   1           s( 45.69%)p 0.97( 44.35%)d 0.17(  7.73%)
                                                  f 0.05(  2.23%)
                                            0.0000 -0.0049 -0.0407  0.6720 -0.0596
                                            0.0002 -0.0390  0.0851 -0.1072 -0.0021
                                            0.0116 -0.6475 -0.0507 -0.0038 -0.0061
                                            0.0182  0.0305 -0.0187  0.1088  0.1278
                                            0.0057  0.0272  0.0102  0.0191  0.0493
                                           -0.0399  0.0139 -0.0159 -0.0502  0.0198
                                           -0.1050 -0.1708 -0.0741  0.0014 -0.0007
                                            0.0014 -0.0342  0.0396 -0.0886  0.0053
                                            0.0357 -0.0043 -0.0102  0.0436  0.0130
                                            0.0523
    25. (0.00056) RY*(11) O   1           s(  0.28%)p99.99( 59.31%)d99.99( 37.34%)
                                                  f11.00(  3.07%)
                                            0.0000 -0.0005 -0.0118  0.0502  0.0115
                                           -0.0007 -0.0023  0.0278 -0.0054  0.0013
                                            0.0001  0.1676 -0.0257  0.0016 -0.0419
                                            0.7495  0.0084  0.0036 -0.0664 -0.0105
                                            0.0212 -0.2383 -0.0630 -0.0119  0.4865
                                            0.0831  0.0108 -0.1289 -0.0333  0.0089
                                           -0.2085 -0.0506 -0.1131  0.0258  0.0247
                                            0.0017 -0.1052  0.0287 -0.0534  0.0005
                                           -0.0387 -0.0044  0.0051  0.0092 -0.0134
                                            0.0079
    26. (0.00048) RY*(12) O   1           s(  4.65%)p 4.42( 20.59%)d12.12( 56.39%)
                                                  f 3.95( 18.37%)
                                           -0.0000  0.0045 -0.0028  0.1959  0.0902
                                            0.0051  0.0102 -0.3202 -0.0359 -0.0055
                                           -0.0285  0.2743 -0.0243 -0.0018  0.0006
                                           -0.1583 -0.0159 -0.0322 -0.3116  0.0332
                                            0.0128  0.0453 -0.0128  0.0330 -0.2126
                                           -0.0710 -0.0061 -0.1380 -0.0035  0.0582
                                           -0.6038 -0.1543 -0.0457 -0.0055  0.1546
                                           -0.0089 -0.0604  0.0119 -0.1142 -0.0016
                                            0.1283 -0.0045  0.3379  0.0052  0.1000
                                            0.0115
    27. (0.00045) RY*(13) O   1           s(  0.28%)p38.91( 10.80%)d35.40(  9.83%)
                                                  f99.99( 79.09%)
                                           -0.0000  0.0002  0.0015  0.0509  0.0135
                                            0.0014  0.0017 -0.0304 -0.0075 -0.0003
                                           -0.0051  0.0680  0.0163  0.0021 -0.0017
                                            0.3084  0.0836 -0.0045  0.0115  0.0120
                                            0.0149  0.1914  0.0044 -0.0153 -0.2415
                                            0.0034  0.0060  0.0375 -0.0019  0.0193
                                            0.0057 -0.0266  0.1178  0.0075 -0.3009
                                            0.0018  0.1720  0.0055  0.1258 -0.0006
                                            0.7685 -0.0020 -0.2122  0.0008  0.0732
                                            0.0026
    28. (0.00044) RY*(14) O   1           s(  0.13%)p 8.09(  1.07%)d96.25( 12.71%)
                                                  f99.99( 86.09%)
                                            0.0000  0.0003 -0.0028  0.0360  0.0044
                                           -0.0014 -0.0028 -0.0305 -0.0118  0.0007
                                           -0.0055 -0.0011 -0.0039  0.0023 -0.0031
                                           -0.0955 -0.0205  0.0350 -0.0537 -0.0343
                                            0.0104 -0.1564 -0.0099 -0.0370  0.1409
                                            0.0493  0.0320 -0.0903 -0.0320  0.0701
                                           -0.2305 -0.0723  0.2181 -0.0011 -0.2480
                                           -0.0056  0.8208  0.0178  0.0264 -0.0006
                                           -0.2382  0.0002 -0.1361  0.0026  0.0433
                                            0.0061
    29. (0.00044) RY*(15) O   1           s(  0.03%)p69.49(  2.02%)d99.99(  6.96%)
                                                  f99.99( 90.99%)
                                            0.0000  0.0011 -0.0036  0.0163  0.0030
                                           -0.0023 -0.0019 -0.0321 -0.0138 -0.0014
                                           -0.0095  0.1365  0.0026 -0.0025  0.0035
                                            0.0137  0.0056  0.0413  0.0106 -0.0431
                                           -0.0203  0.1182  0.0203  0.0740 -0.1911
                                           -0.0779  0.0055  0.0239 -0.0064  0.0269
                                           -0.0373 -0.0163 -0.6841 -0.0139 -0.4331
                                           -0.0060  0.0210  0.0083 -0.3667 -0.0114
                                           -0.1808 -0.0016 -0.2665  0.0048 -0.1237
                                            0.0016
    30. (0.00041) RY*(16) O   1           s(  0.66%)p44.00( 28.90%)d21.49( 14.11%)
                                                  f85.78( 56.33%)
                                            0.0000 -0.0008 -0.0009  0.0617  0.0526
                                           -0.0086 -0.0317  0.4436  0.0011 -0.0057
                                           -0.0103  0.2212 -0.0334 -0.0009  0.0083
                                           -0.1950 -0.0529 -0.0375  0.1715  0.0581
                                           -0.0473  0.1359  0.0638 -0.0071  0.1591
                                           -0.0079  0.0599 -0.1607 -0.0553  0.0095
                                           -0.1549 -0.0141 -0.2795 -0.0240  0.1270
                                            0.0291 -0.0136  0.0126  0.3128  0.0180
                                            0.0338  0.0089 -0.1968 -0.0162  0.5724
                                            0.0357
    31. (0.00042) RY*(17) O   1           s(  0.28%)p89.43( 24.64%)d99.99( 37.84%)
                                                  f99.99( 37.25%)
                                            0.0000 -0.0007  0.0049  0.0514  0.0093
                                            0.0013 -0.0027  0.0395  0.0116  0.0018
                                           -0.0034  0.0163  0.0572  0.0088  0.0085
                                            0.4630  0.1633 -0.0213  0.1225  0.0190
                                           -0.0518  0.3418  0.0577  0.0235 -0.4802
                                            0.0294  0.0061  0.0422  0.0036  0.0086
                                            0.0712 -0.0258 -0.0661  0.0029  0.3046
                                            0.0170  0.2662  0.0081  0.1762  0.0018
                                           -0.3596 -0.0136  0.1986  0.0020  0.0638
                                            0.0013
    32. (0.00041) RY*(18) O   1           s(  0.51%)p40.50( 20.84%)d24.69( 12.70%)
                                                  f99.99( 65.95%)
                                            0.0000 -0.0012 -0.0003  0.0516  0.0498
                                           -0.0075 -0.0320  0.4220  0.0195 -0.0037
                                           -0.0119  0.1588  0.0036  0.0027 -0.0039
                                            0.0388  0.0435 -0.0052  0.0831  0.0047
                                            0.0710 -0.1819 -0.1010  0.0399 -0.2468
                                           -0.0247  0.0449 -0.0684 -0.0306 -0.0132
                                            0.0266  0.0100  0.3037  0.0144  0.2154
                                            0.0323  0.0230  0.0067 -0.6920 -0.0497
                                            0.0439  0.0082 -0.1353 -0.0180  0.1304
                                            0.0064
    33. (0.00040) RY*(19) O   1           s(  0.69%)p 4.14(  2.86%)d15.36( 10.60%)
                                                  f99.99( 85.85%)
                                            0.0000  0.0009 -0.0054  0.0711  0.0427
                                           -0.0027  0.0002 -0.0589 -0.0693 -0.0040
                                           -0.0014  0.0525 -0.0586  0.0029 -0.0006
                                            0.0998  0.0642 -0.0002 -0.0810  0.0229
                                            0.0001  0.1177 -0.0122  0.0059 -0.0814
                                           -0.0191 -0.0324  0.2554 -0.0455  0.0167
                                           -0.0903 -0.0336  0.4185  0.0330 -0.4951
                                           -0.0351 -0.3662 -0.0248  0.0372  0.0012
                                           -0.3692 -0.0261 -0.0851 -0.0072  0.3926
                                            0.0362
    34. (0.00037) RY*(20) O   1           s(  0.17%)p 8.57(  1.42%)d99.99( 83.97%)
                                                  f87.15( 14.45%)
                                            0.0000 -0.0007 -0.0066  0.0208  0.0344
                                           -0.0004 -0.0042  0.0262 -0.0015 -0.0017
                                            0.0001 -0.0890 -0.0401 -0.0029 -0.0100
                                            0.0572 -0.0240 -0.0011 -0.2408  0.0347
                                            0.0229 -0.7613  0.0825  0.0191 -0.4028
                                            0.0483  0.0029  0.1119 -0.0132  0.0038
                                            0.1237 -0.0260 -0.2006 -0.0208 -0.0163
                                            0.0008 -0.0126 -0.0057  0.2462  0.0278
                                            0.0086 -0.0043 -0.0165 -0.0050  0.2022
                                            0.0261
    35. (0.00034) RY*(21) O   1           s(  0.72%)p29.03( 20.98%)d99.99( 75.08%)
                                                  f 4.45(  3.21%)
                                           -0.0000  0.0029 -0.0077  0.0744 -0.0403
                                           -0.0012 -0.0048 -0.3818 -0.1276  0.0053
                                            0.0150  0.1820  0.1157 -0.0019 -0.0064
                                           -0.0296 -0.0081 -0.0389  0.8049 -0.0751
                                            0.0128 -0.2628  0.0309  0.0051 -0.0027
                                           -0.0054 -0.0058  0.1469 -0.0214  0.0138
                                           -0.0533 -0.0220 -0.0072 -0.0018 -0.0024
                                           -0.0093  0.0030 -0.0008 -0.0452 -0.0102
                                            0.0425  0.0110  0.1021  0.0446  0.1212
                                            0.0280
    36. (0.00033) RY*(22) O   1           s(  0.96%)p32.75( 31.34%)d24.08( 23.04%)
                                                  f46.68( 44.66%)
                                            0.0000 -0.0003 -0.0128  0.0255  0.0936
                                           -0.0022 -0.0244  0.5187  0.1452 -0.0028
                                            0.0015  0.0542  0.1327 -0.0003 -0.0023
                                           -0.0259 -0.0372 -0.0018  0.2299 -0.0255
                                            0.0040 -0.1074  0.0106  0.0026 -0.1572
                                            0.0185 -0.0654 -0.0017  0.0384  0.0482
                                           -0.3613  0.0399  0.0757  0.0218 -0.2912
                                           -0.0248 -0.1141 -0.0432  0.2249  0.0576
                                           -0.0182  0.0003  0.2608  0.0117 -0.4497
                                           -0.1249
    37. (0.00030) RY*(23) O   1           s(  5.87%)p 1.14(  6.72%)d 1.03(  6.07%)
                                                  f13.85( 81.33%)
                                           -0.0000  0.0057  0.0232  0.1955  0.1412
                                            0.0048 -0.0037 -0.1704 -0.0847 -0.0070
                                           -0.0092  0.1323  0.1139  0.0012 -0.0002
                                           -0.0178 -0.0056  0.0526  0.0219 -0.0195
                                           -0.0131 -0.0373  0.0221 -0.0035 -0.1277
                                           -0.0066  0.0310 -0.1224  0.0268 -0.0243
                                           -0.1309 -0.0655  0.1498  0.0530  0.2590
                                            0.0749 -0.1592 -0.0602  0.2166  0.0737
                                           -0.1343 -0.0366 -0.6835 -0.1866 -0.3198
                                           -0.1020
    38. (0.00026) RY*(24) O   1           s( 23.01%)p 1.28( 29.52%)d 1.60( 36.82%)
                                                  f 0.46( 10.65%)
                                            0.0000  0.0006  0.0602  0.4722  0.0590
                                           -0.0036 -0.0084  0.0971 -0.0557  0.0006
                                           -0.0490  0.5144 -0.0750 -0.0004  0.0085
                                           -0.0971  0.0192  0.0273 -0.1139  0.1006
                                           -0.0053 -0.0025  0.0139 -0.0190  0.1329
                                           -0.0608 -0.0244  0.2212 -0.1514 -0.0524
                                            0.4257 -0.2568  0.0237 -0.0158 -0.0322
                                            0.0013  0.0776  0.1324  0.0819  0.0129
                                           -0.0056  0.0044  0.1415  0.1243 -0.1969
                                           -0.0029
    39. (0.00022) RY*(25) O   1           s( 25.70%)p 0.23(  5.82%)d 2.28( 58.59%)
                                                  f 0.38(  9.89%)
                                           -0.0000  0.0004 -0.0674 -0.0961  0.4932
                                            0.0102 -0.0270  0.0537 -0.0512  0.0047
                                            0.0152 -0.1072 -0.1954 -0.0002 -0.0028
                                            0.0135 -0.0420  0.0020 -0.0154 -0.0538
                                           -0.0028  0.0430 -0.0471 -0.0025  0.1124
                                           -0.0518 -0.0745  0.6957 -0.1144  0.0324
                                           -0.2135  0.1184 -0.0893 -0.0378  0.1974
                                            0.1202  0.1079  0.0497 -0.0421 -0.0205
                                            0.0680  0.0453 -0.0683 -0.0722 -0.0346
                                           -0.0444
    40. (0.00014) RY*(26) O   1           s( 58.11%)p 0.12(  6.89%)d 0.49( 28.27%)
                                                  f 0.12(  6.73%)
                                            0.0000 -0.0007  0.0471  0.0695  0.7576
                                           -0.0044  0.0611 -0.0932  0.1034 -0.0020
                                            0.0106 -0.0717 -0.1916  0.0012 -0.0035
                                            0.0204 -0.0579 -0.0056  0.0998 -0.1609
                                           -0.0017  0.0028 -0.0493  0.0035 -0.0143
                                           -0.0281  0.0819 -0.3780  0.2108 -0.0472
                                            0.2169 -0.0127  0.0132  0.0376 -0.1147
                                           -0.1801 -0.0091 -0.0272 -0.0013  0.0012
                                           -0.0213 -0.0407  0.0982  0.0615  0.0555
                                            0.0259
    41. (0.00007) RY*(27) O   1           s(  1.06%)p 3.13(  3.33%)d14.87( 15.83%)
                                                  f74.92( 79.77%)
    42. (0.00007) RY*(28) O   1           s(  0.22%)p 3.50(  0.77%)d30.58(  6.76%)
                                                  f99.99( 92.24%)
    43. (0.00007) RY*(29) O   1           s(  0.08%)p 1.06(  0.09%)d25.44(  2.15%)
                                                  f99.99( 97.67%)
    44. (0.00007) RY*(30) O   1           s(  0.02%)p 7.39(  0.16%)d99.99(  7.10%)
                                                  f99.99( 92.72%)
    45. (0.00007) RY*(31) O   1           s(  0.73%)p 5.26(  3.86%)d35.73( 26.19%)
                                                  f94.46( 69.23%)
    46. (0.00006) RY*(32) O   1           s(  0.17%)p 5.94(  1.03%)d78.97( 13.75%)
                                                  f99.99( 85.04%)
    47. (0.00007) RY*(33) O   1           s(  0.85%)p10.04(  8.56%)d 4.34(  3.70%)
                                                  f99.99( 86.89%)
    48. (0.00005) RY*(34) O   1           s(  0.21%)p20.34(  4.28%)d99.99( 78.52%)
                                                  f80.77( 16.99%)
    49. (0.00003) RY*(35) O   1           s(  7.98%)p 2.99( 23.91%)d 5.92( 47.30%)
                                                  f 2.61( 20.80%)
    50. (0.00004) RY*(36) O   1           s(  0.19%)p16.00(  3.00%)d99.99( 84.09%)
                                                  f67.85( 12.72%)
    51. (0.00004) RY*(37) O   1           s(  6.09%)p 2.25( 13.71%)d 9.82( 59.74%)
                                                  f 3.36( 20.47%)
    52. (0.00001) RY*(38) O   1           s(  1.91%)p 0.54(  1.04%)d47.50( 90.72%)
                                                  f 3.31(  6.33%)
    53. (0.00001) RY*(39) O   1           s(  6.88%)p 6.10( 41.95%)d 5.82( 40.02%)
                                                  f 1.62( 11.16%)
    54. (0.00001) RY*(40) O   1           s(  6.61%)p12.22( 80.78%)d 1.12(  7.42%)
                                                  f 0.79(  5.20%)
    55. (-.00003) RY*(41) O   1           s(  0.66%)p99.99( 95.77%)d 4.09(  2.68%)
                                                  f 1.36(  0.89%)
    56. (0.00511) RY*( 1) H   2           s(  0.28%)p99.99( 98.82%)d 3.30(  0.91%)
                                           -0.0044 -0.0257  0.0446  0.0092  0.0666
                                           -0.0035 -0.0160  0.2360 -0.0106 -0.0025
                                            0.9626 -0.0326  0.0012 -0.0240 -0.0055
                                           -0.0813 -0.0234  0.0213  0.0211 -0.0117
                                           -0.0159  0.0013  0.0068
    57. (0.00228) RY*( 2) H   2           s(  3.33%)p28.59( 95.34%)d 0.40(  1.32%)
                                            0.0176  0.1414 -0.0438  0.1055 -0.5845
                                           -0.0347 -0.0473  0.7575 -0.1104 -0.0411
                                           -0.1423  0.0169  0.0114 -0.0517 -0.0201
                                            0.0062  0.0048  0.0277  0.0247  0.0839
                                            0.0357 -0.0203 -0.0017
    58. (0.00188) RY*( 3) H   2           s( 79.05%)p 0.25( 19.98%)d 0.01(  0.97%)
[...]
                                           -0.0051  0.3198  0.0903  0.0179  0.1797
                                            0.0166 -0.0069 -0.5998  0.0721 -0.0070
                                           -0.6826 -0.1389  0.0048 -0.0217 -0.0067
                                           -0.0065 -0.0040  0.0392 -0.0437  0.0086
                                            0.0382 -0.0030  0.0280
   121. (0.00336) RY*( 3) H   4           s(  2.66%)p36.47( 96.90%)d 0.17(  0.45%)
                                           -0.0180  0.0855  0.1364  0.0184  0.6359
                                            0.0226 -0.0065 -0.4348  0.0800 -0.0238
                                            0.5982  0.1007 -0.0104 -0.0515  0.0198
                                           -0.0000 -0.0014 -0.0038  0.0109  0.0167
                                            0.0069 -0.0308 -0.0014
   122. (0.00252) RY*( 4) H   4           s( 17.95%)p 4.51( 81.05%)d 0.06(  0.99%)
                                           -0.0038  0.3804  0.1843  0.0287 -0.7067
                                            0.0317 -0.0090 -0.3682  0.2104 -0.0015
                                            0.3527  0.0650 -0.0391  0.0549 -0.0431
                                            0.0250 -0.0024  0.0139 -0.0024  0.0234
                                            0.0376  0.0463  0.0111
   123. (0.00047) RY*( 5) H   4           s( 15.06%)p 5.07( 76.35%)d 0.57(  8.58%)
                                           -0.0018 -0.0659  0.3398 -0.1755  0.0449
                                            0.7149 -0.1016  0.1416  0.1723 -0.0416
                                           -0.1366  0.4068 -0.0675 -0.0589  0.0336
                                            0.0290 -0.0166  0.1122  0.0263  0.2205
                                            0.0494  0.1193  0.0393
   124. (0.00041) RY*( 6) H   4           s(  4.24%)p20.67( 87.69%)d 1.90(  8.07%)
                                           -0.0023 -0.0608  0.0794  0.1800  0.0541
                                           -0.5354  0.0045  0.0891  0.4502 -0.1347
                                           -0.1465  0.5805 -0.0003 -0.0856 -0.1146
                                           -0.0022  0.0392  0.1690  0.0527 -0.0523
                                            0.0767  0.1370  0.0011
   125. (0.00028) RY*( 7) H   4           s(  1.33%)p42.05( 56.12%)d31.87( 42.54%)
                                            0.0025  0.0731  0.0894 -0.0017 -0.0153
                                            0.0097  0.1230 -0.0473 -0.2108  0.6001
                                           -0.0436  0.3614  0.0803  0.1191  0.2155
                                           -0.0611 -0.0041  0.1894 -0.0596 -0.3373
                                           -0.3481 -0.1290 -0.2646
   126. (0.00021) RY*( 8) H   4           s(  5.03%)p 3.91( 19.66%)d14.98( 75.31%)
                                            0.0044  0.0022  0.2189 -0.0483 -0.0054
                                           -0.1056 -0.0484  0.0360 -0.2287 -0.0824
                                            0.0748 -0.2493  0.2343 -0.1676  0.0128
                                           -0.0424 -0.0106  0.7062 -0.1389  0.0436
                                           -0.0488  0.4471  0.0286
   127. (0.00019) RY*( 9) H   4           s(  0.87%)p10.74(  9.34%)d99.99( 89.79%)
                                           -0.0007  0.0066  0.0270  0.0890 -0.0686
                                            0.0492 -0.2766  0.0182  0.0242  0.0714
                                            0.0124 -0.0379 -0.0462 -0.6805  0.0198
                                           -0.5980 -0.0454 -0.0700  0.0140 -0.1918
                                            0.0487 -0.1735  0.0195
   128. (0.00018) RY*(10) H   4           s( 17.38%)p 4.12( 71.57%)d 0.64( 11.05%)
                                           -0.0184 -0.0997  0.3689 -0.1655  0.0866
                                           -0.0600  0.0696  0.1768  0.5641  0.3526
                                            0.0078 -0.4425 -0.1737  0.0936 -0.0127
                                           -0.0105 -0.0217 -0.0926 -0.1724 -0.2127
                                           -0.0319  0.1199  0.0451
   129. (0.00012) RY*(11) H   4           s(  0.62%)p15.96(  9.86%)d99.99( 89.52%)
                                            0.0002  0.0020  0.0230  0.0751 -0.0274
                                           -0.0098 -0.2630  0.0096 -0.0647  0.0976
                                           -0.0011 -0.0054 -0.1215 -0.4778  0.0108
                                            0.7768  0.0546 -0.0236 -0.1442 -0.1788
                                            0.0024 -0.0841  0.0091
   130. (0.00012) RY*(12) H   4           s( 17.38%)p 1.54( 26.72%)d 3.22( 55.91%)
                                            0.0051 -0.0399  0.3642 -0.1988 -0.0379
                                           -0.3386  0.1126 -0.0057 -0.2534  0.0416
                                           -0.0336  0.0706 -0.2575 -0.1713  0.0898
                                           -0.0475 -0.0776 -0.2446 -0.2503  0.5842
                                           -0.1567 -0.0382 -0.1537
   131. (0.00012) RY*(13) H   4           s(  0.89%)p 9.45(  8.42%)d99.99( 90.69%)
                                            0.0070  0.0093  0.0859  0.0372  0.0113
                                           -0.0030 -0.0786 -0.0587 -0.2429 -0.0198
                                           -0.0233  0.0930 -0.0767 -0.0109  0.0214
                                           -0.0333  0.0289 -0.4772  0.1826 -0.2785
                                           -0.0783  0.7480 -0.0087
   132. (0.00010) RY*(14) H   4           s(  3.81%)p10.45( 39.82%)d14.78( 56.36%)
                                            0.0068  0.0165 -0.0335  0.1915  0.0146
                                            0.0594  0.0593  0.0100 -0.1971 -0.1600
                                            0.0116  0.1214 -0.5581  0.1917  0.0168
                                           -0.1094 -0.1964  0.1280 -0.5429 -0.2692
                                            0.1989  0.0034  0.2300
   133. (0.00009) RY*(15) H   4           s(  0.34%)p95.09( 32.80%)d99.99( 66.86%)
   134. (0.00006) RY*(16) H   4           s( 58.51%)p 0.23( 13.71%)d 0.47( 27.78%)
   135. (0.00004) RY*(17) H   4           s( 28.14%)p 1.22( 34.19%)d 1.34( 37.67%)
   136. (0.00005) RY*(18) H   4           s(  3.04%)p 0.29(  0.89%)d31.62( 96.07%)
   137. (0.00004) RY*(19) H   4           s(  5.67%)p 2.67( 15.14%)d13.96( 79.19%)
   138. (0.00003) RY*(20) H   4           s(  6.32%)p 4.15( 26.22%)d10.68( 67.47%)
   139. (0.00004) RY*(21) H   4           s(  7.31%)p 4.68( 34.25%)d 7.99( 58.43%)
   140. (0.00003) RY*(22) H   4           s( 20.49%)p 2.12( 43.49%)d 1.76( 36.03%)
   141. (0.02154) BD*( 1) O   1 - H   2  
                ( 27.27%)   0.5222* O   1 s( 20.92%)p 3.76( 78.61%)d 0.02(  0.46%)
                                                  f 0.00(  0.01%)
                                           -0.0002 -0.4574  0.0050  0.0015  0.0024
                                           -0.8841  0.0317 -0.0093  0.0031 -0.0545
                                            0.0138 -0.0008  0.0032  0.0099 -0.0042
                                            0.0002 -0.0005  0.0180 -0.0030 -0.0006
                                           -0.0068  0.0013  0.0007  0.0019  0.0001
                                            0.0012 -0.0545  0.0039  0.0040  0.0347
                                           -0.0019  0.0001 -0.0001  0.0000  0.0092
                                            0.0001  0.0002 -0.0001  0.0007 -0.0004
                                            0.0031 -0.0016 -0.0041 -0.0036 -0.0019
                                            0.0007
                ( 72.73%)  -0.8528* H   2 s( 99.88%)p 0.00(  0.12%)d 0.00(  0.00%)
                                           -0.9994 -0.0035  0.0001 -0.0002 -0.0183
                                           -0.0273  0.0050  0.0083  0.0035  0.0021
                                           -0.0055 -0.0017 -0.0005  0.0003 -0.0024
                                           -0.0001  0.0007  0.0013  0.0004  0.0012
                                           -0.0013  0.0007  0.0008
   142. (0.06165) BD*( 1) O   1 - H   4  
                ( 22.24%)   0.4716* O   1 s( 26.35%)p 2.78( 73.23%)d 0.02(  0.41%)
                                                  f 0.00(  0.01%)
                                            0.0003  0.5133 -0.0017 -0.0015 -0.0011
                                           -0.2113  0.0181 -0.0018  0.0013 -0.7952
                                            0.0137 -0.0063  0.0018  0.2339 -0.0026
                                            0.0023 -0.0021 -0.0041  0.0026  0.0012
                                            0.0011 -0.0009 -0.0007 -0.0318  0.0024
                                           -0.0001 -0.0482  0.0034  0.0007 -0.0272
                                            0.0016 -0.0014 -0.0054  0.0004  0.0015
                                            0.0000  0.0060 -0.0003 -0.0039 -0.0005
                                            0.0016  0.0005  0.0024  0.0015  0.0011
                                            0.0019
                ( 77.76%)  -0.8818* H   4 s( 99.89%)p 0.00(  0.10%)d 0.00(  0.00%)
                                            0.9992  0.0246  0.0009 -0.0003  0.0171
                                            0.0023  0.0011  0.0037  0.0228  0.0085
                                            0.0091 -0.0070 -0.0025 -0.0019 -0.0018
                                            0.0008  0.0005 -0.0006  0.0007  0.0034
                                           -0.0009 -0.0004 -0.0013


 NHO Directionality and "Bond Bending" (deviations from line of nuclear centers)

         [Thresholds for printing:  angular deviation  >  1.0 degree]
                                    hybrid p-character > 25.0%
                                    orbital occupancy  >  0.10e

                                Line of Centers        Hybrid 1              Hybrid 2
                                ---------------  -------------------   ------------------
                NBO               Theta   Phi    Theta   Phi    Dev    Theta   Phi    Dev
 ========================================================================================
     1. BD (   1) O   1 - H   2    90.0    0.0    90.4    2.6   2.6      --     --    --
     2. BD (   1) O   1 - H   4    75.0  258.3    74.0  256.2   2.3      --     --    --
     9. LP (   1) O   1             --     --    103.2  127.6   --       --     --    --
    10. LP (   2) O   1             --     --     16.4   91.0   --       --     --    --
    12. LP (   2)Cl   3             --     --    163.5   26.1   --       --     --    --
    13. LP (   3)Cl   3             --     --    102.7  165.5   --       --     --    --
    14. LP (   4)Cl   3             --     --     79.4   77.8   --       --     --    --


 Natural Bond Orbitals (Summary):

           NBO                  Occupancy  
 -----------------------------------------------
 Molecular unit  1  (H2O)
     1. BD (   1) O   1 - H   2          1.96578
     2. BD (   1) O   1 - H   4          1.96801
     3. CR (   1) O   1                  1.99967
     9. LP (   1) O   1                  1.96987
    10. LP (   2) O   1                  1.95955
    15. RY*(   1) O   1                  0.01948
    16. RY*(   2) O   1                  0.01506
    17. RY*(   3) O   1                  0.00698
    18. RY*(   4) O   1                  0.00621
    19. RY*(   5) O   1                  0.00613
    20. RY*(   6) O   1                  0.00589
    21. RY*(   7) O   1                  0.00568
    22. RY*(   8) O   1                  0.00319
    23. RY*(   9) O   1                  0.00227
    24. RY*(  10) O   1                  0.00070
    25. RY*(  11) O   1                  0.00056
    26. RY*(  12) O   1                  0.00048
    27. RY*(  13) O   1                  0.00045
    28. RY*(  14) O   1                  0.00044
    29. RY*(  15) O   1                  0.00044
    30. RY*(  16) O   1                  0.00041
    31. RY*(  17) O   1                  0.00042
    32. RY*(  18) O   1                  0.00041
    33. RY*(  19) O   1                  0.00040
    34. RY*(  20) O   1                  0.00037
    35. RY*(  21) O   1                  0.00034
    36. RY*(  22) O   1                  0.00033
    37. RY*(  23) O   1                  0.00030
    38. RY*(  24) O   1                  0.00026
    39. RY*(  25) O   1                  0.00022
    40. RY*(  26) O   1                  0.00014
    41. RY*(  27) O   1                  0.00007
    42. RY*(  28) O   1                  0.00007
    43. RY*(  29) O   1                  0.00007
    44. RY*(  30) O   1                  0.00007
    45. RY*(  31) O   1                  0.00007
    46. RY*(  32) O   1                  0.00006
    47. RY*(  33) O   1                  0.00007
    48. RY*(  34) O   1                  0.00005
    49. RY*(  35) O   1                  0.00003
    50. RY*(  36) O   1                  0.00004
    51. RY*(  37) O   1                  0.00004
    52. RY*(  38) O   1                  0.00001
    53. RY*(  39) O   1                  0.00001
    54. RY*(  40) O   1                  0.00001
    55. RY*(  41) O   1                 -0.00003
    56. RY*(   1) H   2                  0.00511
    57. RY*(   2) H   2                  0.00228
    58. RY*(   3) H   2                  0.00188
    59. RY*(   4) H   2                  0.00083
    60. RY*(   5) H   2                  0.00029
    61. RY*(   6) H   2                  0.00021
    62. RY*(   7) H   2                  0.00018
    63. RY*(   8) H   2                  0.00010
    64. RY*(   9) H   2                  0.00011
    65. RY*(  10) H   2                  0.00011
    66. RY*(  11) H   2                  0.00009
    67. RY*(  12) H   2                  0.00007
    68. RY*(  13) H   2                  0.00007
    69. RY*(  14) H   2                  0.00003
    70. RY*(  15) H   2                  0.00003
    71. RY*(  16) H   2                  0.00004
    72. RY*(  17) H   2                  0.00004
    73. RY*(  18) H   2                  0.00004
    74. RY*(  19) H   2                  0.00002
    75. RY*(  20) H   2                  0.00001
    76. RY*(  21) H   2                  0.00001
    77. RY*(  22) H   2                  0.00001
   119. RY*(   1) H   4                  0.00844
   120. RY*(   2) H   4                  0.00393
   121. RY*(   3) H   4                  0.00336
   122. RY*(   4) H   4                  0.00252
   123. RY*(   5) H   4                  0.00047
   124. RY*(   6) H   4                  0.00041
   125. RY*(   7) H   4                  0.00028
   126. RY*(   8) H   4                  0.00021
   127. RY*(   9) H   4                  0.00019
   128. RY*(  10) H   4                  0.00018
   129. RY*(  11) H   4                  0.00012
   130. RY*(  12) H   4                  0.00012
   131. RY*(  13) H   4                  0.00012
   132. RY*(  14) H   4                  0.00010
   133. RY*(  15) H   4                  0.00009
   134. RY*(  16) H   4                  0.00006
   135. RY*(  17) H   4                  0.00004
   136. RY*(  18) H   4                  0.00005
   137. RY*(  19) H   4                  0.00004
   138. RY*(  20) H   4                  0.00003
   139. RY*(  21) H   4                  0.00004
   140. RY*(  22) H   4                  0.00003
   141. BD*(   1) O   1 - H   2          0.02154
   142. BD*(   1) O   1 - H   4          0.06165
       -------------------------------
              Total Lewis    9.86289  ( 98.0732%)
        Valence non-Lewis    0.08318  (  0.8272%)
        Rydberg non-Lewis    0.11058  (  1.0996%)
       -------------------------------
            Total unit  1   10.05666  (100.0000%)
           Charge unit  1   -0.05666

 Molecular unit  2  (Cl)
     4. CR (   1)Cl   3                  2.00001
     5. CR (   2)Cl   3                  2.00000
     6. CR (   3)Cl   3                  2.00003
     7. CR (   4)Cl   3                  2.00002
     8. CR (   5)Cl   3                  2.00003
    11. LP (   1)Cl   3                  1.97933
    12. LP (   2)Cl   3                  1.95270
    13. LP (   3)Cl   3                  1.95249
    14. LP (   4)Cl   3                  1.91049
    78. RY*(   1)Cl   3                  0.01837
    79. RY*(   2)Cl   3                  0.01835
    80. RY*(   3)Cl   3                  0.01827
    81. RY*(   4)Cl   3                  0.01827
    82. RY*(   5)Cl   3                  0.01796
    83. RY*(   6)Cl   3                  0.01334
    84. RY*(   7)Cl   3                  0.01330
    85. RY*(   8)Cl   3                  0.01112
    86. RY*(   9)Cl   3                  0.00268
    87. RY*(  10)Cl   3                  0.00130
    88. RY*(  11)Cl   3                  0.00129
    89. RY*(  12)Cl   3                  0.00130
    90. RY*(  13)Cl   3                  0.00128
    91. RY*(  14)Cl   3                  0.00129
    92. RY*(  15)Cl   3                  0.00128
    93. RY*(  16)Cl   3                  0.00126
    94. RY*(  17)Cl   3                  0.00099
    95. RY*(  18)Cl   3                  0.00099
    96. RY*(  19)Cl   3                  0.00077
    97. RY*(  20)Cl   3                  0.00076
    98. RY*(  21)Cl   3                  0.00071
    99. RY*(  22)Cl   3                  0.00055
   100. RY*(  23)Cl   3                  0.00055
   101. RY*(  24)Cl   3                  0.00053
   102. RY*(  25)Cl   3                  0.00022
   103. RY*(  26)Cl   3                  0.00014
   104. RY*(  27)Cl   3                  0.00014
   105. RY*(  28)Cl   3                  0.00015
   106. RY*(  29)Cl   3                  0.00014
   107. RY*(  30)Cl   3                  0.00014
   108. RY*(  31)Cl   3                  0.00014
   109. RY*(  32)Cl   3                  0.00014
   110. RY*(  33)Cl   3                  0.00010
   111. RY*(  34)Cl   3                  0.00010
   112. RY*(  35)Cl   3                  0.00008
   113. RY*(  36)Cl   3                  0.00008
   114. RY*(  37)Cl   3                  0.00008
   115. RY*(  38)Cl   3                  0.00005
   116. RY*(  39)Cl   3                  0.00002
   117. RY*(  40)Cl   3                  0.00002
   118. RY*(  41)Cl   3                  0.00000
       -------------------------------
              Total Lewis   17.79509  ( 99.1738%)
        Valence non-Lewis    0.00000  (  0.0000%)
        Rydberg non-Lewis    0.14825  (  0.8262%)
       -------------------------------
            Total unit  2   17.94334  (100.0000%)
           Charge unit  2   -0.94334
 Leave Link  607 at Tue Oct 19 16:01:21 2021, MaxMem= 16106127360 cpu:              77.0 elap:               2.8
 (Enter /sw/contrib/gaussian/g16/B01/g16/l9999.exe)
 1\1\GINC-N2098\SP\RMP2-FC\Aug-CC-pVTZ\Cl1H2O1(1-)\CGAVINH\19-Oct-2021\
 0\\#p pop=NBO SP NoSymm mp2/aug-cc-pvtz density=current\\title\\-1,1\O
 \X,1,10.\H,1,0.96061628,2,90.\Cl,1,3.08954942,2,90.,3,101.71720655,0\H
 ,1,0.98828,2,75.,3,101.71720655,0\\Version=ES64L-G16RevB.01\HF=-535.64
 84461\MP2=-536.1315574\RMSD=5.404e-09\Dipole=0.7802474,0.9365855,0.100
 881\Quadrupole=9.9508492,-19.2998217,9.3489725,-5.6513461,-0.0708244,-
 0.1600652\PG=C01 [X(Cl1H2O1)]\\@


 CHINESE FORTUNE COOKIE OF JAN 1 1967 SAY....
 ALL THINGS ARE DIFFICULT BEFORE THEY ARE EASY.
 WE LEARN SO LITTLE AND FORGET SO MUCH.
 YOU WILL OVERCOME OBSTACLES TO ACHIEVE SUCCESS.
 AH SO.
 Job cpu time:       0 days  0 hours  3 minutes 27.9 seconds.
 Elapsed time:       0 days  0 hours  0 minutes  9.6 seconds.
 File lengths (MBytes):  RWF=     10 Int=      0 D2E=      0 Chk=      8 Scr=      1
 Normal termination of Gaussian 16 at Tue Oct 19 16:01:22 2021.
