 Entering Gaussian System, Link 0=g16
 Input=clhod_oop_05_sp.gjf
 Output=clhod_oop_05_sp.log
 Initial command:
 /sw/contrib/gaussian/g16/B01/g16/l1.exe "/scr/Gau-1069.inp" -scrdir="/scr/"
 Entering Link 1 = /sw/contrib/gaussian/g16/B01/g16/l1.exe PID=      1070.
  
 Copyright (c) 1988-2017, Gaussian, Inc.  All Rights Reserved.
  
 This is part of the Gaussian(R) 16 program.  It is based on
 the Gaussian(R) 09 system (copyright 2009, Gaussian, Inc.),
 the Gaussian(R) 03 system (copyright 2003, Gaussian, Inc.),
 the Gaussian(R) 98 system (copyright 1998, Gaussian, Inc.),
 the Gaussian(R) 94 system (copyright 1995, Gaussian, Inc.),
 the Gaussian 92(TM) system (copyright 1992, Gaussian, Inc.),
 the Gaussian 90(TM) system (copyright 1990, Gaussian, Inc.),
 the Gaussian 88(TM) system (copyright 1988, Gaussian, Inc.),
 the Gaussian 86(TM) system (copyright 1986, Carnegie Mellon
 University), and the Gaussian 82(TM) system (copyright 1983,
 Carnegie Mellon University). Gaussian is a federally registered
 trademark of Gaussian, Inc.
  
 This software contains proprietary and confidential information,
 including trade secrets, belonging to Gaussian, Inc.
  
 This software is provided under written license and may be
 used, copied, transmitted, or stored only in accord with that
 written license.
  
 The following legend is applicable only to US Government
 contracts under FAR:
  
                    RESTRICTED RIGHTS LEGEND
  
 Use, reproduction and disclosure by the US Government is
 subject to restrictions as set forth in subparagraphs (a)
 and (c) of the Commercial Computer Software - Restricted
 Rights clause in FAR 52.227-19.
  
 Gaussian, Inc.
 340 Quinnipiac St., Bldg. 40, Wallingford CT 06492
  
  
 ---------------------------------------------------------------
 Warning -- This program may not be used in any manner that
 competes with the business of Gaussian, Inc. or will provide
 assistance to any competitor of Gaussian, Inc.  The licensee
 of this program is prohibited from giving any competitor of
 Gaussian, Inc. access to this program.  By using this program,
 the user acknowledges that Gaussian, Inc. is engaged in the
 business of creating and licensing software in the field of
 computational chemistry and represents and warrants to the
 licensee that it is not a competitor of Gaussian, Inc. and that
 it will not use this program in any manner prohibited above.
 ---------------------------------------------------------------
  

 Cite this work as:
 Gaussian 16, Revision B.01,
 M. J. Frisch, G. W. Trucks, H. B. Schlegel, G. E. Scuseria, 
 M. A. Robb, J. R. Cheeseman, G. Scalmani, V. Barone, 
 G. A. Petersson, H. Nakatsuji, X. Li, M. Caricato, A. V. Marenich, 
 J. Bloino, B. G. Janesko, R. Gomperts, B. Mennucci, H. P. Hratchian, 
 J. V. Ortiz, A. F. Izmaylov, J. L. Sonnenberg, D. Williams-Young, 
 F. Ding, F. Lipparini, F. Egidi, J. Goings, B. Peng, A. Petrone, 
 T. Henderson, D. Ranasinghe, V. G. Zakrzewski, J. Gao, N. Rega, 
 G. Zheng, W. Liang, M. Hada, M. Ehara, K. Toyota, R. Fukuda, 
 J. Hasegawa, M. Ishida, T. Nakajima, Y. Honda, O. Kitao, H. Nakai, 
 T. Vreven, K. Throssell, J. A. Montgomery, Jr., J. E. Peralta, 
 F. Ogliaro, M. J. Bearpark, J. J. Heyd, E. N. Brothers, K. N. Kudin, 
 V. N. Staroverov, T. A. Keith, R. Kobayashi, J. Normand, 
 K. Raghavachari, A. P. Rendell, J. C. Burant, S. S. Iyengar, 
 J. Tomasi, M. Cossi, J. M. Millam, M. Klene, C. Adamo, R. Cammi, 
 J. W. Ochterski, R. L. Martin, K. Morokuma, O. Farkas, 
 J. B. Foresman, and D. J. Fox, Gaussian, Inc., Wallingford CT, 2016.
 
 ******************************************
 Gaussian 16:  ES64L-G16RevB.01 20-Dec-2017
                19-Oct-2021 
 ******************************************
 %nproc=28
 Will use up to   28 processors via shared memory.
 %mem=120GB
 %chk=/gscratch/ilahie/mccoygrp/coire_hocl/oop_s_rOH_opt/clhod/clhod_oop_5_sp.chk
 ----------------------------------------------------
 #p pop=NBO SP NoSymm mp2/aug-cc-pvtz density=current
 ----------------------------------------------------
 1/30=1,38=1,172=1/1;
 2/12=2,15=1,17=6,18=5,40=1/2;
 3/5=16,6=1,7=10,11=9,25=1,30=1,71=1/1,2,3;
 4//1;
 5/5=2,38=5/2;
 8/6=4,10=1/1;
 9/15=1,16=-3/6;
 10/5=1,13=10,31=1/2;
 6/7=2,8=2,9=2,10=2,22=-1,40=1/1,7;
 99/5=1,9=1/99;
 Leave Link    1 at Tue Oct 19 16:00:51 2021, MaxMem= 16106127360 cpu:               2.2 elap:               0.1
 (Enter /sw/contrib/gaussian/g16/B01/g16/l101.exe)
 -----
 title
 -----
 Symbolic Z-matrix:
 Charge = -1 Multiplicity = 1
 O
 X                    1     10. 
 H(iso=2)             1    r1       2     90. 
 Cl                   1    r2       2     90.      3    a1       0
 H                    1    r3       2    oop      3    a1       0
       Variables:
  r1                    0.96062                  
  r2                    3.08955                  
  r3                    0.99225                  
  a1                  101.71721                  
  OOP                  85.                       
 
 ITRead=  0  0  0  0
 MicOpt= -1 -1 -1 -1
 NAtoms=      4 NQM=        4 NQMF=       0 NMMI=      0 NMMIF=      0
                NMic=       0 NMicF=      0.
                    Isotopes and Nuclear Properties:
 (Nuclear quadrupole moments (NQMom) in fm**2, nuclear magnetic moments (NMagM)
  in nuclear magnetons)

  Atom         1           2           3           4
 IAtWgt=          16           2          35           1
 AtmWgt=  15.9949146   2.0141018  34.9688527   1.0078250
 NucSpn=           0           2           3           1
 AtZEff=  -0.0000000  -0.0000000  -0.0000000  -0.0000000
 NQMom=    0.0000000   0.2860000  -8.1650000   0.0000000
 NMagM=    0.0000000   0.8574380   0.8218740   2.7928460
 AtZNuc=   8.0000000   1.0000000  17.0000000   1.0000000
 Leave Link  101 at Tue Oct 19 16:00:52 2021, MaxMem= 16106127360 cpu:               2.1 elap:               0.1
 (Enter /sw/contrib/gaussian/g16/B01/g16/l202.exe)
                          Input orientation:                          
 ---------------------------------------------------------------------
 Center     Atomic      Atomic             Coordinates (Angstroms)
 Number     Number       Type             X           Y           Z
 ---------------------------------------------------------------------
      1          8           0        0.000000    0.000000    0.000000
      2          1           0        0.960616    0.000000    0.000000
      3         17           0       -0.627430   -3.025169    0.000000
      4          1           0       -0.200741   -0.967876    0.086480
 ---------------------------------------------------------------------
                    Distance matrix (angstroms):
                    1          2          3          4
     1  O    0.000000
     2  H    0.960616   0.000000
     3  Cl   3.089549   3.416656   0.000000
     4  H    0.992250   1.514270   2.102854   0.000000
 Symmetry turned off by external request.
 Stoichiometry    ClH2O(1-)
 Framework group  C1[X(ClH2O)]
 Deg. of freedom     6
 Full point group                 C1      NOp   1
 Rotational constants (GHZ):         321.8480401           4.3425154           4.2852349
 Leave Link  202 at Tue Oct 19 16:00:52 2021, MaxMem= 16106127360 cpu:               0.3 elap:               0.0
 (Enter /sw/contrib/gaussian/g16/B01/g16/l301.exe)
 Standard basis: Aug-CC-pVTZ (5D, 7F)
 Ernie: Thresh=  0.10000D-02 Tol=  0.10000D-05 Strict=F.
 Ernie:  16 primitive shells out of 116 were deleted.
   142 basis functions,   240 primitive gaussians,   164 cartesian basis functions
    14 alpha electrons       14 beta electrons
       nuclear repulsion energy        39.2279569638 Hartrees.
 IExCor=    0 DFT=F Ex=HF Corr=None ExCW=0 ScaHFX=  1.000000
 ScaDFX=  1.000000  1.000000  1.000000  1.000000 ScalE2=  1.000000  1.000000
 IRadAn=      5 IRanWt=     -1 IRanGd=            0 ICorTp=0 IEmpDi=  4
 NAtoms=    4 NActive=    4 NUniq=    4 SFac= 1.00D+00 NAtFMM=   60 NAOKFM=F Big=F
 Integral buffers will be    131072 words long.
 Raffenetti 1 integral format.
 Two-electron integral symmetry is turned off.
 Leave Link  301 at Tue Oct 19 16:00:52 2021, MaxMem= 16106127360 cpu:               2.0 elap:               0.1
 (Enter /sw/contrib/gaussian/g16/B01/g16/l302.exe)
 NPDir=0 NMtPBC=     1 NCelOv=     1 NCel=       1 NClECP=     1 NCelD=      1
         NCelK=      1 NCelE2=     1 NClLst=     1 CellRange=     0.0.
 One-electron integrals computed using PRISM.
 NBasis=   142 RedAO= T EigKep=  2.87D-04  NBF=   142
 NBsUse=   142 1.00D-06 EigRej= -1.00D+00 NBFU=   142
 Leave Link  302 at Tue Oct 19 16:00:52 2021, MaxMem= 16106127360 cpu:               5.9 elap:               0.2
 (Enter /sw/contrib/gaussian/g16/B01/g16/l303.exe)
 DipDrv:  MaxL=1.
 Leave Link  303 at Tue Oct 19 16:00:52 2021, MaxMem= 16106127360 cpu:               0.8 elap:               0.1
 (Enter /sw/contrib/gaussian/g16/B01/g16/l401.exe)
 ExpMin= 2.53D-02 ExpMax= 4.56D+05 ExpMxC= 1.44D+03 IAcc=3 IRadAn=         5 AccDes= 0.00D+00
 Harris functional with IExCor=  205 and IRadAn=       5 diagonalized for initial guess.
 HarFok:  IExCor=  205 AccDes= 0.00D+00 IRadAn=         5 IDoV= 1 UseB2=F ITyADJ=14
 ICtDFT=  3500011 ScaDFX=  1.000000  1.000000  1.000000  1.000000
 FoFCou: FMM=F IPFlag=           0 FMFlag=      100000 FMFlg1=           0
         NFxFlg=           0 DoJE=T BraDBF=F KetDBF=T FulRan=T
         wScrn=  0.000000 ICntrl=       500 IOpCl=  0 I1Cent=   200000004 NGrid=           0
         NMat0=    1 NMatS0=      1 NMatT0=    0 NMatD0=    1 NMtDS0=    0 NMtDT0=    0
 Symmetry not used in FoFCou.
 Harris En= -535.446445861996    
 JPrj=0 DoOrth=F DoCkMO=F.
 Leave Link  401 at Tue Oct 19 16:00:52 2021, MaxMem= 16106127360 cpu:               6.3 elap:               0.3
 (Enter /sw/contrib/gaussian/g16/B01/g16/l502.exe)
 Keep R1 ints in memory in canonical form, NReq=65346247.
 FoFCou: FMM=F IPFlag=           0 FMFlag=           0 FMFlg1=           0
         NFxFlg=           0 DoJE=F BraDBF=F KetDBF=F FulRan=T
         wScrn=  0.000000 ICntrl=       600 IOpCl=  0 I1Cent=           0 NGrid=           0
         NMat0=    1 NMatS0=  10153 NMatT0=    0 NMatD0=    1 NMtDS0=    0 NMtDT0=    0
 Symmetry not used in FoFCou.
 Two-electron integral symmetry not used.
 Closed shell SCF:
 Using DIIS extrapolation, IDIIS=  1040.
 NGot= 16106127360 LenX= 16054521101 LenY= 16054493764
 Requested convergence on RMS density matrix=1.00D-08 within 128 cycles.
 Requested convergence on MAX density matrix=1.00D-06.
 Requested convergence on             energy=1.00D-06.
 No special actions if energy rises.

 Cycle   1  Pass 1  IDiag  1:
 E= -535.513669693473    
 DIIS: error= 4.42D-02 at cycle   1 NSaved=   1.
 NSaved= 1 IEnMin= 1 EnMin= -535.513669693473     IErMin= 1 ErrMin= 4.42D-02
 ErrMax= 4.42D-02  0.00D+00 EMaxC= 1.00D-01 BMatC= 3.43D-01 BMatP= 3.43D-01
 IDIUse=3 WtCom= 5.58D-01 WtEn= 4.42D-01
 Coeff-Com:  0.100D+01
 Coeff-En:   0.100D+01
 Coeff:      0.100D+01
 Gap=     0.387 Goal=   None    Shift=    0.000
 GapD=    0.387 DampG=1.000 DampE=0.500 DampFc=0.5000 IDamp=-1.
 Damping current iteration by 5.00D-01
 RMSDP=2.24D-03 MaxDP=5.77D-02              OVMax= 1.32D-01

 Cycle   2  Pass 1  IDiag  1:
 E= -535.586095089251     Delta-E=       -0.072425395778 Rises=F Damp=T
 DIIS: error= 1.61D-02 at cycle   2 NSaved=   2.
 NSaved= 2 IEnMin= 2 EnMin= -535.586095089251     IErMin= 2 ErrMin= 1.61D-02
 ErrMax= 1.61D-02  0.00D+00 EMaxC= 1.00D-01 BMatC= 6.29D-02 BMatP= 3.43D-01
 IDIUse=3 WtCom= 8.39D-01 WtEn= 1.61D-01
 Coeff-Com: -0.477D+00 0.148D+01
 Coeff-En:   0.000D+00 0.100D+01
 Coeff:     -0.401D+00 0.140D+01
 Gap=     0.317 Goal=   None    Shift=    0.000
 RMSDP=9.36D-04 MaxDP=3.37D-02 DE=-7.24D-02 OVMax= 6.72D-02

 Cycle   3  Pass 1  IDiag  1:
 E= -535.648581969085     Delta-E=       -0.062486879834 Rises=F Damp=F
 DIIS: error= 5.43D-03 at cycle   3 NSaved=   3.
 NSaved= 3 IEnMin= 3 EnMin= -535.648581969085     IErMin= 3 ErrMin= 5.43D-03
 ErrMax= 5.43D-03  0.00D+00 EMaxC= 1.00D-01 BMatC= 2.38D-03 BMatP= 6.29D-02
 IDIUse=3 WtCom= 9.46D-01 WtEn= 5.43D-02
 Coeff-Com: -0.150D+00 0.272D+00 0.878D+00
 Coeff-En:   0.000D+00 0.000D+00 0.100D+01
 Coeff:     -0.142D+00 0.257D+00 0.885D+00
 Gap=     0.320 Goal=   None    Shift=    0.000
 RMSDP=1.70D-04 MaxDP=4.20D-03 DE=-6.25D-02 OVMax= 1.14D-02

 Cycle   4  Pass 1  IDiag  1:
 E= -535.650130284897     Delta-E=       -0.001548315812 Rises=F Damp=F
 DIIS: error= 5.73D-04 at cycle   4 NSaved=   4.
 NSaved= 4 IEnMin= 4 EnMin= -535.650130284897     IErMin= 4 ErrMin= 5.73D-04
 ErrMax= 5.73D-04  0.00D+00 EMaxC= 1.00D-01 BMatC= 4.87D-05 BMatP= 2.38D-03
 IDIUse=3 WtCom= 9.94D-01 WtEn= 5.73D-03
 Coeff-Com: -0.229D-01 0.391D-01 0.181D+00 0.803D+00
 Coeff-En:   0.000D+00 0.000D+00 0.000D+00 0.100D+01
 Coeff:     -0.228D-01 0.388D-01 0.180D+00 0.804D+00
 Gap=     0.315 Goal=   None    Shift=    0.000
 RMSDP=3.87D-05 MaxDP=9.47D-04 DE=-1.55D-03 OVMax= 2.32D-03

 Cycle   5  Pass 1  IDiag  1:
 E= -535.650181571372     Delta-E=       -0.000051286475 Rises=F Damp=F
 DIIS: error= 1.59D-04 at cycle   5 NSaved=   5.
 NSaved= 5 IEnMin= 5 EnMin= -535.650181571372     IErMin= 5 ErrMin= 1.59D-04
 ErrMax= 1.59D-04  0.00D+00 EMaxC= 1.00D-01 BMatC= 3.73D-06 BMatP= 4.87D-05
 IDIUse=3 WtCom= 9.98D-01 WtEn= 1.59D-03
 Coeff-Com:  0.149D-01-0.283D-01-0.897D-01-0.458D-01 0.115D+01
 Coeff-En:   0.000D+00 0.000D+00 0.000D+00 0.000D+00 0.100D+01
 Coeff:      0.148D-01-0.283D-01-0.895D-01-0.457D-01 0.115D+01
 Gap=     0.315 Goal=   None    Shift=    0.000
 RMSDP=2.09D-05 MaxDP=5.29D-04 DE=-5.13D-05 OVMax= 1.60D-03

 Cycle   6  Pass 1  IDiag  1:
 E= -535.650191208138     Delta-E=       -0.000009636766 Rises=F Damp=F
 DIIS: error= 4.80D-05 at cycle   6 NSaved=   6.
 NSaved= 6 IEnMin= 6 EnMin= -535.650191208138     IErMin= 6 ErrMin= 4.80D-05
 ErrMax= 4.80D-05  0.00D+00 EMaxC= 1.00D-01 BMatC= 2.39D-07 BMatP= 3.73D-06
 IDIUse=1 WtCom= 1.00D+00 WtEn= 0.00D+00
 Coeff-Com: -0.200D-02 0.438D-02 0.112D-01-0.133D-01-0.361D+00 0.136D+01
 Coeff:     -0.200D-02 0.438D-02 0.112D-01-0.133D-01-0.361D+00 0.136D+01
 Gap=     0.315 Goal=   None    Shift=    0.000
 RMSDP=6.95D-06 MaxDP=1.47D-04 DE=-9.64D-06 OVMax= 5.26D-04

 Cycle   7  Pass 1  IDiag  1:
 E= -535.650192055527     Delta-E=       -0.000000847388 Rises=F Damp=F
 DIIS: error= 9.98D-06 at cycle   7 NSaved=   7.
 NSaved= 7 IEnMin= 7 EnMin= -535.650192055527     IErMin= 7 ErrMin= 9.98D-06
 ErrMax= 9.98D-06  0.00D+00 EMaxC= 1.00D-01 BMatC= 7.66D-09 BMatP= 2.39D-07
 IDIUse=1 WtCom= 1.00D+00 WtEn= 0.00D+00
 Coeff-Com:  0.128D-04-0.211D-03-0.143D-03 0.469D-02 0.696D-01-0.419D+00
 Coeff-Com:  0.135D+01
 Coeff:      0.128D-04-0.211D-03-0.143D-03 0.469D-02 0.696D-01-0.419D+00
 Coeff:      0.135D+01
 Gap=     0.315 Goal=   None    Shift=    0.000
 RMSDP=1.19D-06 MaxDP=3.10D-05 DE=-8.47D-07 OVMax= 8.34D-05

 Cycle   8  Pass 1  IDiag  1:
 E= -535.650192080331     Delta-E=       -0.000000024804 Rises=F Damp=F
 DIIS: error= 1.68D-06 at cycle   8 NSaved=   8.
 NSaved= 8 IEnMin= 8 EnMin= -535.650192080331     IErMin= 8 ErrMin= 1.68D-06
 ErrMax= 1.68D-06  0.00D+00 EMaxC= 1.00D-01 BMatC= 2.67D-10 BMatP= 7.66D-09
 IDIUse=1 WtCom= 1.00D+00 WtEn= 0.00D+00
 Coeff-Com:  0.559D-04-0.124D-03-0.342D-03 0.242D-03 0.113D-01-0.397D-01
 Coeff-Com: -0.171D-01 0.105D+01
 Coeff:      0.559D-04-0.124D-03-0.342D-03 0.242D-03 0.113D-01-0.397D-01
 Coeff:     -0.171D-01 0.105D+01
 Gap=     0.315 Goal=   None    Shift=    0.000
 RMSDP=1.63D-07 MaxDP=3.83D-06 DE=-2.48D-08 OVMax= 1.15D-05

 Cycle   9  Pass 1  IDiag  1:
 E= -535.650192080932     Delta-E=       -0.000000000602 Rises=F Damp=F
 DIIS: error= 5.06D-07 at cycle   9 NSaved=   9.
 NSaved= 9 IEnMin= 9 EnMin= -535.650192080932     IErMin= 9 ErrMin= 5.06D-07
 ErrMax= 5.06D-07  0.00D+00 EMaxC= 1.00D-01 BMatC= 2.58D-11 BMatP= 2.67D-10
 IDIUse=1 WtCom= 1.00D+00 WtEn= 0.00D+00
 Coeff-Com: -0.123D-04 0.424D-04 0.742D-04-0.422D-03-0.785D-02 0.439D-01
 Coeff-Com: -0.126D+00-0.112D+00 0.120D+01
 Coeff:     -0.123D-04 0.424D-04 0.742D-04-0.422D-03-0.785D-02 0.439D-01
 Coeff:     -0.126D+00-0.112D+00 0.120D+01
 Gap=     0.315 Goal=   None    Shift=    0.000
 RMSDP=5.10D-08 MaxDP=1.08D-06 DE=-6.02D-10 OVMax= 4.13D-06

 Cycle  10  Pass 1  IDiag  1:
 E= -535.650192081002     Delta-E=       -0.000000000069 Rises=F Damp=F
 DIIS: error= 8.97D-08 at cycle  10 NSaved=  10.
 NSaved=10 IEnMin=10 EnMin= -535.650192081002     IErMin=10 ErrMin= 8.97D-08
 ErrMax= 8.97D-08  0.00D+00 EMaxC= 1.00D-01 BMatC= 1.05D-12 BMatP= 2.58D-11
 IDIUse=1 WtCom= 1.00D+00 WtEn= 0.00D+00
 Coeff-Com: -0.958D-06 0.683D-06 0.400D-05 0.253D-04 0.320D-03-0.277D-02
 Coeff-Com:  0.149D-01-0.388D-01-0.117D+00 0.114D+01
 Coeff:     -0.958D-06 0.683D-06 0.400D-05 0.253D-04 0.320D-03-0.277D-02
 Coeff:      0.149D-01-0.388D-01-0.117D+00 0.114D+01
 Gap=     0.315 Goal=   None    Shift=    0.000
 RMSDP=1.56D-08 MaxDP=4.77D-07 DE=-6.93D-11 OVMax= 8.35D-07

 Cycle  11  Pass 1  IDiag  1:
 E= -535.650192081007     Delta-E=       -0.000000000005 Rises=F Damp=F
 DIIS: error= 2.13D-08 at cycle  11 NSaved=  11.
 NSaved=11 IEnMin=11 EnMin= -535.650192081007     IErMin=11 ErrMin= 2.13D-08
 ErrMax= 2.13D-08  0.00D+00 EMaxC= 1.00D-01 BMatC= 5.77D-14 BMatP= 1.05D-12
 IDIUse=1 WtCom= 1.00D+00 WtEn= 0.00D+00
 Coeff-Com:  0.992D-06-0.279D-05-0.506D-05 0.213D-04 0.400D-03-0.213D-02
 Coeff-Com:  0.524D-02 0.978D-02-0.609D-01-0.109D+00 0.116D+01
 Coeff:      0.992D-06-0.279D-05-0.506D-05 0.213D-04 0.400D-03-0.213D-02
 Coeff:      0.524D-02 0.978D-02-0.609D-01-0.109D+00 0.116D+01
 Gap=     0.315 Goal=   None    Shift=    0.000
 RMSDP=5.51D-09 MaxDP=1.91D-07 DE=-5.00D-12 OVMax= 2.12D-07

 SCF Done:  E(RHF) =  -535.650192081     A.U. after   11 cycles
            NFock= 11  Conv=0.55D-08     -V/T= 2.0002
 KE= 5.355427526394D+02 PE=-1.361246168990D+03 EE= 2.508252673062D+02
 Leave Link  502 at Tue Oct 19 16:00:54 2021, MaxMem= 16106127360 cpu:              20.0 elap:               1.5
 (Enter /sw/contrib/gaussian/g16/B01/g16/l801.exe)
 ExpMin= 2.53D-02 ExpMax= 4.56D+05 ExpMxC= 1.44D+03 IAcc=3 IRadAn=         5 AccDes= 0.00D+00
 HarFok:  IExCor=  205 AccDes= 0.00D+00 IRadAn=         5 IDoV=-2 UseB2=F ITyADJ=14
 ICtDFT= 12500011 ScaDFX=  1.000000  1.000000  1.000000  1.000000
 Largest valence mixing into a core orbital is  4.53D-04
 Largest core mixing into a valence orbital is  1.83D-04
 Range of M.O.s used for correlation:     7   142
 NBasis=   142 NAE=    14 NBE=    14 NFC=     6 NFV=     0
 NROrb=    136 NOA=     8 NOB=     8 NVA=   128 NVB=   128

 **** Warning!!: The largest alpha MO coefficient is  0.16521861D+02

 Leave Link  801 at Tue Oct 19 16:00:54 2021, MaxMem= 16106127360 cpu:               1.9 elap:               0.1
 (Enter /sw/contrib/gaussian/g16/B01/g16/l906.exe)
 Frozen-core derivative calculation, NFC=   6 NFV=   0.
 FulOut=F Deriv=T AODrv=F NAtomX=     4
   MMem=         252  MDisk=           8 MDiskD=           8
  W3Min=      326032 MinDsk=      657538 NBas6D=         164
 NBas2D=       13905    NTT=       13530    LW2=     3500000
    MDV= 16105867658 MDiskM=      490971 NBas2p=       13814
 Fully in-core method, ICMem=   205321089.
 IMap=   1   2   3   4   5   6   7   8   9  10  11  12  13  14
 JobTyp=1 Pass  1 fully in-core, NPsUse= 28.
 Compute canonical integrals.
 FoFCou: FMM=F IPFlag=           0 FMFlag=           0 FMFlg1=           0
         NFxFlg=           0 DoJE=F BraDBF=F KetDBF=F FulRan=T
         wScrn=  0.000000 ICntrl=       600 IOpCl=  1 I1Cent=           0 NGrid=           0
         NMat0=    1 NMatS0=  13905 NMatT0=    0 NMatD0=    1 NMtDS0=    0 NMtDT0=    0
 Symmetry not used in FoFCou.
 Spin components of T(2) and E(2):
     alpha-alpha T2 =       0.1964506844D-01 E2=     -0.6020443520D-01
     alpha-beta  T2 =       0.1073869106D+00 E2=     -0.3631118014D+00
     beta-beta   T2 =       0.1964506844D-01 E2=     -0.6020443520D-01
 The integrals were generated   1 times.
 ANorm=    0.1070830074D+01
 E2 =    -0.4835206718D+00 EUMP2 =    -0.53613371275285D+03
 Leave Link  906 at Tue Oct 19 16:00:56 2021, MaxMem= 16106127360 cpu:              50.1 elap:               1.8
 (Enter /sw/contrib/gaussian/g16/B01/g16/l1002.exe)
 Minotr:  Closed shell wavefunction.
          Computing MP2/KS-MP2 derivatives.
          Using Z-Vector for PSCF gradient.
          Skipping F1 and S1 gradient terms here.
          Frozen-core window.
          Direct CPHF calculation.
          Differentiating once with respect to electric field.
                with respect to dipole field.
          Electric field/nuclear overlap derivatives assumed to be zero.
          Requested convergence is 1.0D-10 RMS, and 1.0D-09 maximum.
          NewPWx=F KeepS1=T KeepF1=T KeepIn=T MapXYZ=F SortEE=F KeepMc=T.
 Keep R1 ints in memory in canonical form, NReq=65349072.
 FoFCou: FMM=F IPFlag=           0 FMFlag=           0 FMFlg1=           0
         NFxFlg=           0 DoJE=F BraDBF=F KetDBF=F FulRan=T
         wScrn=  0.000000 ICntrl=       600 IOpCl=  0 I1Cent=           0 NGrid=           0
         NMat0=    1 NMatS0=  10153 NMatT0=    0 NMatD0=    1 NMtDS0=    0 NMtDT0=    0
 Symmetry not used in FoFCou.
 Two-electron integral symmetry not used.
          MDV=   16106127360 using IRadAn=       5.
          Solving linear equations separately, MaxMat=       0.
          There are     1 degrees of freedom in the 1st order CPHF.  IDoFFX=0 NUNeed=     1.
 LinEq1:  Iter=  0 NonCon=     1 RMS=3.01D-03 Max=3.89D-02 NDo=     1
 AX will form     1 AO Fock derivatives at one time.
 LinEq1:  Iter=  1 NonCon=     1 RMS=3.76D-04 Max=5.49D-03 NDo=     1
 LinEq1:  Iter=  2 NonCon=     1 RMS=1.13D-04 Max=1.20D-03 NDo=     1
 LinEq1:  Iter=  3 NonCon=     1 RMS=3.68D-05 Max=3.38D-04 NDo=     1
 LinEq1:  Iter=  4 NonCon=     1 RMS=1.06D-05 Max=9.43D-05 NDo=     1
 LinEq1:  Iter=  5 NonCon=     1 RMS=2.66D-06 Max=2.75D-05 NDo=     1
 LinEq1:  Iter=  6 NonCon=     1 RMS=6.56D-07 Max=9.17D-06 NDo=     1
 LinEq1:  Iter=  7 NonCon=     1 RMS=1.64D-07 Max=1.57D-06 NDo=     1
 LinEq1:  Iter=  8 NonCon=     1 RMS=3.86D-08 Max=4.13D-07 NDo=     1
 LinEq1:  Iter=  9 NonCon=     1 RMS=6.80D-09 Max=9.20D-08 NDo=     1
 LinEq1:  Iter= 10 NonCon=     1 RMS=1.11D-09 Max=1.00D-08 NDo=     1
 LinEq1:  Iter= 11 NonCon=     1 RMS=2.77D-10 Max=2.48D-09 NDo=     1
 LinEq1:  Iter= 12 NonCon=     0 RMS=7.19D-11 Max=6.63D-10 NDo=     1
 Linear equations converged to 1.000D-10 1.000D-09 after    12 iterations.
 End of Minotr F.D. properties file   721 does not exist.
 End of Minotr F.D. properties file   722 does not exist.
 End of Minotr F.D. properties file   788 does not exist.
 Leave Link 1002 at Tue Oct 19 16:00:58 2021, MaxMem= 16106127360 cpu:              35.3 elap:               2.3
 (Enter /sw/contrib/gaussian/g16/B01/g16/l601.exe)
 Copying SCF densities to generalized density rwf, IOpCl= 0 IROHF=0.

 **********************************************************************

            Population analysis using the MP2 Density.

 **********************************************************************

 Alpha  occ. eigenvalues -- -104.52975 -20.37779 -10.25421  -7.72031  -7.72024
 Alpha  occ. eigenvalues --   -7.72023  -1.15841  -0.76492  -0.51596  -0.40595
 Alpha  occ. eigenvalues --   -0.32291  -0.18184  -0.17722  -0.17672
 Alpha virt. eigenvalues --    0.13867   0.18198   0.25655   0.26699   0.27621
 Alpha virt. eigenvalues --    0.28781   0.30514   0.30988   0.35236   0.39727
 Alpha virt. eigenvalues --    0.41271   0.41956   0.43403   0.49751   0.55182
 Alpha virt. eigenvalues --    0.55714   0.58075   0.59393   0.61178   0.66907
 Alpha virt. eigenvalues --    0.68270   0.69901   0.72821   0.81919   0.85632
 Alpha virt. eigenvalues --    0.87058   0.88805   0.89649   0.92097   0.93768
 Alpha virt. eigenvalues --    1.01182   1.03373   1.04459   1.07211   1.09256
 Alpha virt. eigenvalues --    1.09718   1.10946   1.11912   1.14982   1.18696
 Alpha virt. eigenvalues --    1.19963   1.20049   1.22675   1.25966   1.28419
 Alpha virt. eigenvalues --    1.31522   1.32457   1.39914   1.42057   1.44574
 Alpha virt. eigenvalues --    1.44837   1.50491   1.57293   1.59197   1.62081
 Alpha virt. eigenvalues --    1.67989   1.70386   1.74239   1.78520   1.80647
 Alpha virt. eigenvalues --    1.88757   1.90955   2.09599   2.12704   2.25999
 Alpha virt. eigenvalues --    2.46229   2.51794   2.58205   2.62625   2.63613
 Alpha virt. eigenvalues --    2.64620   2.66445   2.73878   2.80547   2.80906
 Alpha virt. eigenvalues --    2.86409   2.89850   2.91776   2.92525   2.97994
 Alpha virt. eigenvalues --    2.99729   3.01166   3.07541   3.16512   3.19478
 Alpha virt. eigenvalues --    3.34509   3.34543   3.39550   3.39730   3.41336
 Alpha virt. eigenvalues --    3.50781   3.53479   3.60953   3.87965   4.20711
 Alpha virt. eigenvalues --    4.24049   4.34647   4.37861   4.45556   4.45795
 Alpha virt. eigenvalues --    4.56596   4.58913   4.64126   4.77850   4.97166
 Alpha virt. eigenvalues --    5.11349   5.29973   5.38009   5.45702   5.52010
 Alpha virt. eigenvalues --    5.68802   5.79840   6.25133   6.48975   6.73200
 Alpha virt. eigenvalues --    6.91407   7.11197   7.29578   7.44176   7.45232
 Alpha virt. eigenvalues --    7.48246   7.55595   7.63395   7.80469   8.09247
 Alpha virt. eigenvalues --    8.14331   8.96762  16.17873
          Condensed to atoms (all electrons):
               1          2          3          4
     1  O    8.263078   0.210355  -0.069467   0.140951
     2  H    0.210355   0.607775   0.004384   0.011775
     3  Cl  -0.069467   0.004384  17.931074   0.046786
     4  H    0.140951   0.011775   0.046786   0.508505
 Mulliken charges:
               1
     1  O   -0.544917
     2  H    0.165710
     3  Cl  -0.912776
     4  H    0.291982
 Sum of Mulliken charges =  -1.00000
 Mulliken charges with hydrogens summed into heavy atoms:
               1
     1  O   -0.087224
     3  Cl  -0.912776
 Electronic spatial extent (au):  <R**2>=            669.6689
 Charge=             -1.0000 electrons
 Dipole moment (field-independent basis, Debye):
    X=              3.7089    Y=             11.5318    Z=              0.0689  Tot=             12.1138
 Quadrupole moment (field-independent basis, Debye-Ang):
   XX=            -24.1287   YY=            -62.9072   ZZ=            -25.1126
   XY=             -7.4798   XZ=             -0.0319   YZ=             -0.0726
 Traceless Quadrupole moment (field-independent basis, Debye-Ang):
   XX=             13.2541   YY=            -25.5243   ZZ=             12.2702
   XY=             -7.4798   XZ=             -0.0319   YZ=             -0.0726
 Octapole moment (field-independent basis, Debye-Ang**2):
  XXX=             32.8452  YYY=            273.0124  ZZZ=             -0.3127  XYY=             33.8166
  XXY=             56.5288  XXZ=             -0.1189  XZZ=              9.9735  YZZ=             51.6285
  YYZ=             -0.3894  XYZ=             -0.0618
 Hexadecapole moment (field-independent basis, Debye-Ang**3):
 XXXX=            -76.4692 YYYY=          -1321.3448 ZZZZ=            -37.5091 XXXY=            -98.7806
 XXXZ=              0.0580 YYYX=           -166.9085 YYYZ=              1.5729 ZZZX=              0.0560
 ZZZY=              0.3696 XXYY=           -188.9622 XXZZ=            -19.2547 YYZZ=           -167.7994
 XXYZ=              0.1683 YYXZ=              0.2619 ZZXY=            -31.9599
 N-N= 3.922795696385D+01 E-N=-1.361192398838D+03  KE= 5.360238797616D+02
 No NMR shielding tensors so no spin-rotation constants.
 Leave Link  601 at Tue Oct 19 16:00:58 2021, MaxMem= 16106127360 cpu:               4.3 elap:               0.2
 (Enter /sw/contrib/gaussian/g16/B01/g16/l607.exe)
 ******************************Gaussian NBO Version 3.1******************************
             N A T U R A L   A T O M I C   O R B I T A L   A N D
          N A T U R A L   B O N D   O R B I T A L   A N A L Y S I S
 ******************************Gaussian NBO Version 3.1******************************
       /RESON  / : Allow strongly delocalized NBO set

 Analyzing the MP2 density

 Job title: title                                                           

 Storage needed:     61222 in NPA,     81148 in NBO (********** available)
 GSVD:  LWork=       -1046 too small for GESVD, short by       42557 words or       42557 for optimal perf.


 NATURAL POPULATIONS:  Natural atomic orbital occupancies 
                                                          
   NAO  Atom  No  lang   Type(AO)    Occupancy
 --------------------------------------------
     1    O    1  S      Cor( 1S)     1.99967
     2    O    1  S      Val( 2S)     1.74224
     3    O    1  S      Ryd( 3S)     0.00596
     4    O    1  S      Ryd( 4S)     0.00045
     5    O    1  S      Ryd( 5S)     0.00018
     6    O    1  px     Val( 2p)     1.52118
     7    O    1  px     Ryd( 3p)     0.00988
     8    O    1  px     Ryd( 4p)     0.00052
     9    O    1  px     Ryd( 5p)     0.00007
    10    O    1  py     Val( 2p)     1.67712
    11    O    1  py     Ryd( 3p)     0.01150
    12    O    1  py     Ryd( 4p)     0.00061
    13    O    1  py     Ryd( 5p)     0.00009
    14    O    1  pz     Val( 2p)     1.95134
    15    O    1  pz     Ryd( 3p)     0.02083
    16    O    1  pz     Ryd( 4p)     0.00060
    17    O    1  pz     Ryd( 5p)     0.00001
    18    O    1  dxy    Ryd( 3d)     0.00812
    19    O    1  dxy    Ryd( 4d)     0.00041
    20    O    1  dxy    Ryd( 5d)     0.00006
    21    O    1  dxz    Ryd( 3d)     0.00820
    22    O    1  dxz    Ryd( 4d)     0.00045
    23    O    1  dxz    Ryd( 5d)     0.00006
    24    O    1  dyz    Ryd( 3d)     0.00765
    25    O    1  dyz    Ryd( 4d)     0.00047
    26    O    1  dyz    Ryd( 5d)     0.00010
    27    O    1  dx2y2  Ryd( 3d)     0.01243
    28    O    1  dx2y2  Ryd( 4d)     0.00031
    29    O    1  dx2y2  Ryd( 5d)     0.00009
    30    O    1  dz2    Ryd( 3d)     0.00899
    31    O    1  dz2    Ryd( 4d)     0.00045
    32    O    1  dz2    Ryd( 5d)     0.00011
    33    O    1  f(0)   Ryd( 4f)     0.00063
    34    O    1  f(0)   Ryd( 5f)     0.00010
    35    O    1  f(C1)  Ryd( 4f)     0.00056
    36    O    1  f(C1)  Ryd( 5f)     0.00008
    37    O    1  f(S1)  Ryd( 4f)     0.00057
    38    O    1  f(S1)  Ryd( 5f)     0.00009
    39    O    1  f(C2)  Ryd( 4f)     0.00046
    40    O    1  f(C2)  Ryd( 5f)     0.00009
    41    O    1  f(S2)  Ryd( 4f)     0.00046
    42    O    1  f(S2)  Ryd( 5f)     0.00007
    43    O    1  f(C3)  Ryd( 4f)     0.00042
    44    O    1  f(C3)  Ryd( 5f)     0.00012
    45    O    1  f(S3)  Ryd( 4f)     0.00040
    46    O    1  f(S3)  Ryd( 5f)     0.00009

    47    H    2  S      Val( 1S)     0.55136
    48    H    2  S      Ryd( 2S)     0.00166
    49    H    2  S      Ryd( 3S)     0.00017
    50    H    2  S      Ryd( 4S)     0.00007
    51    H    2  px     Ryd( 2p)     0.00159
    52    H    2  px     Ryd( 3p)     0.00053
    53    H    2  px     Ryd( 4p)     0.00013
    54    H    2  py     Ryd( 2p)     0.00186
    55    H    2  py     Ryd( 3p)     0.00022
    56    H    2  py     Ryd( 4p)     0.00009
    57    H    2  pz     Ryd( 2p)     0.00509
    58    H    2  pz     Ryd( 3p)     0.00019
    59    H    2  pz     Ryd( 4p)     0.00005
    60    H    2  dxy    Ryd( 3d)     0.00006
    61    H    2  dxy    Ryd( 4d)     0.00005
    62    H    2  dxz    Ryd( 3d)     0.00008
    63    H    2  dxz    Ryd( 4d)     0.00006
    64    H    2  dyz    Ryd( 3d)     0.00012
    65    H    2  dyz    Ryd( 4d)     0.00004
    66    H    2  dx2y2  Ryd( 3d)     0.00009
    67    H    2  dx2y2  Ryd( 4d)     0.00004
    68    H    2  dz2    Ryd( 3d)     0.00011
    69    H    2  dz2    Ryd( 4d)     0.00007

    70   Cl    3  S      Cor( 1S)     2.00001
    71   Cl    3  S      Cor( 2S)     2.00000
    72   Cl    3  S      Val( 3S)     1.97562
    73   Cl    3  S      Ryd( 4S)     0.00230
    74   Cl    3  S      Ryd( 5S)     0.00024
    75   Cl    3  S      Ryd( 6S)     0.00006
    76   Cl    3  px     Cor( 2p)     2.00003
    77   Cl    3  px     Val( 3p)     1.95031
    78   Cl    3  px     Ryd( 4p)     0.01312
    79   Cl    3  px     Ryd( 5p)     0.00058
    80   Cl    3  px     Ryd( 6p)     0.00002
    81   Cl    3  py     Cor( 2p)     2.00002
    82   Cl    3  py     Val( 3p)     1.90739
    83   Cl    3  py     Ryd( 4p)     0.01122
    84   Cl    3  py     Ryd( 5p)     0.00055
    85   Cl    3  py     Ryd( 6p)     0.00010
    86   Cl    3  pz     Cor( 2p)     2.00003
    87   Cl    3  pz     Val( 3p)     1.95246
    88   Cl    3  pz     Ryd( 4p)     0.01317
    89   Cl    3  pz     Ryd( 5p)     0.00058
    90   Cl    3  pz     Ryd( 6p)     0.00001
    91   Cl    3  dxy    Ryd( 3d)     0.01839
    92   Cl    3  dxy    Ryd( 4d)     0.00073
    93   Cl    3  dxy    Ryd( 5d)     0.00011
    94   Cl    3  dxz    Ryd( 3d)     0.01827
    95   Cl    3  dxz    Ryd( 4d)     0.00097
    96   Cl    3  dxz    Ryd( 5d)     0.00011
    97   Cl    3  dyz    Ryd( 3d)     0.01842
    98   Cl    3  dyz    Ryd( 4d)     0.00074
    99   Cl    3  dyz    Ryd( 5d)     0.00011
   100   Cl    3  dx2y2  Ryd( 3d)     0.01810
   101   Cl    3  dx2y2  Ryd( 4d)     0.00085
   102   Cl    3  dx2y2  Ryd( 5d)     0.00012
   103   Cl    3  dz2    Ryd( 3d)     0.01821
   104   Cl    3  dz2    Ryd( 4d)     0.00094
   105   Cl    3  dz2    Ryd( 5d)     0.00011
   106   Cl    3  f(0)   Ryd( 4f)     0.00128
   107   Cl    3  f(0)   Ryd( 5f)     0.00015
   108   Cl    3  f(C1)  Ryd( 4f)     0.00129
   109   Cl    3  f(C1)  Ryd( 5f)     0.00014
   110   Cl    3  f(S1)  Ryd( 4f)     0.00128
   111   Cl    3  f(S1)  Ryd( 5f)     0.00016
   112   Cl    3  f(C2)  Ryd( 4f)     0.00128
   113   Cl    3  f(C2)  Ryd( 5f)     0.00015
   114   Cl    3  f(S2)  Ryd( 4f)     0.00130
   115   Cl    3  f(S2)  Ryd( 5f)     0.00015
   116   Cl    3  f(C3)  Ryd( 4f)     0.00126
   117   Cl    3  f(C3)  Ryd( 5f)     0.00015
   118   Cl    3  f(S3)  Ryd( 4f)     0.00127
   119   Cl    3  f(S3)  Ryd( 5f)     0.00016

   120    H    4  S      Val( 1S)     0.48653
   121    H    4  S      Ryd( 2S)     0.00692
   122    H    4  S      Ryd( 3S)     0.00030
   123    H    4  S      Ryd( 4S)     0.00009
   124    H    4  px     Ryd( 2p)     0.00334
   125    H    4  px     Ryd( 3p)     0.00040
   126    H    4  px     Ryd( 4p)     0.00008
   127    H    4  py     Ryd( 2p)     0.00422
   128    H    4  py     Ryd( 3p)     0.00057
   129    H    4  py     Ryd( 4p)     0.00020
   130    H    4  pz     Ryd( 2p)     0.00358
   131    H    4  pz     Ryd( 3p)     0.00044
   132    H    4  pz     Ryd( 4p)     0.00008
   133    H    4  dxy    Ryd( 3d)     0.00017
   134    H    4  dxy    Ryd( 4d)     0.00009
   135    H    4  dxz    Ryd( 3d)     0.00015
   136    H    4  dxz    Ryd( 4d)     0.00005
   137    H    4  dyz    Ryd( 3d)     0.00018
   138    H    4  dyz    Ryd( 4d)     0.00009
   139    H    4  dx2y2  Ryd( 3d)     0.00017
   140    H    4  dx2y2  Ryd( 4d)     0.00009
   141    H    4  dz2    Ryd( 3d)     0.00017
   142    H    4  dz2    Ryd( 4d)     0.00007


 Summary of Natural Population Analysis:                  
                                                          
                                       Natural Population 
                Natural  -----------------------------------------------
    Atom  No    Charge         Core      Valence    Rydberg      Total
 -----------------------------------------------------------------------
      O    1   -0.99429      1.99967     6.89187    0.10275     8.99429
      H    2    0.43628      0.00000     0.55136    0.01236     0.56372
     Cl    3   -0.93400     10.00009     7.78578    0.14813    17.93400
      H    4    0.49202      0.00000     0.48653    0.02145     0.50798
 =======================================================================
   * Total *   -1.00000     11.99976    15.71554    0.28470    28.00000

                                 Natural Population      
 --------------------------------------------------------
   Core                      11.99976 ( 99.9980% of  12)
   Valence                   15.71554 ( 98.2221% of  16)
   Natural Minimal Basis     27.71530 ( 98.9832% of  28)
   Natural Rydberg Basis      0.28470 (  1.0168% of  28)
 --------------------------------------------------------

    Atom  No          Natural Electron Configuration
 ----------------------------------------------------------------------------
      O    1      [core]2S( 1.74)2p( 5.15)3S( 0.01)3p( 0.04)3d( 0.05)
      H    2            1S( 0.55)2p( 0.01)
     Cl    3      [core]3S( 1.98)3p( 5.81)3d( 0.09)4p( 0.04)4f( 0.01)
      H    4            1S( 0.49)2S( 0.01)2p( 0.01)


 NATURAL BOND ORBITAL ANALYSIS:
 Warning:  a bond orbital has occupanc of -0.00004

                       Occupancies       Lewis Structure    Low   High
           Occ.    -------------------  -----------------   occ   occ
  Cycle   Thresh.   Lewis   Non-Lewis     CR  BD  3C  LP    (L)   (NL)   Dev
 =============================================================================
   1(1)    1.90    27.64934   0.35066      6   2   0   6     0      0    0.08
 -----------------------------------------------------------------------------

 Structure accepted: No low occupancy Lewis orbitals

 --------------------------------------------------------
   Core                     11.99976 ( 99.998% of  12)
   Valence Lewis            15.64958 ( 97.810% of  16)
  ==================       ============================
   Total Lewis              27.64934 ( 98.748% of  28)
  -----------------------------------------------------
   Valence non-Lewis         0.09170 (  0.327% of  28)
   Rydberg non-Lewis         0.25897 (  0.925% of  28)
  ==================       ============================
   Total non-Lewis           0.35066 (  1.252% of  28)
 --------------------------------------------------------


       (Occupancy)   Bond orbital/ Coefficients/ Hybrids
 ---------------------------------------------------------------------------------
     1. (1.96565) BD ( 1) O   1 - H   2  
                ( 72.71%)   0.8527* O   1 s( 20.95%)p 3.75( 78.58%)d 0.02(  0.46%)
                                                  f 0.00(  0.01%)
                                            0.0002  0.4576 -0.0056 -0.0021 -0.0023
                                            0.8840 -0.0324  0.0093 -0.0033  0.0545
                                           -0.0141  0.0008 -0.0033 -0.0032  0.0014
                                           -0.0001  0.0002 -0.0188  0.0032  0.0008
                                            0.0023 -0.0004 -0.0002 -0.0006 -0.0000
                                           -0.0004  0.0544 -0.0040 -0.0042 -0.0349
                                            0.0018 -0.0004  0.0000 -0.0000 -0.0098
                                            0.0003 -0.0002  0.0000 -0.0002  0.0001
                                           -0.0011  0.0006  0.0037  0.0039  0.0021
                                           -0.0008
                ( 27.29%)   0.5224* H   2 s( 99.87%)p 0.00(  0.12%)d 0.00(  0.00%)
                                            0.9994  0.0035 -0.0001  0.0002  0.0190
                                            0.0274 -0.0049 -0.0093 -0.0038 -0.0022
                                            0.0019  0.0006  0.0002 -0.0003  0.0025
                                            0.0000 -0.0002 -0.0004 -0.0001 -0.0013
                                            0.0013 -0.0009 -0.0009
     2. (1.96808) BD ( 1) O   1 - H   4  
                ( 78.06%)   0.8835* O   1 s( 26.89%)p 2.70( 72.69%)d 0.02(  0.41%)
                                                  f 0.00(  0.01%)
                                           -0.0003 -0.5186  0.0014  0.0018  0.0008
                                            0.2149 -0.0179  0.0019 -0.0015  0.8209
                                           -0.0131  0.0065 -0.0022 -0.0792  0.0008
                                           -0.0008  0.0007  0.0033 -0.0025 -0.0013
                                           -0.0003  0.0003  0.0002  0.0111 -0.0009
                                            0.0000  0.0521 -0.0039 -0.0008  0.0343
                                           -0.0023  0.0014  0.0020 -0.0001 -0.0018
                                           -0.0001 -0.0084  0.0004  0.0014  0.0001
                                           -0.0006 -0.0002 -0.0028 -0.0015 -0.0017
                                           -0.0018
                ( 21.94%)   0.4684* H   4 s( 99.90%)p 0.00(  0.09%)d 0.00(  0.00%)
                                           -0.9991 -0.0275 -0.0010  0.0005 -0.0167
                                           -0.0025 -0.0011 -0.0018 -0.0237 -0.0090
                                           -0.0033  0.0024  0.0008  0.0020  0.0018
                                           -0.0003 -0.0002  0.0002 -0.0003 -0.0030
                                            0.0011  0.0002  0.0013
     3. (1.99967) CR ( 1) O   1           s(100.00%)
                                            1.0000 -0.0004  0.0000  0.0000  0.0000
                                           -0.0001  0.0000 -0.0000  0.0000  0.0001
                                           -0.0000  0.0000  0.0000 -0.0000  0.0000
                                           -0.0000  0.0000 -0.0000 -0.0000 -0.0000
                                            0.0000  0.0000  0.0000  0.0000 -0.0000
                                            0.0000  0.0000 -0.0000  0.0000  0.0000
                                           -0.0000  0.0000  0.0000  0.0000  0.0000
                                            0.0000 -0.0000 -0.0000  0.0000  0.0000
                                           -0.0000 -0.0000 -0.0000 -0.0000 -0.0000
                                           -0.0000
     4. (2.00001) CR ( 1)Cl   3           s(100.00%)
                                            1.0000 -0.0000  0.0000  0.0000 -0.0000
                                            0.0000  0.0000  0.0000 -0.0000 -0.0000
                                            0.0000  0.0000  0.0001 -0.0000 -0.0000
                                            0.0000  0.0000  0.0000  0.0000 -0.0000
                                            0.0000  0.0000  0.0000  0.0000  0.0000
                                            0.0000 -0.0000  0.0000  0.0000  0.0000
                                           -0.0000 -0.0000  0.0000 -0.0000 -0.0000
                                           -0.0000 -0.0000 -0.0000 -0.0000 -0.0000
                                           -0.0000 -0.0000 -0.0000 -0.0000  0.0000
                                            0.0000 -0.0000 -0.0000 -0.0000 -0.0000
     5. (2.00000) CR ( 2)Cl   3           s(100.00%)
                                           -0.0000  1.0000  0.0000  0.0000 -0.0000
                                            0.0000  0.0000  0.0000 -0.0000 -0.0000
                                            0.0000  0.0000  0.0000 -0.0000 -0.0000
                                            0.0000  0.0000  0.0000  0.0000 -0.0000
                                            0.0000  0.0000  0.0000  0.0000  0.0000
                                            0.0000 -0.0000  0.0000  0.0000  0.0000
                                           -0.0000 -0.0000  0.0000 -0.0000 -0.0000
                                           -0.0000 -0.0000 -0.0000 -0.0000 -0.0000
                                           -0.0000 -0.0000 -0.0000 -0.0000  0.0000
                                            0.0000 -0.0000 -0.0000 -0.0000 -0.0000
     6. (2.00003) CR ( 3)Cl   3           s(  0.00%)p 1.00(100.00%)
                                            0.0000  0.0000 -0.0000 -0.0000  0.0000
                                           -0.0000  1.0000  0.0000  0.0000  0.0000
                                           -0.0000 -0.0000 -0.0000  0.0000  0.0000
                                           -0.0000 -0.0000 -0.0000 -0.0000  0.0000
                                           -0.0000  0.0000  0.0000 -0.0000  0.0000
                                            0.0000  0.0000 -0.0000 -0.0000 -0.0000
                                            0.0000  0.0000  0.0000  0.0000  0.0000
                                           -0.0000  0.0000  0.0000 -0.0000 -0.0000
                                            0.0000  0.0000  0.0000  0.0000  0.0000
                                            0.0000 -0.0000 -0.0000  0.0000  0.0000
     7. (2.00002) CR ( 4)Cl   3           s(  0.00%)p 1.00(100.00%)
                                            0.0000  0.0000 -0.0000 -0.0000 -0.0000
                                           -0.0000 -0.0000 -0.0000 -0.0000  0.0000
                                           -0.0000  1.0000 -0.0001  0.0000  0.0000
                                           -0.0000 -0.0000 -0.0000 -0.0000  0.0000
                                           -0.0000 -0.0000 -0.0000  0.0000 -0.0000
                                           -0.0000 -0.0000 -0.0000 -0.0000 -0.0000
                                            0.0000  0.0000 -0.0000  0.0000  0.0000
                                            0.0000  0.0000  0.0000  0.0000  0.0000
                                            0.0000  0.0000  0.0000  0.0000 -0.0000
                                           -0.0000  0.0000  0.0000  0.0000  0.0000
     8. (2.00003) CR ( 5)Cl   3           s(  0.00%)p 1.00(100.00%)
                                            0.0000  0.0000 -0.0000 -0.0000  0.0000
                                           -0.0000 -0.0000 -0.0000 -0.0000  0.0000
                                           -0.0000 -0.0000 -0.0000  0.0000  0.0000
                                           -0.0000  1.0000  0.0000  0.0000  0.0000
                                           -0.0000 -0.0000 -0.0000 -0.0000  0.0000
                                            0.0000  0.0000  0.0000  0.0000 -0.0000
                                            0.0000  0.0000 -0.0000  0.0000  0.0000
                                            0.0000 -0.0000 -0.0000  0.0000  0.0000
                                            0.0000  0.0000 -0.0000 -0.0000  0.0000
                                            0.0000  0.0000  0.0000  0.0000  0.0000
     9. (1.96962) LP ( 1) O   1           s( 52.07%)p 0.92( 47.82%)d 0.00(  0.11%)
                                                  f 0.00(  0.00%)
                                            0.0002  0.7216  0.0027  0.0020  0.0011
                                           -0.4072 -0.0044  0.0022  0.0001  0.5560
                                            0.0087 -0.0047  0.0007 -0.0555 -0.0009
                                            0.0004  0.0002  0.0286 -0.0039  0.0015
                                           -0.0031  0.0005  0.0001  0.0033 -0.0005
                                           -0.0002  0.0053 -0.0002  0.0013  0.0139
                                           -0.0020 -0.0012  0.0007 -0.0002  0.0028
                                           -0.0007 -0.0028  0.0009  0.0004 -0.0002
                                            0.0006 -0.0003  0.0011 -0.0015  0.0010
                                           -0.0002
    10. (1.95953) LP ( 2) O   1           s(  0.00%)p 1.00( 99.80%)d 0.00(  0.19%)
                                                  f 0.00(  0.01%)
                                           -0.0000  0.0004  0.0016  0.0013 -0.0002
                                           -0.0025  0.0003 -0.0001  0.0001  0.0968
                                            0.0026 -0.0005  0.0002  0.9938  0.0286
                                           -0.0069  0.0034  0.0032 -0.0004  0.0001
                                            0.0331 -0.0036  0.0008 -0.0267  0.0025
                                           -0.0041  0.0027 -0.0003  0.0003  0.0056
                                           -0.0007  0.0001 -0.0092  0.0026 -0.0003
                                            0.0001 -0.0024  0.0009 -0.0007  0.0015
                                            0.0022 -0.0005 -0.0002 -0.0000  0.0000
                                            0.0001
    11. (1.97900) LP ( 1)Cl   3           s( 95.65%)p 0.05(  4.35%)d 0.00(  0.00%)
                                                  f 0.00(  0.00%)
                                            0.0000  0.0000  0.9780 -0.0003  0.0000
                                           -0.0001  0.0000 -0.0422  0.0004 -0.0001
                                            0.0001  0.0000 -0.2040  0.0010 -0.0006
                                            0.0002  0.0000 -0.0116  0.0001 -0.0000
                                            0.0000  0.0003  0.0002 -0.0002 -0.0000
                                            0.0000 -0.0000  0.0000  0.0001 -0.0000
                                           -0.0006 -0.0002  0.0003 -0.0005 -0.0002
                                            0.0002 -0.0000 -0.0000 -0.0001 -0.0001
                                           -0.0004 -0.0003 -0.0001 -0.0000  0.0000
                                            0.0000 -0.0003 -0.0002 -0.0004 -0.0002
    12. (1.95277) LP ( 2)Cl   3           s(  0.00%)p 1.00( 99.99%)d 0.00(  0.01%)
                                                  f 0.00(  0.00%)
                                           -0.0000  0.0000  0.0012  0.0001 -0.0004
                                            0.0005 -0.0000  0.0761  0.0002  0.0001
                                           -0.0001 -0.0000  0.0466 -0.0002 -0.0001
                                            0.0001  0.0000 -0.9960 -0.0008 -0.0010
                                            0.0001  0.0007  0.0002 -0.0000 -0.0025
                                           -0.0012 -0.0007 -0.0063 -0.0013  0.0007
                                           -0.0001  0.0001  0.0002 -0.0011 -0.0005
                                           -0.0002  0.0016  0.0011 -0.0002 -0.0001
                                           -0.0005 -0.0004  0.0016  0.0010 -0.0009
                                           -0.0007 -0.0002 -0.0001 -0.0000  0.0000
    13. (1.95253) LP ( 3)Cl   3           s(  0.00%)p 1.00( 99.99%)d 0.00(  0.01%)
                                                  f 0.00(  0.00%)
                                            0.0000  0.0000 -0.0015  0.0002  0.0016
                                           -0.0013 -0.0000  0.9750  0.0020  0.0012
                                           -0.0007  0.0000 -0.2126  0.0003  0.0001
                                           -0.0006 -0.0000  0.0646  0.0000  0.0001
                                           -0.0000  0.0064  0.0012 -0.0007  0.0008
                                            0.0004  0.0002  0.0002  0.0000 -0.0001
                                            0.0044  0.0016  0.0004 -0.0005 -0.0006
                                           -0.0005 -0.0001 -0.0001 -0.0007 -0.0005
                                            0.0001  0.0000  0.0000  0.0000  0.0004
                                            0.0003 -0.0017 -0.0009  0.0016  0.0010
    14. (1.90240) LP ( 4)Cl   3           s(  4.35%)p21.99( 95.62%)d 0.01(  0.03%)
                                                  f 0.00(  0.00%)
                                           -0.0001 -0.0000  0.2085  0.0015 -0.0001
                                            0.0005  0.0000  0.2044  0.0001 -0.0005
                                            0.0002  0.0001  0.9543 -0.0027 -0.0024
                                            0.0006  0.0000  0.0605  0.0004 -0.0001
                                            0.0001  0.0068  0.0014  0.0001  0.0006
                                            0.0001 -0.0000  0.0025  0.0007  0.0001
                                           -0.0124 -0.0023  0.0006 -0.0086 -0.0020
                                           -0.0001 -0.0005 -0.0002 -0.0006 -0.0003
                                           -0.0026 -0.0012 -0.0005 -0.0002  0.0002
                                            0.0001 -0.0018 -0.0006 -0.0024 -0.0009
    15. (0.01953) RY*( 1) O   1           s(  0.00%)p 1.00( 98.57%)d 0.01(  1.41%)
                                                  f 0.00(  0.02%)
                                           -0.0000 -0.0001  0.0059  0.0033 -0.0006
                                            0.0002 -0.0006 -0.0003  0.0000 -0.0029
                                            0.0946  0.0032 -0.0020 -0.0333  0.9871
                                            0.0298 -0.0166  0.0098 -0.0014 -0.0003
                                            0.0981 -0.0144 -0.0056 -0.0611  0.0125
                                            0.0034  0.0057 -0.0012 -0.0006  0.0138
                                           -0.0029 -0.0021 -0.0081  0.0095  0.0003
                                            0.0002 -0.0025  0.0029 -0.0038  0.0028
                                           -0.0013 -0.0010  0.0004 -0.0002 -0.0001
                                            0.0000
    16. (0.01517) RY*( 2) O   1           s( 20.46%)p 3.76( 76.97%)d 0.12(  2.48%)
                                                  f 0.00(  0.08%)
                                            0.0000 -0.0094  0.4522  0.0058  0.0003
                                            0.0074 -0.4728 -0.0133  0.0062 -0.0086
                                            0.7351  0.0106 -0.0109  0.0006 -0.0732
                                           -0.0021  0.0022  0.1533 -0.0166 -0.0014
                                           -0.0170  0.0023  0.0013  0.0068 -0.0015
                                            0.0001 -0.0029  0.0028  0.0032  0.0236
                                           -0.0110 -0.0038 -0.0011 -0.0001  0.0026
                                           -0.0017  0.0039  0.0011 -0.0022  0.0005
                                            0.0033 -0.0022  0.0212 -0.0128  0.0119
                                           -0.0038
    17. (0.00703) RY*( 3) O   1           s(  1.98%)p36.93( 73.04%)d12.40( 24.52%)
                                                  f 0.23(  0.46%)
                                            0.0000 -0.0005  0.1330 -0.0427  0.0163
                                           -0.0599 -0.6979 -0.0418  0.0230 -0.0360
                                           -0.4835 -0.0224  0.0023  0.0027  0.0443
                                            0.0035 -0.0043 -0.2032 -0.0095 -0.0025
                                           -0.0070 -0.0001 -0.0006 -0.0071  0.0037
                                            0.0039  0.4470  0.0443  0.0269  0.0330
                                            0.0079  0.0090  0.0019  0.0001 -0.0287
                                            0.0148 -0.0186  0.0078  0.0027 -0.0008
                                           -0.0015  0.0000  0.0229 -0.0161 -0.0429
                                            0.0217
    18. (0.00620) RY*( 4) O   1           s(  7.57%)p 0.21(  1.55%)d11.87( 89.86%)
                                                  f 0.13(  1.01%)
                                           -0.0000  0.0109  0.2749  0.0066  0.0040
                                            0.0055  0.1167  0.0062 -0.0068  0.0204
                                            0.0359 -0.0024 -0.0060 -0.0056 -0.0042
                                            0.0026 -0.0006 -0.6565 -0.0189  0.0028
                                           -0.3062 -0.0193 -0.0060 -0.5445 -0.0275
                                            0.0006 -0.1826 -0.0033  0.0012  0.2052
                                            0.0195  0.0088 -0.0173  0.0105 -0.0035
                                            0.0070  0.0075 -0.0057 -0.0591  0.0316
                                           -0.0052  0.0017 -0.0608  0.0242 -0.0258
                                            0.0098
    19. (0.00617) RY*( 5) O   1           s(  5.67%)p 0.05(  0.26%)d16.42( 93.06%)
                                                  f 0.18(  1.01%)
                                           -0.0000  0.0094  0.2379  0.0006  0.0041
                                           -0.0016  0.0476  0.0011 -0.0034  0.0157
                                            0.0057 -0.0047 -0.0013  0.0015 -0.0034
                                           -0.0031 -0.0010 -0.5497 -0.0143  0.0032
                                            0.4659  0.0253  0.0060  0.6006  0.0356
                                            0.0039 -0.2197 -0.0060  0.0024 -0.0071
                                            0.0065  0.0081  0.0095 -0.0051 -0.0063
                                            0.0074  0.0290 -0.0174  0.0648 -0.0326
                                           -0.0095  0.0057 -0.0525  0.0202 -0.0151
                                            0.0044
    20. (0.00590) RY*( 6) O   1           s(  0.01%)p99.99(  1.53%)d99.99( 97.60%)
                                                  f61.52(  0.85%)
                                           -0.0000  0.0005  0.0117  0.0001  0.0002
                                            0.0011  0.0083  0.0003 -0.0004 -0.0039
                                           -0.0120 -0.0006 -0.0025 -0.0392 -0.1161
                                           -0.0079 -0.0039  0.0914  0.0061  0.0012
                                            0.8132  0.0593  0.0151 -0.5363 -0.0371
                                           -0.0006  0.0459  0.0037 -0.0002  0.1070
                                            0.0082  0.0007 -0.0672  0.0351  0.0077
                                           -0.0038 -0.0128  0.0069  0.0246 -0.0126
                                           -0.0369  0.0172  0.0051 -0.0024  0.0038
                                           -0.0018
    21. (0.00570) RY*( 7) O   1           s(  7.60%)p 0.66(  4.99%)d11.42( 86.81%)
                                                  f 0.08(  0.59%)
                                           -0.0000  0.0213  0.2748 -0.0081  0.0045
                                            0.0335  0.1537  0.0098 -0.0050 -0.0376
                                           -0.1521 -0.0157 -0.0100  0.0035  0.0126
                                            0.0006 -0.0000  0.2604  0.0166  0.0021
                                           -0.0359 -0.0027 -0.0009  0.1771  0.0160
                                            0.0019  0.0495  0.0062 -0.0024  0.8710
                                            0.0766  0.0087  0.0131 -0.0067  0.0489
                                           -0.0231 -0.0454  0.0235  0.0073 -0.0037
                                            0.0085 -0.0041  0.0015 -0.0010  0.0027
                                            0.0007
    22. (0.00332) RY*( 8) O   1           s( 15.48%)p 1.40( 21.60%)d 4.00( 61.89%)
                                                  f 0.07(  1.03%)
                                           -0.0000 -0.0059  0.3933 -0.0038  0.0057
                                            0.0309 -0.1814 -0.0044 -0.0102  0.0287
                                           -0.4179 -0.0409 -0.0577 -0.0025  0.0386
                                            0.0056 -0.0038  0.3133  0.0336 -0.0095
                                           -0.0269 -0.0038 -0.0010 -0.0793 -0.0033
                                            0.0096 -0.6814 -0.0496  0.0561 -0.2038
                                           -0.0233  0.0175 -0.0095  0.0089  0.0207
                                           -0.0122  0.0350 -0.0279 -0.0143  0.0097
                                            0.0039 -0.0042 -0.0038 -0.0130  0.0765
                                           -0.0346
    23. (0.00228) RY*( 9) O   1           s( 40.06%)p 0.55( 22.19%)d 0.93( 37.18%)
                                                  f 0.01(  0.57%)
                                            0.0000 -0.0052  0.6310 -0.0133 -0.0471
                                           -0.0181  0.4524  0.0320 -0.0071 -0.0060
                                           -0.1076 -0.0510 -0.0391 -0.0001  0.0083
                                            0.0029 -0.0011  0.1062  0.0248  0.0188
                                           -0.0112 -0.0030 -0.0018 -0.0073 -0.0014
                                            0.0037  0.4612  0.1120 -0.0523 -0.3455
                                           -0.1068  0.0259 -0.0052  0.0043 -0.0149
                                            0.0380  0.0111 -0.0076 -0.0028  0.0039
                                            0.0038 -0.0010  0.0393 -0.0460 -0.0109
                                           -0.0037
    24. (0.00071) RY*(10) O   1           s( 43.63%)p 1.10( 47.80%)d 0.17(  7.61%)
                                                  f 0.02(  0.97%)
                                            0.0000 -0.0052 -0.0348  0.6546 -0.0808
                                            0.0006 -0.0393  0.0944 -0.1088 -0.0013
                                            0.0063 -0.6741 -0.0331 -0.0014 -0.0014
                                            0.0031  0.0107 -0.0159  0.1139  0.1349
                                            0.0016  0.0100  0.0049  0.0059  0.0182
                                           -0.0113  0.0120 -0.0186 -0.0664  0.0222
                                           -0.0935 -0.1730 -0.0311  0.0030  0.0148
                                           -0.0042  0.0344  0.0230 -0.0336  0.0037
                                            0.0140 -0.0025 -0.0025  0.0447  0.0269
                                            0.0519
    25. (0.00056) RY*(11) O   1           s(  0.04%)p99.99( 60.90%)d99.99( 36.32%)
                                                  f72.56(  2.74%)
                                            0.0000 -0.0002 -0.0042  0.0186  0.0038
                                           -0.0002 -0.0008  0.0104 -0.0018  0.0005
                                            0.0004  0.0529 -0.0080  0.0021 -0.0398
                                            0.7773  0.0170  0.0010 -0.0215 -0.0028
                                            0.0210 -0.2430 -0.0634 -0.0177  0.5307
                                            0.1003  0.0040 -0.0433 -0.0121  0.0034
                                           -0.0699 -0.0177 -0.1342  0.0334  0.0091
                                            0.0005 -0.0352  0.0101 -0.0682  0.0064
                                           -0.0458 -0.0060  0.0020  0.0033 -0.0043
                                            0.0030
    26. (0.00048) RY*(12) O   1           s(  4.97%)p 3.49( 17.34%)d12.01( 59.65%)
                                                  f 3.63( 18.04%)
                                           -0.0000  0.0041  0.0000  0.2065  0.0837
                                            0.0054  0.0095 -0.3138 -0.0356 -0.0051
                                           -0.0305  0.2642 -0.0195 -0.0006  0.0002
                                           -0.0492 -0.0046 -0.0348 -0.3126  0.0380
                                            0.0044  0.0153 -0.0041  0.0114 -0.0735
                                           -0.0245 -0.0021 -0.1694 -0.0157  0.0669
                                           -0.6525 -0.1751 -0.0220 -0.0012  0.1805
                                           -0.0109  0.0105  0.0100 -0.0427 -0.0001
                                            0.0460 -0.0021  0.3560  0.0031  0.1269
                                            0.0119
    27. (0.00046) RY*(13) O   1           s(  0.03%)p99.99( 10.80%)d99.99(  9.17%)
                                                  f99.99( 80.01%)
                                            0.0000  0.0000  0.0005  0.0169  0.0037
                                            0.0005  0.0005 -0.0086 -0.0024 -0.0001
                                           -0.0017  0.0199  0.0055  0.0023 -0.0015
                                            0.3169  0.0839 -0.0017  0.0045  0.0043
                                            0.0127  0.1901  0.0077 -0.0231 -0.2330
                                            0.0128  0.0024  0.0113 -0.0013  0.0070
                                            0.0008 -0.0094  0.1889  0.0084 -0.1023
                                            0.0008  0.0701  0.0016  0.1916  0.0006
                                            0.8403 -0.0036 -0.0730  0.0004  0.0282
                                            0.0009
    28. (0.00044) RY*(14) O   1           s(  0.15%)p 8.41(  1.30%)d39.32(  6.06%)
                                                  f99.99( 92.49%)
                                            0.0000  0.0009 -0.0039  0.0387  0.0052
                                           -0.0026 -0.0040 -0.0414 -0.0185 -0.0005
                                           -0.0111  0.0996  0.0036  0.0004 -0.0002
                                           -0.0285 -0.0048  0.0526 -0.0194 -0.0526
                                           -0.0004 -0.0311  0.0006 -0.0007  0.0173
                                            0.0045  0.0296 -0.0522 -0.0297  0.0729
                                           -0.1979 -0.0666 -0.0273 -0.0024 -0.5209
                                           -0.0063  0.7303  0.0199 -0.0388 -0.0017
                                           -0.1177  0.0001 -0.3215  0.0058 -0.0127
                                            0.0064
    29. (0.00044) RY*(15) O   1           s(  0.00%)p 1.00(  1.07%)d12.23( 13.11%)
                                                  f80.09( 85.82%)
                                           -0.0000  0.0003 -0.0010  0.0017  0.0018
                                           -0.0005 -0.0003 -0.0055 -0.0030 -0.0006
                                           -0.0022  0.0443  0.0008 -0.0038  0.0034
                                            0.0917  0.0167  0.0074  0.0112 -0.0078
                                           -0.0189  0.1981  0.0193  0.0856 -0.2695
                                           -0.0993 -0.0029  0.0222  0.0026 -0.0019
                                            0.0227  0.0054 -0.8012 -0.0087 -0.1094
                                           -0.0007 -0.1235  0.0006 -0.4110 -0.0084
                                            0.1129 -0.0014 -0.0717  0.0014 -0.0445
                                           -0.0000
    30. (0.00041) RY*(16) O   1           s(  1.19%)p37.39( 44.62%)d 8.09(  9.66%)
                                                  f37.32( 44.53%)
                                            0.0000 -0.0015  0.0001  0.0836  0.0703
                                           -0.0113 -0.0450  0.6079  0.0166 -0.0065
                                           -0.0162  0.2702 -0.0169  0.0006  0.0021
                                           -0.0257  0.0003 -0.0358  0.1987  0.0528
                                           -0.0034  0.0216  0.0034  0.0063 -0.0214
                                           -0.0049  0.0786 -0.1770 -0.0626  0.0030
                                           -0.1024 -0.0089 -0.0347 -0.0046  0.2908
                                            0.0469  0.0819  0.0207 -0.0267 -0.0036
                                            0.0037  0.0039 -0.2051 -0.0200  0.5532
                                            0.0314
    31. (0.00041) RY*(17) O   1           s(  0.01%)p 1.00(  0.87%)d17.91( 15.56%)
                                                  f96.15( 83.56%)
                                           -0.0000  0.0003 -0.0008  0.0091  0.0022
                                            0.0002  0.0033 -0.0474 -0.0159 -0.0006
                                            0.0011  0.0028 -0.0161 -0.0013  0.0095
                                           -0.0658 -0.0386 -0.0058 -0.0080  0.0140
                                           -0.0934  0.2732  0.1311 -0.0335  0.2227
                                            0.0233 -0.0068  0.0314 -0.0089  0.0081
                                           -0.0462 -0.0123 -0.4089 -0.0229 -0.1180
                                           -0.0098 -0.0853 -0.0054  0.7885  0.0503
                                           -0.0742 -0.0027 -0.0142  0.0004  0.1288
                                            0.0099
    32. (0.00041) RY*(18) O   1           s(  0.01%)p 1.00( 26.51%)d 1.53( 40.50%)
                                                  f 1.24( 32.99%)
                                            0.0000  0.0003 -0.0027 -0.0025  0.0078
                                           -0.0013 -0.0011  0.0066 -0.0128 -0.0016
                                            0.0003  0.0175 -0.0313 -0.0099 -0.0078
                                           -0.4818 -0.1770  0.0049 -0.0505  0.0015
                                            0.0426 -0.3489 -0.0417 -0.0233  0.5225
                                           -0.0326 -0.0017  0.0052 -0.0113  0.0003
                                           -0.0482  0.0020 -0.1255 -0.0129 -0.1741
                                           -0.0090 -0.1699 -0.0066 -0.1466  0.0022
                                            0.4665  0.0183 -0.1044 -0.0029  0.0654
                                            0.0064
    33. (0.00040) RY*(19) O   1           s(  0.72%)p 3.73(  2.69%)d14.25( 10.29%)
                                                  f99.99( 86.29%)
                                            0.0000  0.0008 -0.0064  0.0714  0.0456
                                           -0.0033 -0.0021 -0.0314 -0.0688 -0.0046
                                           -0.0019  0.0511 -0.0734  0.0025 -0.0006
                                            0.1030  0.0506  0.0003 -0.1109  0.0267
                                            0.0094  0.0464 -0.0201  0.0107 -0.1293
                                           -0.0067 -0.0269  0.2348 -0.0520  0.0167
                                           -0.1011 -0.0365  0.2400  0.0175 -0.5579
                                           -0.0376 -0.5089 -0.0342 -0.0882 -0.0072
                                           -0.1828 -0.0112 -0.1607 -0.0111  0.4045
                                            0.0360
    34. (0.00037) RY*(20) O   1           s(  0.02%)p31.78(  0.57%)d99.99( 87.00%)
                                                  f99.99( 12.41%)
                                            0.0000 -0.0003 -0.0024  0.0070  0.0112
                                           -0.0001 -0.0013  0.0059 -0.0006 -0.0005
                                            0.0002 -0.0349 -0.0144 -0.0026 -0.0093
                                            0.0618 -0.0179 -0.0008 -0.0831  0.0119
                                            0.0224 -0.7980  0.0868  0.0162 -0.4585
                                            0.0609  0.0015  0.0409 -0.0047  0.0016
                                            0.0461 -0.0094 -0.1904 -0.0208 -0.0029
                                            0.0005  0.0027 -0.0012  0.2841  0.0313
                                            0.0055 -0.0048 -0.0035 -0.0014  0.0742
                                            0.0096
    35. (0.00034) RY*(21) O   1           s(  0.68%)p35.82( 24.28%)d99.99( 71.43%)
                                                  f 5.33(  3.61%)
                                           -0.0000  0.0030 -0.0059  0.0607 -0.0553
                                           -0.0007 -0.0025 -0.4257 -0.1387  0.0056
                                            0.0149  0.1718  0.1120 -0.0007 -0.0021
                                           -0.0082 -0.0017 -0.0391  0.8216 -0.0775
                                            0.0041 -0.0860  0.0100  0.0016  0.0002
                                           -0.0017 -0.0031  0.1434 -0.0236  0.0126
                                           -0.0500 -0.0224 -0.0030 -0.0007  0.0203
                                           -0.0058  0.0095  0.0004 -0.0195 -0.0045
                                            0.0149  0.0038  0.0872  0.0427  0.1552
                                            0.0374
    36. (0.00034) RY*(22) O   1           s(  0.60%)p48.49( 29.02%)d43.79( 26.20%)
                                                  f73.84( 44.19%)
                                            0.0000  0.0003 -0.0053  0.0320  0.0702
                                           -0.0024 -0.0248  0.4877  0.1355 -0.0028
                                           -0.0018  0.0925  0.1567 -0.0001 -0.0006
                                           -0.0092 -0.0121 -0.0004  0.2993 -0.0298
                                            0.0015 -0.0485  0.0055  0.0006 -0.0605
                                            0.0076 -0.0638 -0.0359  0.0456  0.0454
                                           -0.3931  0.0373  0.0327  0.0086 -0.2879
                                           -0.0219 -0.1948 -0.0618  0.0840  0.0207
                                           -0.0097 -0.0005  0.2228  0.0045 -0.4904
                                           -0.1335
    37. (0.00030) RY*(23) O   1           s(  3.91%)p 1.90(  7.43%)d 1.72(  6.71%)
                                                  f20.99( 81.95%)
                                           -0.0000  0.0057  0.0284  0.1713  0.0941
                                            0.0046 -0.0020 -0.1957 -0.0880 -0.0071
                                           -0.0117  0.1186  0.1183  0.0004  0.0002
                                           -0.0033  0.0001  0.0546  0.0109 -0.0200
                                           -0.0044 -0.0127  0.0081 -0.0013 -0.0472
                                            0.0003  0.0361 -0.1822  0.0308 -0.0288
                                           -0.1452 -0.0613  0.0562  0.0196  0.2382
                                            0.0643 -0.2514 -0.0930  0.0734  0.0249
                                           -0.0484 -0.0133 -0.7266 -0.1926 -0.3154
                                           -0.1007
    38. (0.00025) RY*(24) O   1           s( 27.22%)p 1.02( 27.68%)d 1.33( 36.32%)
                                                  f 0.32(  8.79%)
                                           -0.0000  0.0009  0.0480  0.4905  0.1710
                                           -0.0017 -0.0096  0.0821 -0.0731  0.0011
                                           -0.0455  0.5036 -0.0887 -0.0001  0.0024
                                           -0.0309  0.0055  0.0288 -0.0897  0.0966
                                           -0.0018 -0.0019  0.0043 -0.0055  0.0427
                                           -0.0202 -0.0302  0.3062 -0.1784 -0.0503
                                            0.3891 -0.2496  0.0105 -0.0008 -0.0045
                                            0.0104  0.0436  0.1120  0.0304  0.0082
                                           -0.0027  0.0003  0.0958  0.1078 -0.2263
                                           -0.0130
    39. (0.00022) RY*(25) O   1           s( 29.83%)p 0.23(  6.95%)d 1.77( 52.94%)
                                                  f 0.34( 10.28%)
                                           -0.0000  0.0006 -0.0774 -0.1321  0.5242
                                            0.0106 -0.0230  0.0412 -0.0264  0.0038
                                            0.0278 -0.1893 -0.1716 -0.0000 -0.0018
                                            0.0089 -0.0165 -0.0032  0.0049 -0.0709
                                           -0.0007  0.0139 -0.0171  0.0006  0.0294
                                           -0.0162 -0.0632  0.6466 -0.0643  0.0419
                                           -0.2691  0.1494 -0.0307 -0.0111  0.2140
                                            0.1263  0.1246  0.0341 -0.0148 -0.0055
                                            0.0220  0.0142 -0.0919 -0.1021 -0.0183
                                           -0.0567
    40. (0.00014) RY*(26) O   1           s( 54.90%)p 0.12(  6.34%)d 0.58( 31.69%)
                                                  f 0.13(  7.07%)
                                            0.0000 -0.0005  0.0469  0.0873  0.7343
                                           -0.0047  0.0650 -0.0991  0.1130 -0.0026
                                            0.0144 -0.0849 -0.1695  0.0004 -0.0013
                                            0.0077 -0.0184 -0.0083  0.1078 -0.1592
                                           -0.0003 -0.0003 -0.0164  0.0016 -0.0082
                                           -0.0093  0.0895 -0.4177  0.2321 -0.0448
                                            0.2026 -0.0027  0.0066  0.0148 -0.1294
                                           -0.1891 -0.0232 -0.0539  0.0011  0.0032
                                           -0.0088 -0.0155  0.0946  0.0364  0.0603
                                            0.0167
    41. (0.00008) RY*(27) O   1           s(  0.02%)p 6.32(  0.14%)d99.99(  7.20%)
                                                  f99.99( 92.64%)
    42. (0.00007) RY*(28) O   1           s(  0.11%)p 4.43(  0.49%)d99.99( 13.31%)
                                                  f99.99( 86.09%)
    43. (0.00007) RY*(29) O   1           s(  0.01%)p 1.28(  0.02%)d99.99(  2.06%)
                                                  f99.99( 97.91%)
    44. (0.00007) RY*(30) O   1           s(  0.09%)p 7.65(  0.68%)d65.64(  5.88%)
                                                  f99.99( 93.35%)
    45. (0.00006) RY*(31) O   1           s(  0.94%)p 3.82(  3.59%)d25.79( 24.22%)
                                                  f75.86( 71.25%)
    46. (0.00006) RY*(32) O   1           s(  0.20%)p 6.04(  1.19%)d62.18( 12.22%)
                                                  f99.99( 86.40%)
    47. (0.00007) RY*(33) O   1           s(  1.05%)p 9.06(  9.47%)d 2.72(  2.84%)
                                                  f82.87( 86.64%)
    48. (0.00005) RY*(34) O   1           s(  0.02%)p93.98(  1.70%)d99.99( 93.47%)
                                                  f99.99(  4.81%)
    49. (0.00004) RY*(35) O   1           s(  4.51%)p 3.40( 15.33%)d14.69( 66.27%)
                                                  f 3.08( 13.89%)
    50. (0.00004) RY*(36) O   1           s(  0.05%)p 4.02(  0.19%)d99.99( 78.89%)
                                                  f99.99( 20.87%)
    51. (0.00003) RY*(37) O   1           s(  8.91%)p 2.51( 22.39%)d 5.23( 46.56%)
                                                  f 2.49( 22.15%)
    52. (0.00001) RY*(38) O   1           s(  3.98%)p 0.34(  1.34%)d22.39( 89.19%)
                                                  f 1.38(  5.49%)
    53. (0.00001) RY*(39) O   1           s(  5.64%)p 9.05( 51.04%)d 5.78( 32.62%)
                                                  f 1.90( 10.70%)
    54. (0.00001) RY*(40) O   1           s(  7.75%)p10.27( 79.53%)d 0.89(  6.93%)
                                                  f 0.75(  5.79%)
    55. (-.00004) RY*(41) O   1           s(  0.08%)p99.99( 97.14%)d25.95(  2.15%)
                                                  f 7.60(  0.63%)
    56. (0.00517) RY*( 1) H   2           s(  0.03%)p99.99( 99.12%)d27.31(  0.85%)
                                           -0.0015 -0.0078  0.0152  0.0040  0.0229
                                           -0.0012 -0.0055  0.0801 -0.0037 -0.0010
                                            0.9914 -0.0356 -0.0004 -0.0081 -0.0018
                                           -0.0834 -0.0239  0.0219  0.0204 -0.0040
                                           -0.0054  0.0003  0.0023
    57. (0.00228) RY*( 2) H   2           s(  3.42%)p27.90( 95.34%)d 0.36(  1.24%)
                                            0.0181  0.1449 -0.0441  0.1044 -0.5933
                                           -0.0333 -0.0460  0.7623 -0.1131 -0.0454
                                           -0.0471  0.0056  0.0039 -0.0508 -0.0207
                                            0.0020  0.0016  0.0095  0.0088  0.0863
                                            0.0389 -0.0150  0.0032
    58. (0.00189) RY*( 3) H   2           s( 78.56%)p 0.26( 20.47%)d 0.01(  0.97%)
[...]
                                           -0.0209  0.0157  0.4350  0.0083  0.0048
                                            0.0091 -0.0010 -0.0089 -0.0301 -0.0073
                                            0.0011  0.0001 -0.0104  0.0056  0.0528
                                            0.0040  0.0272 -0.0017
   120. (0.00382) RY*( 2) H   4           s(  6.25%)p14.92( 93.25%)d 0.08(  0.49%)
                                           -0.0105  0.2224  0.1108  0.0262  0.3156
                                            0.0208 -0.0103 -0.5765  0.0896 -0.0135
                                           -0.6892 -0.1294  0.0112 -0.0316  0.0021
                                           -0.0061 -0.0033  0.0315 -0.0387  0.0114
                                            0.0261 -0.0169  0.0174
   121. (0.00362) RY*( 3) H   4           s(  3.42%)p28.12( 96.17%)d 0.12(  0.41%)
                                           -0.0147  0.1332  0.1245  0.0272  0.4649
                                            0.0214 -0.0103 -0.5007  0.0882 -0.0190
                                            0.6865  0.1213 -0.0131 -0.0414  0.0116
                                            0.0041  0.0017 -0.0204  0.0273  0.0128
                                            0.0143 -0.0249  0.0064
   122. (0.00272) RY*( 4) H   4           s( 17.22%)p 4.74( 81.70%)d 0.06(  1.08%)
                                           -0.0021  0.3824  0.1591  0.0254 -0.7853
                                            0.0320 -0.0065 -0.3767  0.2015  0.0028
                                            0.1266  0.0223 -0.0132  0.0592 -0.0484
                                            0.0087 -0.0010  0.0023  0.0004  0.0276
                                            0.0405  0.0478  0.0137
   123. (0.00046) RY*( 5) H   4           s( 13.36%)p 5.92( 79.13%)d 0.56(  7.51%)
                                           -0.0024 -0.0438  0.2829 -0.2272  0.0252
                                            0.8662 -0.1125  0.1051  0.0240 -0.0194
                                           -0.0360  0.1182 -0.0213 -0.0637  0.0664
                                            0.0074 -0.0075  0.0241  0.0128  0.2357
                                            0.0401  0.0677  0.0635
   124. (0.00037) RY*( 6) H   4           s(  1.95%)p44.15( 86.03%)d 6.17( 12.02%)
                                           -0.0039 -0.0762  0.1037  0.0540  0.0475
                                           -0.2209 -0.0431  0.1023  0.3956 -0.2174
                                           -0.1505  0.7553  0.0077 -0.0996 -0.1205
                                            0.0043  0.0330  0.1635  0.0978  0.0913
                                            0.1412  0.1549  0.0780
   125. (0.00032) RY*( 7) H   4           s(  1.41%)p48.19( 67.83%)d21.85( 30.76%)
                                            0.0052  0.0970 -0.0674  0.0100 -0.0428
                                            0.1060  0.1003 -0.1104 -0.3751  0.4431
                                           -0.0831  0.5455  0.0387  0.1508  0.1901
                                           -0.0115  0.0172  0.1169  0.0511 -0.2468
                                           -0.2829 -0.2091 -0.2176
   126. (0.00020) RY*( 8) H   4           s( 13.38%)p 5.18( 69.26%)d 1.30( 17.36%)
                                           -0.0179 -0.0770  0.3401 -0.1091  0.0665
                                           -0.0523  0.0077  0.1643  0.5868  0.5345
                                            0.0105 -0.1659 -0.0270 -0.0889  0.0584
                                           -0.1190 -0.0094  0.0195 -0.0701 -0.3422
                                           -0.1315  0.0256 -0.0877
   127. (0.00020) RY*( 9) H   4           s(  1.06%)p14.96( 15.85%)d78.42( 83.09%)
                                            0.0039  0.0113  0.1017 -0.0108 -0.0094
                                           -0.0537 -0.0310 -0.0051 -0.1701 -0.0307
                                            0.0738 -0.1516  0.3102 -0.1040  0.0311
                                           -0.0928 -0.0006  0.8384 -0.1593  0.0090
                                           -0.0552  0.2804 -0.0200
   128. (0.00017) RY*(10) H   4           s(  3.01%)p 5.32( 15.98%)d26.96( 81.01%)
                                            0.0038  0.0300 -0.0750  0.1533 -0.0920
                                            0.0251 -0.3606 -0.0223 -0.1358 -0.0125
                                           -0.0004  0.0352 -0.0185 -0.7393  0.0232
                                           -0.4281 -0.0065 -0.0709  0.0390 -0.1484
                                            0.0537 -0.2184  0.0225
   129. (0.00014) RY*(11) H   4           s(  0.37%)p12.42(  4.56%)d99.99( 95.08%)
                                            0.0002  0.0021  0.0382  0.0469 -0.0305
                                           -0.0286 -0.1874  0.0067 -0.0403  0.0767
                                           -0.0011 -0.0068 -0.0331 -0.3865  0.0289
                                            0.8838  0.0137  0.0350 -0.0842 -0.0933
                                           -0.0268 -0.0323 -0.0207
   130. (0.00015) RY*(12) H   4           s( 10.05%)p 1.61( 16.21%)d 7.34( 73.74%)
                                            0.0075 -0.0036  0.3016 -0.0971 -0.0031
                                           -0.1770 -0.0101 -0.0348 -0.3294  0.0363
                                           -0.0265  0.0512 -0.1278 -0.1460  0.0909
                                           -0.0668 -0.0075 -0.3387  0.0401  0.0160
                                           -0.1755  0.7381 -0.1052
   131. (0.00012) RY*(13) H   4           s( 14.17%)p 0.90( 12.69%)d 5.16( 73.14%)
                                           -0.0005 -0.0376  0.3046 -0.2179 -0.0351
                                           -0.2952  0.1546  0.0277 -0.0481  0.0808
                                           -0.0045 -0.0009 -0.0708 -0.1753  0.1283
                                           -0.0366 -0.0329  0.0156 -0.1296  0.6781
                                           -0.1870 -0.3804 -0.1591
   132. (0.00010) RY*(14) H   4           s(  0.45%)p93.23( 41.79%)d99.99( 57.77%)
   133. (0.00009) RY*(15) H   4           s(  0.17%)p99.99( 30.44%)d99.99( 69.39%)
   134. (0.00005) RY*(16) H   4           s(  0.19%)p 9.21(  1.71%)d99.99( 98.11%)
   135. (0.00006) RY*(17) H   4           s( 68.31%)p 0.18( 12.36%)d 0.28( 19.34%)
   136. (0.00005) RY*(18) H   4           s(  0.52%)p 5.45(  2.82%)d99.99( 96.66%)
   137. (0.00004) RY*(19) H   4           s( 39.06%)p 0.65( 25.57%)d 0.91( 35.37%)
   138. (0.00003) RY*(20) H   4           s(  4.66%)p 7.16( 33.35%)d13.30( 61.99%)
   139. (0.00003) RY*(21) H   4           s( 24.87%)p 1.72( 42.69%)d 1.30( 32.44%)
   140. (0.00003) RY*(22) H   4           s(  0.22%)p99.99( 47.00%)d99.99( 52.78%)
   141. (0.02156) BD*( 1) O   1 - H   2  
                ( 27.29%)   0.5224* O   1 s( 20.95%)p 3.75( 78.58%)d 0.02(  0.46%)
                                                  f 0.00(  0.01%)
                                           -0.0002 -0.4576  0.0056  0.0021  0.0023
                                           -0.8840  0.0324 -0.0093  0.0033 -0.0545
                                            0.0141 -0.0008  0.0033  0.0032 -0.0014
                                            0.0001 -0.0002  0.0188 -0.0032 -0.0008
                                           -0.0023  0.0004  0.0002  0.0006  0.0000
                                            0.0004 -0.0544  0.0040  0.0042  0.0349
                                           -0.0018  0.0004 -0.0000  0.0000  0.0098
                                           -0.0003  0.0002 -0.0000  0.0002 -0.0001
                                            0.0011 -0.0006 -0.0037 -0.0039 -0.0021
                                            0.0008
                ( 72.71%)  -0.8527* H   2 s( 99.87%)p 0.00(  0.12%)d 0.00(  0.00%)
                                           -0.9994 -0.0035  0.0001 -0.0002 -0.0190
                                           -0.0274  0.0049  0.0093  0.0038  0.0022
                                           -0.0019 -0.0006 -0.0002  0.0003 -0.0025
                                           -0.0000  0.0002  0.0004  0.0001  0.0013
                                           -0.0013  0.0009  0.0009
   142. (0.07014) BD*( 1) O   1 - H   4  
                ( 21.94%)   0.4684* O   1 s( 26.89%)p 2.70( 72.69%)d 0.02(  0.41%)
                                                  f 0.00(  0.01%)
                                            0.0003  0.5186 -0.0014 -0.0018 -0.0008
                                           -0.2149  0.0179 -0.0019  0.0015 -0.8209
                                            0.0131 -0.0065  0.0022  0.0792 -0.0008
                                            0.0008 -0.0007 -0.0033  0.0025  0.0013
                                            0.0003 -0.0003 -0.0002 -0.0111  0.0009
                                           -0.0000 -0.0521  0.0039  0.0008 -0.0343
                                            0.0023 -0.0014 -0.0020  0.0001  0.0018
                                            0.0001  0.0084 -0.0004 -0.0014 -0.0001
                                            0.0006  0.0002  0.0028  0.0015  0.0017
                                            0.0018
                ( 78.06%)  -0.8835* H   4 s( 99.90%)p 0.00(  0.09%)d 0.00(  0.00%)
                                            0.9991  0.0275  0.0010 -0.0005  0.0167
                                            0.0025  0.0011  0.0018  0.0237  0.0090
                                            0.0033 -0.0024 -0.0008 -0.0020 -0.0018
                                            0.0003  0.0002 -0.0002  0.0003  0.0030
                                           -0.0011 -0.0002 -0.0013


 NHO Directionality and "Bond Bending" (deviations from line of nuclear centers)

         [Thresholds for printing:  angular deviation  >  1.0 degree]
                                    hybrid p-character > 25.0%
                                    orbital occupancy  >  0.10e

                                Line of Centers        Hybrid 1              Hybrid 2
                                ---------------  -------------------   ------------------
                NBO               Theta   Phi    Theta   Phi    Dev    Theta   Phi    Dev
 ========================================================================================
     1. BD (   1) O   1 - H   2    90.0    0.0    90.1    2.5   2.5      --     --    --
     2. BD (   1) O   1 - H   4    85.0  258.3    84.6  256.3   2.0      --     --    --
     9. LP (   1) O   1             --     --     94.6  126.1   --       --     --    --
    10. LP (   2) O   1             --     --      5.6   91.3   --       --     --    --
    12. LP (   2)Cl   3             --     --    174.9   31.3   --       --     --    --
    13. LP (   3)Cl   3             --     --     86.3  347.7   --       --     --    --
    14. LP (   4)Cl   3             --     --     86.4   77.9   --       --     --    --


 Natural Bond Orbitals (Summary):

           NBO                  Occupancy  
 -----------------------------------------------
 Molecular unit  1  (H2O)
     1. BD (   1) O   1 - H   2          1.96565
     2. BD (   1) O   1 - H   4          1.96808
     3. CR (   1) O   1                  1.99967
     9. LP (   1) O   1                  1.96962
    10. LP (   2) O   1                  1.95953
    15. RY*(   1) O   1                  0.01953
    16. RY*(   2) O   1                  0.01517
    17. RY*(   3) O   1                  0.00703
    18. RY*(   4) O   1                  0.00620
    19. RY*(   5) O   1                  0.00617
    20. RY*(   6) O   1                  0.00590
    21. RY*(   7) O   1                  0.00570
    22. RY*(   8) O   1                  0.00332
    23. RY*(   9) O   1                  0.00228
    24. RY*(  10) O   1                  0.00071
    25. RY*(  11) O   1                  0.00056
    26. RY*(  12) O   1                  0.00048
    27. RY*(  13) O   1                  0.00046
    28. RY*(  14) O   1                  0.00044
    29. RY*(  15) O   1                  0.00044
    30. RY*(  16) O   1                  0.00041
    31. RY*(  17) O   1                  0.00041
    32. RY*(  18) O   1                  0.00041
    33. RY*(  19) O   1                  0.00040
    34. RY*(  20) O   1                  0.00037
    35. RY*(  21) O   1                  0.00034
    36. RY*(  22) O   1                  0.00034
    37. RY*(  23) O   1                  0.00030
    38. RY*(  24) O   1                  0.00025
    39. RY*(  25) O   1                  0.00022
    40. RY*(  26) O   1                  0.00014
    41. RY*(  27) O   1                  0.00008
    42. RY*(  28) O   1                  0.00007
    43. RY*(  29) O   1                  0.00007
    44. RY*(  30) O   1                  0.00007
    45. RY*(  31) O   1                  0.00006
    46. RY*(  32) O   1                  0.00006
    47. RY*(  33) O   1                  0.00007
    48. RY*(  34) O   1                  0.00005
    49. RY*(  35) O   1                  0.00004
    50. RY*(  36) O   1                  0.00004
    51. RY*(  37) O   1                  0.00003
    52. RY*(  38) O   1                  0.00001
    53. RY*(  39) O   1                  0.00001
    54. RY*(  40) O   1                  0.00001
    55. RY*(  41) O   1                 -0.00004
    56. RY*(   1) H   2                  0.00517
    57. RY*(   2) H   2                  0.00228
    58. RY*(   3) H   2                  0.00189
    59. RY*(   4) H   2                  0.00085
    60. RY*(   5) H   2                  0.00029
    61. RY*(   6) H   2                  0.00021
    62. RY*(   7) H   2                  0.00018
    63. RY*(   8) H   2                  0.00010
    64. RY*(   9) H   2                  0.00011
    65. RY*(  10) H   2                  0.00010
    66. RY*(  11) H   2                  0.00009
    67. RY*(  12) H   2                  0.00007
    68. RY*(  13) H   2                  0.00007
    69. RY*(  14) H   2                  0.00005
    70. RY*(  15) H   2                  0.00003
    71. RY*(  16) H   2                  0.00004
    72. RY*(  17) H   2                  0.00003
    73. RY*(  18) H   2                  0.00002
    74. RY*(  19) H   2                  0.00003
    75. RY*(  20) H   2                  0.00001
    76. RY*(  21) H   2                  0.00001
    77. RY*(  22) H   2                  0.00002
   119. RY*(   1) H   4                  0.00873
   120. RY*(   2) H   4                  0.00382
   121. RY*(   3) H   4                  0.00362
   122. RY*(   4) H   4                  0.00272
   123. RY*(   5) H   4                  0.00046
   124. RY*(   6) H   4                  0.00037
   125. RY*(   7) H   4                  0.00032
   126. RY*(   8) H   4                  0.00020
   127. RY*(   9) H   4                  0.00020
   128. RY*(  10) H   4                  0.00017
   129. RY*(  11) H   4                  0.00014
   130. RY*(  12) H   4                  0.00015
   131. RY*(  13) H   4                  0.00012
   132. RY*(  14) H   4                  0.00010
   133. RY*(  15) H   4                  0.00009
   134. RY*(  16) H   4                  0.00005
   135. RY*(  17) H   4                  0.00006
   136. RY*(  18) H   4                  0.00005
   137. RY*(  19) H   4                  0.00004
   138. RY*(  20) H   4                  0.00003
   139. RY*(  21) H   4                  0.00003
   140. RY*(  22) H   4                  0.00003
   141. BD*(   1) O   1 - H   2          0.02156
   142. BD*(   1) O   1 - H   4          0.07014
       -------------------------------
              Total Lewis    9.86255  ( 97.9789%)
        Valence non-Lewis    0.09170  (  0.9109%)
        Rydberg non-Lewis    0.11175  (  1.1102%)
       -------------------------------
            Total unit  1   10.06600  (100.0000%)
           Charge unit  1   -0.06600

 Molecular unit  2  (Cl)
     4. CR (   1)Cl   3                  2.00001
     5. CR (   2)Cl   3                  2.00000
     6. CR (   3)Cl   3                  2.00003
     7. CR (   4)Cl   3                  2.00002
     8. CR (   5)Cl   3                  2.00003
    11. LP (   1)Cl   3                  1.97900
    12. LP (   2)Cl   3                  1.95277
    13. LP (   3)Cl   3                  1.95253
    14. LP (   4)Cl   3                  1.90240
    78. RY*(   1)Cl   3                  0.01836
    79. RY*(   2)Cl   3                  0.01833
    80. RY*(   3)Cl   3                  0.01825
    81. RY*(   4)Cl   3                  0.01825
    82. RY*(   5)Cl   3                  0.01789
    83. RY*(   6)Cl   3                  0.01320
    84. RY*(   7)Cl   3                  0.01317
    85. RY*(   8)Cl   3                  0.01082
    86. RY*(   9)Cl   3                  0.00245
    87. RY*(  10)Cl   3                  0.00130
    88. RY*(  11)Cl   3                  0.00129
    89. RY*(  12)Cl   3                  0.00130
    90. RY*(  13)Cl   3                  0.00129
    91. RY*(  14)Cl   3                  0.00128
    92. RY*(  15)Cl   3                  0.00128
    93. RY*(  16)Cl   3                  0.00126
    94. RY*(  17)Cl   3                  0.00098
    95. RY*(  18)Cl   3                  0.00098
    96. RY*(  19)Cl   3                  0.00075
    97. RY*(  20)Cl   3                  0.00074
    98. RY*(  21)Cl   3                  0.00069
    99. RY*(  22)Cl   3                  0.00055
   100. RY*(  23)Cl   3                  0.00054
   101. RY*(  24)Cl   3                  0.00052
   102. RY*(  25)Cl   3                  0.00021
   103. RY*(  26)Cl   3                  0.00014
   104. RY*(  27)Cl   3                  0.00014
   105. RY*(  28)Cl   3                  0.00015
   106. RY*(  29)Cl   3                  0.00015
   107. RY*(  30)Cl   3                  0.00014
   108. RY*(  31)Cl   3                  0.00014
   109. RY*(  32)Cl   3                  0.00014
   110. RY*(  33)Cl   3                  0.00010
   111. RY*(  34)Cl   3                  0.00010
   112. RY*(  35)Cl   3                  0.00008
   113. RY*(  36)Cl   3                  0.00008
   114. RY*(  37)Cl   3                  0.00007
   115. RY*(  38)Cl   3                  0.00005
   116. RY*(  39)Cl   3                  0.00002
   117. RY*(  40)Cl   3                  0.00002
   118. RY*(  41)Cl   3                  0.00000
       -------------------------------
              Total Lewis   17.78679  ( 99.1791%)
        Valence non-Lewis    0.00000  (  0.0000%)
        Rydberg non-Lewis    0.14722  (  0.8209%)
       -------------------------------
            Total unit  2   17.93400  (100.0000%)
           Charge unit  2   -0.93400
 Leave Link  607 at Tue Oct 19 16:01:01 2021, MaxMem= 16106127360 cpu:              68.9 elap:               2.5
 (Enter /sw/contrib/gaussian/g16/B01/g16/l9999.exe)
 1\1\GINC-N2098\SP\RMP2-FC\Aug-CC-pVTZ\Cl1H2O1(1-)\CGAVINH\19-Oct-2021\
 0\\#p pop=NBO SP NoSymm mp2/aug-cc-pvtz density=current\\title\\-1,1\O
 \X,1,10.\H,1,0.96061628,2,90.\Cl,1,3.08954942,2,90.,3,101.71720655,0\H
 ,1,0.99225,2,85.,3,101.71720655,0\\Version=ES64L-G16RevB.01\HF=-535.65
 01921\MP2=-536.1337128\RMSD=5.507e-09\Dipole=0.7658542,0.8697998,0.033
 1483\Quadrupole=9.8541267,-18.9767212,9.1225945,-5.5610651,-0.0237298,
 -0.0539904\PG=C01 [X(Cl1H2O1)]\\@


 THE RARE EARTHS PERPLEX US IN OUR RESEARCHES,
 BAFFLE US IN OUR SPECULATIONS, AND HAUNT US IN OUR
 VERY DREAMS.  THEY STRETCH LIKE AN UNKNOWN BEFORE US,
 MOCKING, MYSTIFYING, AND MURMURING STRANGE REVELATIONS
 AND POSSIBILITIES.  -- SIR WILLIAM CROOKE, 1832-1919
 Job cpu time:       0 days  0 hours  3 minutes 21.7 seconds.
 Elapsed time:       0 days  0 hours  0 minutes  9.4 seconds.
 File lengths (MBytes):  RWF=     10 Int=      0 D2E=      0 Chk=      8 Scr=      1
 Normal termination of Gaussian 16 at Tue Oct 19 16:01:01 2021.
