 Entering Gaussian System, Link 0=g16
 Input=ihoh-_pp_OHs.gjf
 Output=ihoh-_pp_OHs.log
 Initial command:
 /sw/contrib/gaussian/g16/B01/g16/l1.exe "/scr/Gau-6108.inp" -scrdir="/scr/"
 Entering Link 1 = /sw/contrib/gaussian/g16/B01/g16/l1.exe PID=      6109.
  
 Copyright (c) 1988-2017, Gaussian, Inc.  All Rights Reserved.
  
 This is part of the Gaussian(R) 16 program.  It is based on
 the Gaussian(R) 09 system (copyright 2009, Gaussian, Inc.),
 the Gaussian(R) 03 system (copyright 2003, Gaussian, Inc.),
 the Gaussian(R) 98 system (copyright 1998, Gaussian, Inc.),
 the Gaussian(R) 94 system (copyright 1995, Gaussian, Inc.),
 the Gaussian 92(TM) system (copyright 1992, Gaussian, Inc.),
 the Gaussian 90(TM) system (copyright 1990, Gaussian, Inc.),
 the Gaussian 88(TM) system (copyright 1988, Gaussian, Inc.),
 the Gaussian 86(TM) system (copyright 1986, Carnegie Mellon
 University), and the Gaussian 82(TM) system (copyright 1983,
 Carnegie Mellon University). Gaussian is a federally registered
 trademark of Gaussian, Inc.
  
 This software contains proprietary and confidential information,
 including trade secrets, belonging to Gaussian, Inc.
  
 This software is provided under written license and may be
 used, copied, transmitted, or stored only in accord with that
 written license.
  
 The following legend is applicable only to US Government
 contracts under FAR:
  
                    RESTRICTED RIGHTS LEGEND
  
 Use, reproduction and disclosure by the US Government is
 subject to restrictions as set forth in subparagraphs (a)
 and (c) of the Commercial Computer Software - Restricted
 Rights clause in FAR 52.227-19.
  
 Gaussian, Inc.
 340 Quinnipiac St., Bldg. 40, Wallingford CT 06492
  
  
 ---------------------------------------------------------------
 Warning -- This program may not be used in any manner that
 competes with the business of Gaussian, Inc. or will provide
 assistance to any competitor of Gaussian, Inc.  The licensee
 of this program is prohibited from giving any competitor of
 Gaussian, Inc. access to this program.  By using this program,
 the user acknowledges that Gaussian, Inc. is engaged in the
 business of creating and licensing software in the field of
 computational chemistry and represents and warrants to the
 licensee that it is not a competitor of Gaussian, Inc. and that
 it will not use this program in any manner prohibited above.
 ---------------------------------------------------------------
  

 Cite this work as:
 Gaussian 16, Revision B.01,
 M. J. Frisch, G. W. Trucks, H. B. Schlegel, G. E. Scuseria, 
 M. A. Robb, J. R. Cheeseman, G. Scalmani, V. Barone, 
 G. A. Petersson, H. Nakatsuji, X. Li, M. Caricato, A. V. Marenich, 
 J. Bloino, B. G. Janesko, R. Gomperts, B. Mennucci, H. P. Hratchian, 
 J. V. Ortiz, A. F. Izmaylov, J. L. Sonnenberg, D. Williams-Young, 
 F. Ding, F. Lipparini, F. Egidi, J. Goings, B. Peng, A. Petrone, 
 T. Henderson, D. Ranasinghe, V. G. Zakrzewski, J. Gao, N. Rega, 
 G. Zheng, W. Liang, M. Hada, M. Ehara, K. Toyota, R. Fukuda, 
 J. Hasegawa, M. Ishida, T. Nakajima, Y. Honda, O. Kitao, H. Nakai, 
 T. Vreven, K. Throssell, J. A. Montgomery, Jr., J. E. Peralta, 
 F. Ogliaro, M. J. Bearpark, J. J. Heyd, E. N. Brothers, K. N. Kudin, 
 V. N. Staroverov, T. A. Keith, R. Kobayashi, J. Normand, 
 K. Raghavachari, A. P. Rendell, J. C. Burant, S. S. Iyengar, 
 J. Tomasi, M. Cossi, J. M. Millam, M. Klene, C. Adamo, R. Cammi, 
 J. W. Ochterski, R. L. Martin, K. Morokuma, O. Farkas, 
 J. B. Foresman, and D. J. Fox, Gaussian, Inc., Wallingford CT, 2016.
 
 ******************************************
 Gaussian 16:  ES64L-G16RevB.01 20-Dec-2017
                 8-Oct-2021 
 ******************************************
 %nproc=28
 Will use up to   28 processors via shared memory.
 %mem=120GB
 %chk=/gscratch/ilahie/mccoygrp/hocl/hoh/i_hoh_OHs.chk
 -----------------------------------
 #p opt=z-matrix mp2/gen Pseudo=read
 -----------------------------------
 1/10=7,18=40,38=1/1,3;
 2/12=2,17=6,18=5,29=3,40=1/2;
 3/5=7,11=9,16=1,17=8,25=1,30=1,71=1/1,2,3;
 4//1;
 5/5=2,38=5/2;
 8/6=4,10=1/1;
 9/15=2,16=-3/6;
 10/5=1/2;
 6/7=2,8=2,9=2,10=2/1;
 7/12=2,29=1/1,2,3,16;
 1/10=7,18=40/3(2);
 2/29=3/2;
 99//99;
 2/29=3/2;
 3/5=7,6=1,11=9,16=1,17=8,25=1,30=1,71=1,82=7/1,2,3;
 4/5=5,16=3,69=1/1;
 5/5=2,38=5/2;
 8/6=4,10=1/1;
 9/15=2,16=-3/6;
 10/5=1/2;
 7/12=2/1,2,3,16;
 1/18=40/3(-8);
 2/29=3/2;
 6/7=2,8=2,9=2,10=2/1;
 99/9=10/99;
 Leave Link    1 at Fri Oct  8 16:22:30 2021, MaxMem= 16106127360 cpu:               2.1 elap:               0.1
 (Enter /sw/contrib/gaussian/g16/B01/g16/l101.exe)
 -----
 title
 -----
 Symbolic Z-matrix:
 Charge = -1 Multiplicity = 1
 O
 H                    1    r1
 H                    1    r2       2    a1
 I                    1    r3       3    a2       2    d1       0
       Variables:
  r1                    0.98055Scan 50    0.02   
  r2                    0.96139 -1        0.     
  r3                    3.51322 -1        0.     
  a1                  100.63331 -1        0.     
  a2                   89.39796 -1        0.     
  d1                   -0.0004  -1        0.     
 
 ITRead=  0  0  0  0
 MicOpt= -1 -1 -1 -1
 NAtoms=      4 NQM=        4 NQMF=       0 NMMI=      0 NMMIF=      0
                NMic=       0 NMicF=      0.
                    Isotopes and Nuclear Properties:
 (Nuclear quadrupole moments (NQMom) in fm**2, nuclear magnetic moments (NMagM)
  in nuclear magnetons)

  Atom         1           2           3           4
 IAtWgt=          16           1           1         127
 AtmWgt=  15.9949146   1.0078250   1.0078250 126.9004000
 NucSpn=           0           1           1           5
 AtZEff=  -0.0000000  -0.0000000  -0.0000000  -0.0000000
 NQMom=    0.0000000   0.0000000   0.0000000 -71.0000000
 NMagM=    0.0000000   2.7928460   2.7928460   2.8132800
 AtZNuc=   8.0000000   1.0000000   1.0000000  53.0000000
 Leave Link  101 at Fri Oct  8 16:22:30 2021, MaxMem= 16106127360 cpu:               4.7 elap:               0.2
 (Enter /sw/contrib/gaussian/g16/B01/g16/l103.exe)

 GradGradGradGradGradGradGradGradGradGradGradGradGradGradGradGradGradGrad
 Berny optimization.
 Initialization pass.
                       ----------------------------
                       !    Initial Parameters    !
                       ! (Angstroms and Degrees)  !
 ----------------------                            ----------------------
 !      Name          Value   Derivative information (Atomic Units)     !
 ------------------------------------------------------------------------
 !       r1          0.9806   Scan                                      !
 !       r2          0.9614   Frozen                                    !
 !       r3          3.5132   Frozen                                    !
 !       a1        100.6333   Frozen                                    !
 !       a2         89.398    Frozen                                    !
 !       d1         -0.0004   Frozen                                    !
 ------------------------------------------------------------------------
 Trust Radius=3.00D-01 FncErr=1.00D-07 GrdErr=1.00D-07 EigMax=2.50D+02 EigMin=1.00D-04
 Number of optimizations in scan=  51
 Number of steps in this run=     20 maximum allowed number of steps=    100.
 GradGradGradGradGradGradGradGradGradGradGradGradGradGradGradGradGradGrad

 Leave Link  103 at Fri Oct  8 16:22:31 2021, MaxMem= 16106127360 cpu:               0.6 elap:               0.0
 (Enter /sw/contrib/gaussian/g16/B01/g16/l202.exe)
 ---------------------------------------------------------------------------------------------------
                            Z-MATRIX (ANGSTROMS AND DEGREES)
   CD    Cent   Atom    N1       Length/X        N2       Alpha/Y        N3        Beta/Z          J
 ---------------------------------------------------------------------------------------------------
      1      1  O 
      2      2  H        1   0.980551(     1)
      3      3  H        1   0.961393(     2)      2  100.633(     4)
      4      4  I        1   3.513216(     3)      3   89.398(     5)      2   -0.000(     6)      0
 ---------------------------------------------------------------------------------------------------
                         Z-Matrix orientation:                         
 ---------------------------------------------------------------------
 Center     Atomic      Atomic             Coordinates (Angstroms)
 Number     Number       Type             X           Y           Z
 ---------------------------------------------------------------------
      1          8           0        0.000000    0.000000    0.000000
      2          1           0        0.000000    0.000000    0.980551
      3          1           0        0.944884    0.000000   -0.177399
      4         53           0        0.684513   -0.000024    3.445886
 ---------------------------------------------------------------------
                    Distance matrix (angstroms):
                    1          2          3          4
     1  O    0.000000
     2  H    0.980551   0.000000
     3  H    0.961393   1.494541   0.000000
     4  I    3.513216   2.558601   3.632628   0.000000
 Stoichiometry    H2IO(1-)
 Framework group  C1[X(H2IO)]
 Deg. of freedom     6
 Full point group                 C1      NOp   1
 Largest Abelian subgroup         C1      NOp   1
 Largest concise Abelian subgroup C1      NOp   1
                         Standard orientation:                         
 ---------------------------------------------------------------------
 Center     Atomic      Atomic             Coordinates (Angstroms)
 Number     Number       Type             X           Y           Z
 ---------------------------------------------------------------------
      1          8           0       -2.969747   -0.086770   -0.000001
      2          1           0       -2.003498   -0.253628    0.000006
      3          1           0       -2.983770    0.874520    0.000001
      4         53           0        0.542363    0.001382   -0.000000
 ---------------------------------------------------------------------
 Rotational constants (GHZ):         543.9766096           2.6654471           2.6524503
 Leave Link  202 at Fri Oct  8 16:22:31 2021, MaxMem= 16106127360 cpu:               0.6 elap:               0.1
 (Enter /sw/contrib/gaussian/g16/B01/g16/l301.exe)
 General basis read from cards:  (5D, 7F)
 Centers:       2      3      1      2      3
 aug-cc-pVTZ
 ****
 Centers:       4
 S 11 1.00
     Exponent=  5.5465000000D+03 Coefficients=  1.5600000000D-04
     Exponent=  8.3821400000D+02 Coefficients=  9.8600000000D-04
     Exponent=  1.8218700000D+02 Coefficients=  2.7920000000D-03
     Exponent=  3.1212300000D+01 Coefficients= -4.3251000000D-02
     Exponent=  1.9531400000D+01 Coefficients=  2.3413400000D-01
     Exponent=  8.2409900000D+00 Coefficients= -7.5094300000D-01
     Exponent=  2.1945500000D+00 Coefficients=  8.8296800000D-01
     Exponent=  1.1091100000D+00 Coefficients=  4.6206100000D-01
     Exponent=  3.7464100000D-01 Coefficients=  2.2286000000D-02
     Exponent=  1.7708000000D-01 Coefficients= -4.3530000000D-03
     Exponent=  8.1061000000D-02 Coefficients=  1.1020000000D-03
 S 11 1.00
     Exponent=  5.5465000000D+03 Coefficients= -7.3000000000D-05
     Exponent=  8.3821400000D+02 Coefficients= -5.0800000000D-04
     Exponent=  1.8218700000D+02 Coefficients= -1.1580000000D-03
     Exponent=  3.1212300000D+01 Coefficients=  1.2193000000D-02
     Exponent=  1.9531400000D+01 Coefficients= -8.7854000000D-02
     Exponent=  8.2409900000D+00 Coefficients=  3.3820000000D-01
     Exponent=  2.1945500000D+00 Coefficients= -5.7655000000D-01
     Exponent=  1.1091100000D+00 Coefficients= -4.0929800000D-01
     Exponent=  3.7464100000D-01 Coefficients=  5.6745900000D-01
     Exponent=  1.7708000000D-01 Coefficients=  6.1248900000D-01
     Exponent=  8.1061000000D-02 Coefficients=  1.4323100000D-01
 S 1 1.00
     Exponent=  3.7464100000D-01 Coefficients=  1.0000000000D+00
 S 1 1.00
     Exponent=  1.7708000000D-01 Coefficients=  1.0000000000D+00
 S 1 1.00
     Exponent=  1.0010000000D-01 Coefficients=  1.0000000000D+00
 S 1 1.00
     Exponent=  4.1200000000D-02 Coefficients=  1.0000000000D+00
 P 9 1.00
     Exponent=  1.8898800000D+02 Coefficients=  5.8500000000D-04
     Exponent=  2.1286800000D+01 Coefficients=  3.6923000000D-02
     Exponent=  1.0039600000D+01 Coefficients= -2.3532400000D-01
     Exponent=  3.4518000000D+00 Coefficients=  3.4148300000D-01
     Exponent=  1.9745600000D+00 Coefficients=  5.3478800000D-01
     Exponent=  1.0242000000D+00 Coefficients=  2.6514100000D-01
     Exponent=  4.4943700000D-01 Coefficients=  2.5787000000D-02
     Exponent=  1.8664800000D-01 Coefficients=  5.2200000000D-04
     Exponent=  7.3481000000D-02 Coefficients=  6.0600000000D-04
 P 9 1.00
     Exponent=  1.8898800000D+02 Coefficients= -2.5600000000D-04
     Exponent=  2.1286800000D+01 Coefficients= -1.1682000000D-02
     Exponent=  1.0039600000D+01 Coefficients=  8.3192000000D-02
     Exponent=  3.4518000000D+00 Coefficients= -1.5697000000D-01
     Exponent=  1.9745600000D+00 Coefficients= -2.2451800000D-01
     Exponent=  1.0242000000D+00 Coefficients= -1.1445100000D-01
     Exponent=  4.4943700000D-01 Coefficients=  3.7535600000D-01
     Exponent=  1.8664800000D-01 Coefficients=  5.7513600000D-01
     Exponent=  7.3481000000D-02 Coefficients=  2.4591700000D-01
 P 1 1.00
     Exponent=  5.9810000000D-01 Coefficients=  1.0000000000D+00
 P 1 1.00
     Exponent=  9.6180000000D-02 Coefficients=  1.0000000000D+00
 P 1 1.00
     Exponent=  3.5900000000D-02 Coefficients=  1.0000000000D+00
 D 9 1.00
     Exponent=  1.3266200000D+02 Coefficients=  5.7200000000D-04
     Exponent=  3.7605400000D+01 Coefficients=  4.4020000000D-03
     Exponent=  1.0389100000D+01 Coefficients= -4.0922000000D-02
     Exponent=  6.4901700000D+00 Coefficients=  9.9661000000D-02
     Exponent=  3.4545100000D+00 Coefficients=  3.2266300000D-01
     Exponent=  1.8441300000D+00 Coefficients=  4.0034300000D-01
     Exponent=  9.6247800000D-01 Coefficients=  2.6830600000D-01
     Exponent=  4.7285300000D-01 Coefficients=  8.4847000000D-02
     Exponent=  1.9320000000D-01 Coefficients=  7.6320000000D-03
 D 1 1.00
     Exponent=  4.7285300000D-01 Coefficients=  1.0000000000D+00
 D 1 1.00
     Exponent=  1.9320000000D-01 Coefficients=  1.0000000000D+00
 D 1 1.00
     Exponent=  7.8200000000D-02 Coefficients=  1.0000000000D+00
 F 1 1.00
     Exponent=  4.0640000000D-01 Coefficients=  1.0000000000D+00
 F 1 1.00
     Exponent=  1.8480000000D-01 Coefficients=  1.0000000000D+00
 ****
 ======================================================================================================
                                       Pseudopotential Parameters
 ======================================================================================================
  Center     Atomic      Valence      Angular      Power
  Number     Number     Electrons     Momentum     of R      Exponent        Coefficient   SO-Coeffient
 ======================================================================================================
    1          8
                                   No pseudopotential on this center.
    2          1
                                   No pseudopotential on this center.
    3          1
                                   No pseudopotential on this center.
    4         53           25
                                      G and up 
                                                     2        1.0000000        0.00000000    0.00000000
                                      S - G
                                                     2       40.0333760       49.98964900    0.00000000
                                                     2       17.3005760      281.00655600    0.00000000
                                                     2        8.8517200       61.41673900    0.00000000
                                      P - G
                                                     2       15.7201410       67.41623900    0.00000000
                                                     2       15.2082220      134.80769600    0.00000000
                                                     2        8.2941860       14.56654800    0.00000000
                                                     2        7.7539490       28.96842200    0.00000000
                                      D - G
                                                     2       13.8177510       35.53875600    0.00000000
                                                     2       13.5878050       53.33975900    0.00000000
                                                     2        6.9476300        9.71646600    0.00000000
                                                     2        6.9600990       14.97750000    0.00000000
                                      F - G
                                                     2       18.5229500      -20.17661800    0.00000000
                                                     2       18.2510350      -26.08807700    0.00000000
                                                     2        7.5579010       -0.22043400    0.00000000
                                                     2        7.5974040       -0.22164600    0.00000000
 ======================================================================================================
 Ernie: Thresh=  0.10000D-02 Tol=  0.10000D-05 Strict=F.
 Ernie:  16 primitive shells out of 135 were deleted.
 There are   218 symmetry adapted cartesian basis functions of A   symmetry.
 There are   191 symmetry adapted basis functions of A   symmetry.
   191 basis functions,   344 primitive gaussians,   218 cartesian basis functions
    18 alpha electrons       18 beta electrons
       nuclear repulsion energy        48.0122315270 Hartrees.
 IExCor=    0 DFT=F Ex=HF Corr=None ExCW=0 ScaHFX=  1.000000
 ScaDFX=  1.000000  1.000000  1.000000  1.000000 ScalE2=  1.000000  1.000000
 IRadAn=      5 IRanWt=     -1 IRanGd=            0 ICorTp=0 IEmpDi=  4
 NAtoms=    4 NActive=    4 NUniq=    4 SFac= 1.00D+00 NAtFMM=   60 NAOKFM=F Big=F
 Integral buffers will be    131072 words long.
 Raffenetti 1 integral format.
 Two-electron integral symmetry is turned on.
 Leave Link  301 at Fri Oct  8 16:22:31 2021, MaxMem= 16106127360 cpu:               3.6 elap:               0.2
 (Enter /sw/contrib/gaussian/g16/B01/g16/l302.exe)
 NPDir=0 NMtPBC=     1 NCelOv=     1 NCel=       1 NClECP=     1 NCelD=      1
         NCelK=      1 NCelE2=     1 NClLst=     1 CellRange=     0.0.
 One-electron integrals computed using PRISM.
 One-electron integral symmetry used in STVInt
   1 Symmetry operations used in ECPInt.
 ECPInt:  NShTT=    2145 NPrTT=    7341 LenC2=    2146 LenP2D=    6711.
 LDataN:  DoStor=T MaxTD1= 7 Len=  274
 NBasis=   191 RedAO= T EigKep=  3.83D-04  NBF=   191
 NBsUse=   147 1.00D-06 EigRej=  8.94D-16 NBFU=   147
 Leave Link  302 at Fri Oct  8 16:22:31 2021, MaxMem= 16106127360 cpu:               8.6 elap:               0.4
 (Enter /sw/contrib/gaussian/g16/B01/g16/l303.exe)
 DipDrv:  MaxL=1.
 Leave Link  303 at Fri Oct  8 16:22:31 2021, MaxMem= 16106127360 cpu:               2.2 elap:               0.1
 (Enter /sw/contrib/gaussian/g16/B01/g16/l401.exe)
 ExpMin= 2.53D-02 ExpMax= 1.53D+04 ExpMxC= 5.22D+02 IAcc=3 IRadAn=         5 AccDes= 0.00D+00
 Harris functional with IExCor=  205 and IRadAn=       5 diagonalized for initial guess.
 HarFok:  IExCor=  205 AccDes= 0.00D+00 IRadAn=         5 IDoV= 1 UseB2=F ITyADJ=14
 ICtDFT=  3500011 ScaDFX=  1.000000  1.000000  1.000000  1.000000
 Defaulting to unpruned grid for atomic number  53.
 FoFCou: FMM=F IPFlag=           0 FMFlag=      100000 FMFlg1=           0
         NFxFlg=           0 DoJE=T BraDBF=F KetDBF=T FulRan=T
         wScrn=  0.000000 ICntrl=       500 IOpCl=  0 I1Cent=   200000004 NGrid=           0
         NMat0=    1 NMatS0=      1 NMatT0=    0 NMatD0=    1 NMtDS0=    0 NMtDT0=    0
 Petite list used in FoFCou.
 Harris En= -372.681554610668    
 JPrj=0 DoOrth=F DoCkMO=F.
 Leave Link  401 at Fri Oct  8 16:22:32 2021, MaxMem= 16106127360 cpu:               9.8 elap:               0.5
 (Enter /sw/contrib/gaussian/g16/B01/g16/l502.exe)
 Keep R1 ints in memory in canonical form, NReq=226102576.
 FoFCou: FMM=F IPFlag=           0 FMFlag=           0 FMFlg1=           0
         NFxFlg=           0 DoJE=F BraDBF=F KetDBF=F FulRan=T
         wScrn=  0.000000 ICntrl=       600 IOpCl=  0 I1Cent=           0 NGrid=           0
         NMat0=    1 NMatS0=  18336 NMatT0=    0 NMatD0=    1 NMtDS0=    0 NMtDT0=    0
 Symmetry not used in FoFCou.
 Two-electron integral symmetry not used.
 Closed shell SCF:
 Using DIIS extrapolation, IDIIS=  1040.
 NGot= 16106127360 LenX= 15937910754 LenY= 15937862789
 Requested convergence on RMS density matrix=1.00D-08 within 128 cycles.
 Requested convergence on MAX density matrix=1.00D-06.
 Requested convergence on             energy=1.00D-06.
 No special actions if energy rises.

 Cycle   1  Pass 1  IDiag  1:
 E= -370.658415712221    
 DIIS: error= 5.43D-02 at cycle   1 NSaved=   1.
 NSaved= 1 IEnMin= 1 EnMin= -370.658415712221     IErMin= 1 ErrMin= 5.43D-02
 ErrMax= 5.43D-02  0.00D+00 EMaxC= 1.00D-01 BMatC= 3.69D-01 BMatP= 3.69D-01
 IDIUse=3 WtCom= 4.57D-01 WtEn= 5.43D-01
 Coeff-Com:  0.100D+01
 Coeff-En:   0.100D+01
 Coeff:      0.100D+01
 Gap=     0.404 Goal=   None    Shift=    0.000
 GapD=    0.404 DampG=2.000 DampE=0.500 DampFc=1.0000 IDamp=-1.
 RMSDP=3.43D-03 MaxDP=1.01D-01              OVMax= 1.26D-01

 Cycle   2  Pass 1  IDiag  1:
 E= -370.774697476028     Delta-E=       -0.116281763808 Rises=F Damp=F
 DIIS: error= 3.75D-02 at cycle   2 NSaved=   2.
 NSaved= 2 IEnMin= 2 EnMin= -370.774697476028     IErMin= 2 ErrMin= 3.75D-02
 ErrMax= 3.75D-02  0.00D+00 EMaxC= 1.00D-01 BMatC= 6.98D-02 BMatP= 3.69D-01
 IDIUse=3 WtCom= 6.25D-01 WtEn= 3.75D-01
 Coeff-Com:  0.267D+00 0.733D+00
 Coeff-En:   0.000D+00 0.100D+01
 Coeff:      0.167D+00 0.833D+00
 Gap=     0.274 Goal=   None    Shift=    0.000
 RMSDP=1.58D-03 MaxDP=7.23D-02 DE=-1.16D-01 OVMax= 7.63D-02

 Cycle   3  Pass 1  IDiag  1:
 E= -370.810951841224     Delta-E=       -0.036254365195 Rises=F Damp=F
 DIIS: error= 1.48D-02 at cycle   3 NSaved=   3.
 NSaved= 3 IEnMin= 3 EnMin= -370.810951841224     IErMin= 3 ErrMin= 1.48D-02
 ErrMax= 1.48D-02  0.00D+00 EMaxC= 1.00D-01 BMatC= 1.11D-02 BMatP= 6.98D-02
 IDIUse=3 WtCom= 8.52D-01 WtEn= 1.48D-01
 Coeff-Com: -0.310D-02 0.278D+00 0.725D+00
 Coeff-En:   0.000D+00 0.000D+00 0.100D+01
 Coeff:     -0.265D-02 0.237D+00 0.766D+00
 Gap=     0.279 Goal=   None    Shift=    0.000
 RMSDP=3.88D-04 MaxDP=1.99D-02 DE=-3.63D-02 OVMax= 2.29D-02

 Cycle   4  Pass 1  IDiag  1:
 E= -370.817600984644     Delta-E=       -0.006649143421 Rises=F Damp=F
 DIIS: error= 2.02D-03 at cycle   4 NSaved=   4.
 NSaved= 4 IEnMin= 4 EnMin= -370.817600984644     IErMin= 4 ErrMin= 2.02D-03
 ErrMax= 2.02D-03  0.00D+00 EMaxC= 1.00D-01 BMatC= 1.65D-04 BMatP= 1.11D-02
 IDIUse=3 WtCom= 9.80D-01 WtEn= 2.02D-02
 Coeff-Com: -0.750D-02-0.861D-02 0.104D+00 0.912D+00
 Coeff-En:   0.000D+00 0.000D+00 0.000D+00 0.100D+01
 Coeff:     -0.735D-02-0.844D-02 0.102D+00 0.913D+00
 Gap=     0.281 Goal=   None    Shift=    0.000
 RMSDP=9.41D-05 MaxDP=5.34D-03 DE=-6.65D-03 OVMax= 3.80D-03

 Cycle   5  Pass 1  IDiag  1:
 E= -370.817727642908     Delta-E=       -0.000126658263 Rises=F Damp=F
 DIIS: error= 1.61D-04 at cycle   5 NSaved=   5.
 NSaved= 5 IEnMin= 5 EnMin= -370.817727642908     IErMin= 5 ErrMin= 1.61D-04
 ErrMax= 1.61D-04  0.00D+00 EMaxC= 1.00D-01 BMatC= 4.50D-06 BMatP= 1.65D-04
 IDIUse=3 WtCom= 9.98D-01 WtEn= 1.61D-03
 Coeff-Com:  0.128D-02-0.170D-01-0.464D-01 0.275D-01 0.103D+01
 Coeff-En:   0.000D+00 0.000D+00 0.000D+00 0.000D+00 0.100D+01
 Coeff:      0.128D-02-0.170D-01-0.463D-01 0.274D-01 0.103D+01
 Gap=     0.279 Goal=   None    Shift=    0.000
 RMSDP=4.01D-05 MaxDP=1.52D-03 DE=-1.27D-04 OVMax= 1.39D-03

 Cycle   6  Pass 1  IDiag  1:
 E= -370.817736705009     Delta-E=       -0.000009062101 Rises=F Damp=F
 DIIS: error= 9.43D-05 at cycle   6 NSaved=   6.
 NSaved= 6 IEnMin= 6 EnMin= -370.817736705009     IErMin= 6 ErrMin= 9.43D-05
 ErrMax= 9.43D-05  0.00D+00 EMaxC= 1.00D-01 BMatC= 3.81D-07 BMatP= 4.50D-06
 IDIUse=1 WtCom= 1.00D+00 WtEn= 0.00D+00
 Coeff-Com:  0.123D-03 0.556D-02 0.341D-02-0.103D+00-0.201D+00 0.129D+01
 Coeff:      0.123D-03 0.556D-02 0.341D-02-0.103D+00-0.201D+00 0.129D+01
 Gap=     0.280 Goal=   None    Shift=    0.000
 RMSDP=1.27D-05 MaxDP=9.02D-04 DE=-9.06D-06 OVMax= 7.87D-04

 Cycle   7  Pass 1  IDiag  1:
 E= -370.817737920735     Delta-E=       -0.000001215727 Rises=F Damp=F
 DIIS: error= 1.14D-05 at cycle   7 NSaved=   7.
 NSaved= 7 IEnMin= 7 EnMin= -370.817737920735     IErMin= 7 ErrMin= 1.14D-05
 ErrMax= 1.14D-05  0.00D+00 EMaxC= 1.00D-01 BMatC= 1.30D-08 BMatP= 3.81D-07
 IDIUse=1 WtCom= 1.00D+00 WtEn= 0.00D+00
 Coeff-Com: -0.751D-04-0.707D-03 0.100D-02 0.286D-01-0.883D-03-0.330D+00
 Coeff-Com:  0.130D+01
 Coeff:     -0.751D-04-0.707D-03 0.100D-02 0.286D-01-0.883D-03-0.330D+00
 Coeff:      0.130D+01
 Gap=     0.280 Goal=   None    Shift=    0.000
 RMSDP=2.64D-06 MaxDP=1.22D-04 DE=-1.22D-06 OVMax= 1.37D-04

 Cycle   8  Pass 1  IDiag  1:
 E= -370.817737963127     Delta-E=       -0.000000042392 Rises=F Damp=F
 DIIS: error= 3.52D-06 at cycle   8 NSaved=   8.
 NSaved= 8 IEnMin= 8 EnMin= -370.817737963127     IErMin= 8 ErrMin= 3.52D-06
 ErrMax= 3.52D-06  0.00D+00 EMaxC= 1.00D-01 BMatC= 4.06D-10 BMatP= 1.30D-08
 IDIUse=1 WtCom= 1.00D+00 WtEn= 0.00D+00
 Coeff-Com:  0.240D-05-0.118D-03-0.146D-03 0.781D-03 0.601D-02-0.135D-01
 Coeff-Com: -0.122D+00 0.113D+01
 Coeff:      0.240D-05-0.118D-03-0.146D-03 0.781D-03 0.601D-02-0.135D-01
 Coeff:     -0.122D+00 0.113D+01
 Gap=     0.280 Goal=   None    Shift=    0.000
 RMSDP=4.55D-07 MaxDP=2.20D-05 DE=-4.24D-08 OVMax= 1.68D-05

 Cycle   9  Pass 1  IDiag  1:
 E= -370.817737964281     Delta-E=       -0.000000001154 Rises=F Damp=F
 DIIS: error= 5.77D-07 at cycle   9 NSaved=   9.
 NSaved= 9 IEnMin= 9 EnMin= -370.817737964281     IErMin= 9 ErrMin= 5.77D-07
 ErrMax= 5.77D-07  0.00D+00 EMaxC= 1.00D-01 BMatC= 3.16D-11 BMatP= 4.06D-10
 IDIUse=1 WtCom= 1.00D+00 WtEn= 0.00D+00
 Coeff-Com:  0.556D-05 0.501D-04-0.765D-04-0.201D-02 0.109D-03 0.228D-01
 Coeff-Com: -0.773D-01-0.106D+00 0.116D+01
 Coeff:      0.556D-05 0.501D-04-0.765D-04-0.201D-02 0.109D-03 0.228D-01
 Coeff:     -0.773D-01-0.106D+00 0.116D+01
 Gap=     0.280 Goal=   None    Shift=    0.000
 RMSDP=9.71D-08 MaxDP=3.40D-06 DE=-1.15D-09 OVMax= 5.37D-06

 Cycle  10  Pass 1  IDiag  1:
 E= -370.817737964369     Delta-E=       -0.000000000088 Rises=F Damp=F
 DIIS: error= 1.27D-07 at cycle  10 NSaved=  10.
 NSaved=10 IEnMin=10 EnMin= -370.817737964369     IErMin=10 ErrMin= 1.27D-07
 ErrMax= 1.27D-07  0.00D+00 EMaxC= 1.00D-01 BMatC= 2.36D-12 BMatP= 3.16D-11
 IDIUse=1 WtCom= 1.00D+00 WtEn= 0.00D+00
 Coeff-Com: -0.388D-06 0.104D-04 0.907D-05-0.968D-04-0.452D-03 0.161D-02
 Coeff-Com:  0.622D-02-0.751D-01 0.200D-01 0.105D+01
 Coeff:     -0.388D-06 0.104D-04 0.907D-05-0.968D-04-0.452D-03 0.161D-02
 Coeff:      0.622D-02-0.751D-01 0.200D-01 0.105D+01
 Gap=     0.280 Goal=   None    Shift=    0.000
 RMSDP=2.81D-08 MaxDP=1.40D-06 DE=-8.82D-11 OVMax= 1.03D-06

 Cycle  11  Pass 1  IDiag  1:
 E= -370.817737964375     Delta-E=       -0.000000000006 Rises=F Damp=F
 DIIS: error= 2.78D-08 at cycle  11 NSaved=  11.
 NSaved=11 IEnMin=11 EnMin= -370.817737964375     IErMin=11 ErrMin= 2.78D-08
 ErrMax= 2.78D-08  0.00D+00 EMaxC= 1.00D-01 BMatC= 1.44D-13 BMatP= 2.36D-12
 IDIUse=1 WtCom= 1.00D+00 WtEn= 0.00D+00
 Coeff-Com: -0.427D-06-0.349D-05 0.649D-05 0.152D-03-0.295D-04-0.162D-02
 Coeff-Com:  0.536D-02 0.893D-02-0.931D-01-0.772D-02 0.109D+01
 Coeff:     -0.427D-06-0.349D-05 0.649D-05 0.152D-03-0.295D-04-0.162D-02
 Coeff:      0.536D-02 0.893D-02-0.931D-01-0.772D-02 0.109D+01
 Gap=     0.280 Goal=   None    Shift=    0.000
 RMSDP=1.32D-08 MaxDP=8.80D-07 DE=-6.20D-12 OVMax= 5.10D-07

 Cycle  12  Pass 1  IDiag  1:
 E= -370.817737964375     Delta-E=       -0.000000000000 Rises=F Damp=F
 DIIS: error= 1.08D-08 at cycle  12 NSaved=  12.
 NSaved=12 IEnMin=12 EnMin= -370.817737964375     IErMin=12 ErrMin= 1.08D-08
 ErrMax= 1.08D-08  0.00D+00 EMaxC= 1.00D-01 BMatC= 6.17D-15 BMatP= 1.44D-13
 IDIUse=1 WtCom= 1.00D+00 WtEn= 0.00D+00
 Coeff-Com:  0.111D-06 0.326D-06-0.133D-05-0.281D-04 0.219D-04 0.264D-03
 Coeff-Com: -0.136D-02 0.189D-02 0.177D-01-0.525D-01-0.191D+00 0.123D+01
 Coeff:      0.111D-06 0.326D-06-0.133D-05-0.281D-04 0.219D-04 0.264D-03
 Coeff:     -0.136D-02 0.189D-02 0.177D-01-0.525D-01-0.191D+00 0.123D+01
 Gap=     0.280 Goal=   None    Shift=    0.000
 RMSDP=3.54D-09 MaxDP=2.39D-07 DE=-5.68D-14 OVMax= 1.06D-07

 SCF Done:  E(RHF) =  -370.817737964     A.U. after   12 cycles
            NFock= 12  Conv=0.35D-08     -V/T= 2.9847
 KE= 1.868413594202D+02 PE=-9.096608468015D+02 EE= 3.039895178900D+02
 Leave Link  502 at Fri Oct  8 16:22:37 2021, MaxMem= 16106127360 cpu:              41.6 elap:               4.9
 (Enter /sw/contrib/gaussian/g16/B01/g16/l801.exe)
 ExpMin= 2.53D-02 ExpMax= 1.53D+04 ExpMxC= 5.22D+02 IAcc=3 IRadAn=         5 AccDes= 0.00D+00
 HarFok:  IExCor=  205 AccDes= 0.00D+00 IRadAn=         5 IDoV=-2 UseB2=F ITyADJ=14
 ICtDFT= 12500011 ScaDFX=  1.000000  1.000000  1.000000  1.000000
 Defaulting to unpruned grid for atomic number  53.
 Largest valence mixing into a core orbital is  1.30D-04
 Largest core mixing into a valence orbital is  2.13D-05
 Range of M.O.s used for correlation:     6   147
 NBasis=   191 NAE=    18 NBE=    18 NFC=     5 NFV=     0
 NROrb=    142 NOA=    13 NOB=    13 NVA=   129 NVB=   129

 **** Warning!!: The largest alpha MO coefficient is  0.11585129D+02

 Leave Link  801 at Fri Oct  8 16:22:37 2021, MaxMem= 16106127360 cpu:               5.0 elap:               0.3
 (Enter /sw/contrib/gaussian/g16/B01/g16/l906.exe)
 Frozen-core derivative calculation, NFC=   5 NFV=   0.
 FulOut=F Deriv=T AODrv=T NAtomX=     4
   MMem=         107  MDisk=          13 MDiskD=          13
  W3Min=      576828 MinDsk=     1313419 NBas6D=         218
 NBas2D=       24339    NTT=       23871    LW2=    26219120
    MDV= 16105786849 MDiskM=      369352 NBas2p=       24339
 Fully direct method using O(ONN) memory.
 IMap=   1   2   3   4   5   6   7   8   9  10  11  12  13  14  15  16  17  18
 JobTyp=1 Pass  1:  I=   6 to  18 NPSUse= 28 ParTrn=T ParDer=T DoDerP=T.
 Spin components of T(2) and E(2):
     alpha-alpha T2 =       0.2160146151D-01 E2=     -0.6735110491D-01
     alpha-beta  T2 =       0.1130291065D+00 E2=     -0.3618597195D+00
     beta-beta   T2 =       0.2160146151D-01 E2=     -0.6735110491D-01
 The integrals were generated   1 times.
 ANorm=    0.1075282302D+01
 E2 =    -0.4965619293D+00 EUMP2 =    -0.37131429989366D+03
 Leave Link  906 at Fri Oct  8 16:22:51 2021, MaxMem= 16106127360 cpu:             370.1 elap:              13.3
 (Enter /sw/contrib/gaussian/g16/B01/g16/l1002.exe)
 Minotr:  Closed shell wavefunction.
          Computing MP2/KS-MP2 derivatives.
          Using Z-Vector for PSCF gradient.
          Skipping F1 and S1 gradient terms here.
          IDoAtm=1111
          Frozen-core window.
          Direct CPHF calculation.
          Differentiating once with respect to electric field.
                with respect to dipole field.
          Differentiating once with respect to nuclear coordinates.
          Requested convergence is 1.0D-10 RMS, and 1.0D-09 maximum.
          NewPWx=F KeepS1=T KeepF1=T KeepIn=T MapXYZ=F SortEE=F KeepMc=T.
 Keep R1 ints in memory in canonical form, NReq=226105884.
 FoFCou: FMM=F IPFlag=           0 FMFlag=           0 FMFlg1=           0
         NFxFlg=           0 DoJE=F BraDBF=F KetDBF=F FulRan=T
         wScrn=  0.000000 ICntrl=       600 IOpCl=  0 I1Cent=           0 NGrid=           0
         NMat0=    1 NMatS0=  18336 NMatT0=    0 NMatD0=    1 NMtDS0=    0 NMtDT0=    0
 Symmetry not used in FoFCou.
 Two-electron integral symmetry not used.
          MDV=   16106127360 using IRadAn=       5.
          Solving linear equations separately, MaxMat=       0.
          There are     1 degrees of freedom in the 1st order CPHF.  IDoFFX=0 NUNeed=     1.
 LinEq1:  Iter=  0 NonCon=     1 RMS=2.64D-03 Max=4.61D-02 NDo=     1
 AX will form     1 AO Fock derivatives at one time.
 LinEq1:  Iter=  1 NonCon=     1 RMS=4.26D-04 Max=5.13D-03 NDo=     1
 LinEq1:  Iter=  2 NonCon=     1 RMS=1.91D-04 Max=2.69D-03 NDo=     1
 LinEq1:  Iter=  3 NonCon=     1 RMS=4.45D-05 Max=7.13D-04 NDo=     1
 LinEq1:  Iter=  4 NonCon=     1 RMS=1.30D-05 Max=1.41D-04 NDo=     1
 LinEq1:  Iter=  5 NonCon=     1 RMS=3.42D-06 Max=4.65D-05 NDo=     1
 LinEq1:  Iter=  6 NonCon=     1 RMS=7.28D-07 Max=1.12D-05 NDo=     1
 LinEq1:  Iter=  7 NonCon=     1 RMS=1.62D-07 Max=2.51D-06 NDo=     1
 LinEq1:  Iter=  8 NonCon=     1 RMS=4.56D-08 Max=6.39D-07 NDo=     1
 LinEq1:  Iter=  9 NonCon=     1 RMS=8.83D-09 Max=1.22D-07 NDo=     1
 LinEq1:  Iter= 10 NonCon=     1 RMS=1.43D-09 Max=1.63D-08 NDo=     1
 LinEq1:  Iter= 11 NonCon=     1 RMS=2.47D-10 Max=3.87D-09 NDo=     1
 LinEq1:  Iter= 12 NonCon=     1 RMS=7.03D-11 Max=1.00D-09 NDo=     1
 LinEq1:  Iter= 13 NonCon=     0 RMS=1.43D-11 Max=1.67D-10 NDo=     1
 Linear equations converged to 1.000D-10 1.000D-09 after    13 iterations.
 End of Minotr F.D. properties file   721 does not exist.
 End of Minotr F.D. properties file   722 does not exist.
 End of Minotr F.D. properties file   788 does not exist.
 Leave Link 1002 at Fri Oct  8 16:22:56 2021, MaxMem= 16106127360 cpu:              44.4 elap:               5.9
 (Enter /sw/contrib/gaussian/g16/B01/g16/l601.exe)
 Copying SCF densities to generalized density rwf, IOpCl= 0 IROHF=0.

 **********************************************************************

            Population analysis using the SCF Density.

 **********************************************************************

 Orbital symmetries:
       Occupied  (A) (A) (A) (A) (A) (A) (A) (A) (A) (A) (A) (A)
                 (A) (A) (A) (A) (A) (A)
       Virtual   (A) (A) (A) (A) (A) (A) (A) (A) (A) (A) (A) (A)
                 (A) (A) (A) (A) (A) (A) (A) (A) (A) (A) (A) (A)
                 (A) (A) (A) (A) (A) (A) (A) (A) (A) (A) (A) (A)
                 (A) (A) (A) (A) (A) (A) (A) (A) (A) (A) (A) (A)
                 (A) (A) (A) (A) (A) (A) (A) (A) (A) (A) (A) (A)
                 (A) (A) (A) (A) (A) (A) (A) (A) (A) (A) (A) (A)
                 (A) (A) (A) (A) (A) (A) (A) (A) (A) (A) (A) (A)
                 (A) (A) (A) (A) (A) (A) (A) (A) (A) (A) (A) (A)
                 (A) (A) (A) (A) (A) (A) (A) (A) (A) (A) (A) (A)
                 (A) (A) (A) (A) (A) (A) (A) (A) (A) (A) (A) (A)
                 (A) (A) (A) (A) (A) (A) (A) (A) (A)
 The electronic state is 1-A.
 Alpha  occ. eigenvalues --  -20.40273  -7.46789  -5.29341  -5.29322  -5.29314
 Alpha  occ. eigenvalues --   -2.02087  -2.02073  -2.02064  -2.02045  -2.02044
 Alpha  occ. eigenvalues --   -1.18522  -0.62915  -0.53909  -0.43138  -0.34722
 Alpha  occ. eigenvalues --   -0.14829  -0.14346  -0.14291
 Alpha virt. eigenvalues --    0.13666   0.16720   0.23164   0.24467   0.25538
 Alpha virt. eigenvalues --    0.27075   0.28713   0.29183   0.31587   0.33163
 Alpha virt. eigenvalues --    0.36987   0.37070   0.37615   0.39386   0.40771
 Alpha virt. eigenvalues --    0.42366   0.44260   0.48494   0.53999   0.54038
 Alpha virt. eigenvalues --    0.56311   0.59926   0.65809   0.70493   0.77774
 Alpha virt. eigenvalues --    0.77816   0.77955   0.79767   0.79773   0.79948
 Alpha virt. eigenvalues --    0.80211   0.83268   0.84993   0.85254   0.86743
 Alpha virt. eigenvalues --    0.87390   0.88274   0.88621   0.90728   0.91018
 Alpha virt. eigenvalues --    0.94546   0.96412   0.97436   1.06593   1.08675
 Alpha virt. eigenvalues --    1.10121   1.10153   1.12679   1.15197   1.15785
 Alpha virt. eigenvalues --    1.17784   1.19971   1.30766   1.36317   1.37547
 Alpha virt. eigenvalues --    1.40866   1.46738   1.49893   1.57345   1.67610
 Alpha virt. eigenvalues --    1.72147   1.73587   1.75192   1.75227   1.76843
 Alpha virt. eigenvalues --    1.79871   1.80555   1.84143   1.86997   1.89700
 Alpha virt. eigenvalues --    2.00270   2.04785   2.05554   2.07467   2.10780
 Alpha virt. eigenvalues --    2.11742   2.15752   2.27919   2.43743   2.50342
 Alpha virt. eigenvalues --    2.53615   2.56727   2.63029   2.63742   2.66311
 Alpha virt. eigenvalues --    2.81670   2.87367   2.89286   2.98235   3.03567
 Alpha virt. eigenvalues --    3.06739   3.24463   3.26018   3.75521   3.85750
 Alpha virt. eigenvalues --    4.17895   4.20768   4.30918   4.32323   4.40897
 Alpha virt. eigenvalues --    4.44753   4.54691   4.57681   4.60001   4.75346
 Alpha virt. eigenvalues --    4.94898   5.10014   5.28284   5.38326   5.43337
 Alpha virt. eigenvalues --    5.48593   5.67351   5.79925   6.38235   6.68071
 Alpha virt. eigenvalues --    6.88632   7.11868   7.27799   7.42086   7.43494
 Alpha virt. eigenvalues --    7.46799   7.54925   7.55877   7.79640   8.04096
 Alpha virt. eigenvalues --    8.12382   8.96335  16.17785  59.21518
          Condensed to atoms (all electrons):
               1          2          3          4
     1  O    8.078232   0.249604   0.273760  -0.055914
     2  H    0.249604   0.382671   0.022711   0.050514
     3  H    0.273760   0.022711   0.497998   0.010689
     4  I   -0.055914   0.050514   0.010689  25.938373
 Mulliken charges:
               1
     1  O   -0.545681
     2  H    0.294500
     3  H    0.194843
     4  I   -0.943661
 Sum of Mulliken charges =  -1.00000
 Mulliken charges with hydrogens summed into heavy atoms:
               1
     1  O   -0.056339
     4  I   -0.943661
 Electronic spatial extent (au):  <R**2>=            426.5697
 Charge=             -1.0000 electrons
 Dipole moment (field-independent basis, Debye):
    X=              0.1457    Y=              1.2193    Z=              0.0000  Tot=              1.2280
 Quadrupole moment (field-independent basis, Debye-Ang):
   XX=            -52.8625   YY=            -39.0190   ZZ=            -41.3415
   XY=             -4.5823   XZ=             -0.0000   YZ=             -0.0000
 Traceless Quadrupole moment (field-independent basis, Debye-Ang):
   XX=             -8.4548   YY=              5.3887   ZZ=              3.0662
   XY=             -4.5823   XZ=             -0.0000   YZ=             -0.0000
 Octapole moment (field-independent basis, Debye-Ang**2):
  XXX=             48.4021  YYY=              1.4581  ZZZ=             -0.0000  XYY=             -2.4813
  XXY=             15.4260  XXZ=              0.0000  XZZ=              4.3902  YZZ=              0.0629
  YYZ=             -0.0000  XYZ=              0.0000
 Hexadecapole moment (field-independent basis, Debye-Ang**3):
 XXXX=           -632.6639 YYYY=            -73.0787 ZZZZ=            -73.3148 XXXY=            -51.3538
 XXXZ=             -0.0001 YYYX=             -5.7815 YYYZ=              0.0000 ZZZX=             -0.0000
 ZZZY=             -0.0000 XXYY=            -80.1486 XXZZ=           -100.3227 YYZZ=            -24.6774
 XXYZ=              0.0000 YYXZ=             -0.0000 ZZXY=             -0.6253
 N-N= 4.801223152698D+01 E-N=-9.096608468660D+02  KE= 1.868413594202D+02
 No NMR shielding tensors so no spin-rotation constants.
 Leave Link  601 at Fri Oct  8 16:22:57 2021, MaxMem= 16106127360 cpu:               4.8 elap:               0.2
 (Enter /sw/contrib/gaussian/g16/B01/g16/l701.exe)
 ... and contract with generalized density number  2.
 Compute integral first derivatives.
   1 Symmetry operations used in ECPInt.
 ECPInt:  NShTT=    2145 NPrTT=    7341 LenC2=    2146 LenP2D=    6711.
 LDataN:  DoStor=T MaxTD1= 8 Len=  415
 Leave Link  701 at Fri Oct  8 16:22:58 2021, MaxMem= 16106127360 cpu:              22.7 elap:               0.9
 (Enter /sw/contrib/gaussian/g16/B01/g16/l702.exe)
 L702 exits ... SP integral derivatives will be done elsewhere.
 Leave Link  702 at Fri Oct  8 16:22:58 2021, MaxMem= 16106127360 cpu:               0.5 elap:               0.0
 (Enter /sw/contrib/gaussian/g16/B01/g16/l703.exe)
 Integral derivatives from FoFJK, PRISM(SPDF).
 Compute integral first derivatives, UseDBF=F ICtDFT=           0.
 Calling FoFJK, ICntrl=  10002127 FMM=F ISym2X=0 I1Cent= 0 IOpClX= 0 NMat=1 NMatS=1 NMatT=0.
 FoFJK:  IHMeth= 1 ICntrl=10002127 DoSepK=F KAlg= 0 I1Cent=           0 FoldK=F
 IRaf=         0 NMat=       1 IRICut=       1 DoRegI=T DoRafI=F ISym2E= 0 IDoP0=0 IntGTp=1.
 FoFCou: FMM=F IPFlag=           0 FMFlag=      100000 FMFlg1=         800
         NFxFlg=           0 DoJE=F BraDBF=F KetDBF=F FulRan=T
         wScrn=  0.000000 ICntrl=  10002127 IOpCl=  0 I1Cent=           0 NGrid=           0
         NMat0=    1 NMatS0=      1 NMatT0=    0 NMatD0=    1 NMtDS0=    0 NMtDT0=    0
 Symmetry not used in FoFCou.
 Leave Link  703 at Fri Oct  8 16:23:00 2021, MaxMem= 16106127360 cpu:              52.2 elap:               1.9
 (Enter /sw/contrib/gaussian/g16/B01/g16/l716.exe)
 Dipole        = 1.01213887D-01 4.54320621D-01 2.85130603D-06
 ***** Axes restored to original set *****
 -------------------------------------------------------------------
 Center     Atomic                   Forces (Hartrees/Bohr)
 Number     Number              X              Y              Z
 -------------------------------------------------------------------
      1        8           0.000039954    0.000000159    0.000027233
      2        1          -0.000015554   -0.000000172   -0.000016960
      3        1          -0.000024945   -0.000000034   -0.000007364
      4       53           0.000000544    0.000000047   -0.000002908
 -------------------------------------------------------------------
 Cartesian Forces:  Max     0.000039954 RMS     0.000017207
 -----------------------------------------------------------------------------------------------
                       Internal Coordinate Forces (Hartree/Bohr or radian)
  Cent   Atom   N1       Length/X         N2         Alpha/Y        N3         Beta/Z          J
 -----------------------------------------------------------------------------------------------
      1  O 
      2  H        1  -0.000017(     1)
      3  H        1  -0.000023(     2)      2   0.000029(     4)
      4  I        1  -0.000003(     3)      3  -0.000007(     5)      2   0.000000(     6)     0
 -----------------------------------------------------------------------------------------------
 Internal  Forces:  Max     0.000028819 RMS     0.000016909
 Force constants in Cartesian coordinates: 
                1             2             3             4             5 
      1  0.633807D+00
      2  0.000000D+00  0.692730D-01
      3 -0.196338D-01  0.000000D+00  0.633884D+00
      4 -0.892124D-01  0.000000D+00 -0.492462D-01  0.931992D-01
      5  0.103182D-05 -0.301314D-01  0.000000D+00 -0.153909D-05  0.131061D-01
      6  0.000000D+00  0.000000D+00 -0.512780D+00  0.000000D+00  0.000000D+00
      7 -0.547435D+00  0.000000D+00  0.829566D-01  0.877003D-02  0.000000D+00
      8  0.000000D+00 -0.307318D-01  0.000000D+00  0.000000D+00  0.133673D-01
      9  0.229800D-01  0.000000D+00 -0.109896D+00  0.467120D-01  0.000000D+00
     10  0.283986D-02  0.000000D+00 -0.140766D-01 -0.127568D-01  0.000000D+00
     11  0.000000D+00 -0.840978D-02  0.000000D+00  0.000000D+00  0.365797D-02
     12 -0.334618D-02  0.000000D+00 -0.112088D-01  0.253410D-02  0.000000D+00
                6             7             8             9            10 
      6  0.512780D+00
      7  0.000000D+00  0.536264D+00
      8  0.000000D+00  0.000000D+00  0.136337D-01
      9  0.000000D+00 -0.824796D-01  0.000000D+00  0.112436D+00
     10  0.000000D+00  0.240084D-02  0.000000D+00  0.127876D-01  0.751615D-02
     11  0.000000D+00  0.000000D+00  0.373086D-02  0.000000D+00  0.000000D+00
     12  0.000000D+00 -0.476918D-03  0.000000D+00 -0.254022D-02  0.128900D-02
               11            12 
     11  0.102095D-02
     12  0.000000D+00  0.137490D-01
 Force constants in internal coordinates: 
                1             2             3             4             5 
      1  0.512780D+00
      2  0.000000D+00  0.551749D+00
      3  0.000000D+00  0.000000D+00  0.140050D-01
      4  0.000000D+00  0.000000D+00  0.000000D+00  0.320000D+00
      5  0.000000D+00  0.000000D+00  0.000000D+00 -0.160000D+00  0.320000D+00
      6  0.000000D+00  0.000000D+00  0.000000D+00 -0.566000D-05  0.525588D-05
                6 
      6  0.449950D-01
 Leave Link  716 at Fri Oct  8 16:23:00 2021, MaxMem= 16106127360 cpu:               1.7 elap:               0.1
 (Enter /sw/contrib/gaussian/g16/B01/g16/l103.exe)

 GradGradGradGradGradGradGradGradGradGradGradGradGradGradGradGradGradGrad
 Berny optimization.
 Search for a local minimum.
 Step number   1 out of a maximum of   20 on scan point     1 out of    51
 All quantities printed in internal units (Hartrees-Bohrs-Radians)
 Second derivative matrix not updated -- first step.
 The second derivative matrix:
                          r1        r2        r3        a1        a2
           r1           0.51278
           r2           0.00000   0.55175
           r3           0.00000  -0.00000   0.01401
           a1           0.00000  -0.00000   0.00000   0.32000
           a2          -0.00000   0.00000  -0.00000  -0.16000   0.32000
           d1          -0.00000  -0.00000  -0.00000  -0.00001   0.00001
                          d1
           d1           0.04500
 ITU=  0
     Eigenvalues --- 1000.000001000.000001000.000001000.000001000.00000
     Eigenvalues --- 1000.00000
 RFO step:  Lambda= 0.00000000D+00 EMin= 1.00000000D+03
 Linear search not attempted -- first point.
 Variable       Old X    -DE/DX   Delta X   Delta X   Delta X     New X
                                 (Linear)    (Quad)   (Total)
    r1        1.85297  -0.00002   0.00000   0.00000   0.00000   1.85297
    r2        1.81677  -0.00002   0.00000   0.00000   0.00000   1.81677
    r3        6.63902  -0.00000   0.00000   0.00000   0.00000   6.63902
    a1        1.75638   0.00003   0.00000   0.00000   0.00000   1.75638
    a2        1.56029  -0.00001   0.00000   0.00000   0.00000   1.56029
    d1       -0.00001   0.00000   0.00000   0.00000   0.00000  -0.00001
         Item               Value     Threshold  Converged?
 Maximum Force            0.000000     0.000450     YES
 RMS     Force            0.000000     0.000300     YES
 Maximum Displacement     0.000000     0.001800     YES
 RMS     Displacement     0.000000     0.001200     YES
 Predicted change in Energy=-0.000000D+00
 Optimization completed.
    -- Stationary point found.
                       ----------------------------
                       !   Optimized Parameters   !
                       ! (Angstroms and Degrees)  !
 ----------------------                            ----------------------
 !      Name          Value   Derivative information (Atomic Units)     !
 ------------------------------------------------------------------------
 !       r1          0.9806   -DE/DX =    0.0                           !
 !       r2          0.9614   -DE/DX =    0.0                           !
 !       r3          3.5132   -DE/DX =    0.0                           !
 !       a1        100.6333   -DE/DX =    0.0                           !
 !       a2         89.398    -DE/DX =    0.0                           !
 !       d1         -0.0004   -DE/DX =    0.0                           !
 ------------------------------------------------------------------------
 Lowest energy point so far.  Saving SCF results.
 GradGradGradGradGradGradGradGradGradGradGradGradGradGradGradGradGradGrad

 Leave Link  103 at Fri Oct  8 16:23:00 2021, MaxMem= 16106127360 cpu:               2.2 elap:               0.1
 (Enter /sw/contrib/gaussian/g16/B01/g16/l202.exe)
 ---------------------------------------------------------------------------------------------------
                            Z-MATRIX (ANGSTROMS AND DEGREES)
   CD    Cent   Atom    N1       Length/X        N2       Alpha/Y        N3        Beta/Z          J
 ---------------------------------------------------------------------------------------------------
      1      1  O 
      2      2  H        1   1.000551(     1)
      3      3  H        1   0.961393(     2)      2  100.633(     4)
      4      4  I        1   3.513216(     3)      3   89.398(     5)      2   -0.000(     6)      0
 ---------------------------------------------------------------------------------------------------
                         Z-Matrix orientation:                         
 ---------------------------------------------------------------------
 Center     Atomic      Atomic             Coordinates (Angstroms)
 Number     Number       Type             X           Y           Z
 ---------------------------------------------------------------------
      1          8           0        0.000000    0.000000    0.000000
      2          1           0        0.000000    0.000000    1.000551
      3          1           0        0.944884    0.000000   -0.177399
      4         53           0        0.684513   -0.000024    3.445886
 ---------------------------------------------------------------------
                    Distance matrix (angstroms):
                    1          2          3          4
     1  O    0.000000
     2  H    1.000551   0.000000
     3  H    0.961393   1.510090   0.000000
     4  I    3.513216   2.539335   3.632628   0.000000
 Stoichiometry    H2IO(1-)
 Framework group  C1[X(H2IO)]
 Deg. of freedom     6
 Full point group                 C1      NOp   1
 RotChk:  IX=0 Diff= 2.53D-05
 Largest Abelian subgroup         C1      NOp   1
 Largest concise Abelian subgroup C1      NOp   1
                         Standard orientation:                         
 ---------------------------------------------------------------------
 Center     Atomic      Atomic             Coordinates (Angstroms)
 Number     Number       Type             X           Y           Z
 ---------------------------------------------------------------------
      1          8           0       -2.970062   -0.086663   -0.000001
      2          1           0       -1.984107   -0.256942    0.000006
      3          1           0       -2.984068    0.874628    0.000001
      4         53           0        0.542050    0.001427   -0.000000
 ---------------------------------------------------------------------
 Rotational constants (GHZ):         543.0057136           2.6666229           2.6535915
 Leave Link  202 at Fri Oct  8 16:23:00 2021, MaxMem= 16106127360 cpu:               1.2 elap:               0.1
 (Enter /sw/contrib/gaussian/g16/B01/g16/l301.exe)
 Basis read from rwf:  (5D, 7F)
 Pseudo-potential data read from rwf file.
 There are   218 symmetry adapted cartesian basis functions of A   symmetry.
 There are   191 symmetry adapted basis functions of A   symmetry.
   191 basis functions,   344 primitive gaussians,   218 cartesian basis functions
    18 alpha electrons       18 beta electrons
       nuclear repulsion energy        47.9615134979 Hartrees.
 IExCor=    0 DFT=F Ex=HF Corr=None ExCW=0 ScaHFX=  1.000000
 ScaDFX=  1.000000  1.000000  1.000000  1.000000 ScalE2=  1.000000  1.000000
 IRadAn=      5 IRanWt=     -1 IRanGd=            0 ICorTp=0 IEmpDi=  4
 NAtoms=    4 NActive=    4 NUniq=    4 SFac= 1.00D+00 NAtFMM=   60 NAOKFM=F Big=F
 Integral buffers will be    131072 words long.
 Raffenetti 1 integral format.
 Two-electron integral symmetry is turned on.
 No density basis found on file   724.
 Leave Link  301 at Fri Oct  8 16:23:00 2021, MaxMem= 16106127360 cpu:               1.5 elap:               0.1
 (Enter /sw/contrib/gaussian/g16/B01/g16/l302.exe)
 NPDir=0 NMtPBC=     1 NCelOv=     1 NCel=       1 NClECP=     1 NCelD=      1
         NCelK=      1 NCelE2=     1 NClLst=     1 CellRange=     0.0.
 One-electron integrals computed using PRISM.
 One-electron integral symmetry used in STVInt
   1 Symmetry operations used in ECPInt.
 ECPInt:  NShTT=    2145 NPrTT=    7341 LenC2=    2146 LenP2D=    6711.
 LDataN:  DoStor=T MaxTD1= 7 Len=  274
 NBasis=   191 RedAO= T EigKep=  3.92D-04  NBF=   191
 NBsUse=   147 1.00D-06 EigRej=  8.94D-16 NBFU=   147
 Leave Link  302 at Fri Oct  8 16:23:00 2021, MaxMem= 16106127360 cpu:               6.1 elap:               0.2
 (Enter /sw/contrib/gaussian/g16/B01/g16/l303.exe)
 DipDrv:  MaxL=1.
 Leave Link  303 at Fri Oct  8 16:23:00 2021, MaxMem= 16106127360 cpu:               0.7 elap:               0.0
 (Enter /sw/contrib/gaussian/g16/B01/g16/l401.exe)
 Initial guess from the checkpoint file:  "/gscratch/ilahie/mccoygrp/hocl/hoh/i_hoh_OHs.chk"
 B after Tr=    -0.000000    0.000000    0.000000
         Rot=    1.000000   -0.000000   -0.000000   -0.000050 Ang=  -0.01 deg.
 Guess basis will be translated and rotated to current coordinates.
 JPrj=2 DoOrth=T DoCkMO=T.
 Generating alternative initial guess.
 ExpMin= 2.53D-02 ExpMax= 1.53D+04 ExpMxC= 5.22D+02 IAcc=3 IRadAn=         5 AccDes= 0.00D+00
 Harris functional with IExCor=  205 and IRadAn=       5 diagonalized for initial guess.
 HarFok:  IExCor=  205 AccDes= 0.00D+00 IRadAn=         5 IDoV= 1 UseB2=F ITyADJ=14
 ICtDFT=  3500011 ScaDFX=  1.000000  1.000000  1.000000  1.000000
 Defaulting to unpruned grid for atomic number  53.
 FoFCou: FMM=F IPFlag=           0 FMFlag=      100000 FMFlg1=           0
         NFxFlg=           0 DoJE=T BraDBF=F KetDBF=T FulRan=T
         wScrn=  0.000000 ICntrl=       500 IOpCl=  0 I1Cent=   200000004 NGrid=           0
         NMat0=    1 NMatS0=      1 NMatT0=    0 NMatD0=    1 NMtDS0=    0 NMtDT0=    0
 Petite list used in FoFCou.
 Harris En= -372.680737444036    
 Leave Link  401 at Fri Oct  8 16:23:01 2021, MaxMem= 16106127360 cpu:               8.5 elap:               0.3
 (Enter /sw/contrib/gaussian/g16/B01/g16/l502.exe)
 Keep R1 ints in memory in canonical form, NReq=226102576.
 FoFCou: FMM=F IPFlag=           0 FMFlag=           0 FMFlg1=           0
         NFxFlg=           0 DoJE=F BraDBF=F KetDBF=F FulRan=T
         wScrn=  0.000000 ICntrl=       600 IOpCl=  0 I1Cent=           0 NGrid=           0
         NMat0=    1 NMatS0=  18336 NMatT0=    0 NMatD0=    1 NMtDS0=    0 NMtDT0=    0
 Symmetry not used in FoFCou.
 Two-electron integral symmetry not used.
 Closed shell SCF:
 Using DIIS extrapolation, IDIIS=  1040.
 NGot= 16106127360 LenX= 15937910754 LenY= 15937862789
 Requested convergence on RMS density matrix=1.00D-08 within 128 cycles.
 Requested convergence on MAX density matrix=1.00D-06.
 Requested convergence on             energy=1.00D-06.
 No special actions if energy rises.

 Cycle   1  Pass 1  IDiag  1:
 E= -370.816254040244    
 DIIS: error= 9.94D-04 at cycle   1 NSaved=   1.
 NSaved= 1 IEnMin= 1 EnMin= -370.816254040244     IErMin= 1 ErrMin= 9.94D-04
 ErrMax= 9.94D-04  0.00D+00 EMaxC= 1.00D-01 BMatC= 1.70D-04 BMatP= 1.70D-04
 IDIUse=3 WtCom= 9.90D-01 WtEn= 9.94D-03
 Coeff-Com:  0.100D+01
 Coeff-En:   0.100D+01
 Coeff:      0.100D+01
 Gap=     0.614 Goal=   None    Shift=    0.000
 RMSDP=8.16D-05 MaxDP=2.67D-03              OVMax= 3.42D-03

 Cycle   2  Pass 1  IDiag  1:
 E= -370.816375939227     Delta-E=       -0.000121898983 Rises=F Damp=F
 DIIS: error= 3.55D-04 at cycle   2 NSaved=   2.
 NSaved= 2 IEnMin= 2 EnMin= -370.816375939227     IErMin= 2 ErrMin= 3.55D-04
 ErrMax= 3.55D-04  0.00D+00 EMaxC= 1.00D-01 BMatC= 9.80D-06 BMatP= 1.70D-04
 IDIUse=3 WtCom= 9.96D-01 WtEn= 3.55D-03
 Coeff-Com:  0.101D-01 0.990D+00
 Coeff-En:   0.000D+00 0.100D+01
 Coeff:      0.100D-01 0.990D+00
 Gap=     0.280 Goal=   None    Shift=    0.000
 RMSDP=1.83D-05 MaxDP=4.34D-04 DE=-1.22D-04 OVMax= 1.06D-03

 Cycle   3  Pass 1  IDiag  1:
 E= -370.816383371275     Delta-E=       -0.000007432048 Rises=F Damp=F
 DIIS: error= 2.03D-04 at cycle   3 NSaved=   3.
 NSaved= 3 IEnMin= 3 EnMin= -370.816383371275     IErMin= 3 ErrMin= 2.03D-04
 ErrMax= 2.03D-04  0.00D+00 EMaxC= 1.00D-01 BMatC= 2.30D-06 BMatP= 9.80D-06
 IDIUse=3 WtCom= 9.98D-01 WtEn= 2.03D-03
 Coeff-Com: -0.495D-01 0.287D+00 0.763D+00
 Coeff-En:   0.000D+00 0.000D+00 0.100D+01
 Coeff:     -0.494D-01 0.286D+00 0.763D+00
 Gap=     0.281 Goal=   None    Shift=    0.000
 RMSDP=5.78D-06 MaxDP=1.58D-04 DE=-7.43D-06 OVMax= 4.21D-04

 Cycle   4  Pass 1  IDiag  1:
 E= -370.816385127175     Delta-E=       -0.000001755900 Rises=F Damp=F
 DIIS: error= 3.64D-05 at cycle   4 NSaved=   4.
 NSaved= 4 IEnMin= 4 EnMin= -370.816385127175     IErMin= 4 ErrMin= 3.64D-05
 ErrMax= 3.64D-05  0.00D+00 EMaxC= 1.00D-01 BMatC= 9.04D-08 BMatP= 2.30D-06
 IDIUse=1 WtCom= 1.00D+00 WtEn= 0.00D+00
 Coeff-Com: -0.419D-02-0.485D-01 0.726D-01 0.980D+00
 Coeff:     -0.419D-02-0.485D-01 0.726D-01 0.980D+00
 Gap=     0.280 Goal=   None    Shift=    0.000
 RMSDP=2.21D-06 MaxDP=8.81D-05 DE=-1.76D-06 OVMax= 1.41D-04

 Cycle   5  Pass 1  IDiag  1:
 E= -370.816385259700     Delta-E=       -0.000000132525 Rises=F Damp=F
 DIIS: error= 6.12D-06 at cycle   5 NSaved=   5.
 NSaved= 5 IEnMin= 5 EnMin= -370.816385259700     IErMin= 5 ErrMin= 6.12D-06
 ErrMax= 6.12D-06  0.00D+00 EMaxC= 1.00D-01 BMatC= 3.67D-09 BMatP= 9.04D-08
 IDIUse=1 WtCom= 1.00D+00 WtEn= 0.00D+00
 Coeff-Com:  0.309D-02-0.130D-01-0.526D-01-0.109D+00 0.117D+01
 Coeff:      0.309D-02-0.130D-01-0.526D-01-0.109D+00 0.117D+01
 Gap=     0.280 Goal=   None    Shift=    0.000
 RMSDP=8.71D-07 MaxDP=3.45D-05 DE=-1.33D-07 OVMax= 5.61D-05

 Cycle   6  Pass 1  IDiag  1:
 E= -370.816385270853     Delta-E=       -0.000000011152 Rises=F Damp=F
 DIIS: error= 7.26D-07 at cycle   6 NSaved=   6.
 NSaved= 6 IEnMin= 6 EnMin= -370.816385270853     IErMin= 6 ErrMin= 7.26D-07
 ErrMax= 7.26D-07  0.00D+00 EMaxC= 1.00D-01 BMatC= 1.62D-10 BMatP= 3.67D-09
 IDIUse=1 WtCom= 1.00D+00 WtEn= 0.00D+00
 Coeff-Com: -0.504D-03 0.391D-02 0.763D-02-0.577D-02-0.236D+00 0.123D+01
 Coeff:     -0.504D-03 0.391D-02 0.763D-02-0.577D-02-0.236D+00 0.123D+01
 Gap=     0.280 Goal=   None    Shift=    0.000
 RMSDP=2.61D-07 MaxDP=8.49D-06 DE=-1.12D-08 OVMax= 1.20D-05

 Cycle   7  Pass 1  IDiag  1:
 E= -370.816385271451     Delta-E=       -0.000000000598 Rises=F Damp=F
 DIIS: error= 3.06D-07 at cycle   7 NSaved=   7.
 NSaved= 7 IEnMin= 7 EnMin= -370.816385271451     IErMin= 7 ErrMin= 3.06D-07
 ErrMax= 3.06D-07  0.00D+00 EMaxC= 1.00D-01 BMatC= 1.62D-11 BMatP= 1.62D-10
 IDIUse=1 WtCom= 1.00D+00 WtEn= 0.00D+00
 Coeff-Com: -0.299D-03 0.159D-02 0.504D-02 0.766D-02-0.117D+00 0.981D-01
 Coeff-Com:  0.100D+01
 Coeff:     -0.299D-03 0.159D-02 0.504D-02 0.766D-02-0.117D+00 0.981D-01
 Coeff:      0.100D+01
 Gap=     0.280 Goal=   None    Shift=    0.000
 RMSDP=8.03D-08 MaxDP=2.91D-06 DE=-5.98D-10 OVMax= 4.88D-06

 Cycle   8  Pass 1  IDiag  1:
 E= -370.816385271498     Delta-E=       -0.000000000047 Rises=F Damp=F
 DIIS: error= 7.26D-08 at cycle   8 NSaved=   8.
 NSaved= 8 IEnMin= 8 EnMin= -370.816385271498     IErMin= 8 ErrMin= 7.26D-08
 ErrMax= 7.26D-08  0.00D+00 EMaxC= 1.00D-01 BMatC= 1.05D-12 BMatP= 1.62D-11
 IDIUse=1 WtCom= 1.00D+00 WtEn= 0.00D+00
 Coeff-Com:  0.758D-04-0.492D-03-0.130D-02-0.113D-02 0.378D-01-0.123D+00
 Coeff-Com: -0.946D-01 0.118D+01
 Coeff:      0.758D-04-0.492D-03-0.130D-02-0.113D-02 0.378D-01-0.123D+00
 Coeff:     -0.946D-01 0.118D+01
 Gap=     0.280 Goal=   None    Shift=    0.000
 RMSDP=2.70D-08 MaxDP=9.23D-07 DE=-4.69D-11 OVMax= 1.16D-06

 Cycle   9  Pass 1  IDiag  1:
 E= -370.816385271501     Delta-E=       -0.000000000003 Rises=F Damp=F
 DIIS: error= 1.59D-08 at cycle   9 NSaved=   9.
 NSaved= 9 IEnMin= 9 EnMin= -370.816385271501     IErMin= 9 ErrMin= 1.59D-08
 ErrMax= 1.59D-08  0.00D+00 EMaxC= 1.00D-01 BMatC= 3.79D-14 BMatP= 1.05D-12
 IDIUse=1 WtCom= 1.00D+00 WtEn= 0.00D+00
 Coeff-Com: -0.190D-05 0.268D-04 0.534D-04-0.508D-04-0.236D-02 0.175D-01
 Coeff-Com: -0.175D-01-0.233D+00 0.124D+01
 Coeff:     -0.190D-05 0.268D-04 0.534D-04-0.508D-04-0.236D-02 0.175D-01
 Coeff:     -0.175D-01-0.233D+00 0.124D+01
 Gap=     0.280 Goal=   None    Shift=    0.000
 RMSDP=4.77D-09 MaxDP=1.67D-07 DE=-3.35D-12 OVMax= 2.69D-07

 SCF Done:  E(RHF) =  -370.816385272     A.U. after    9 cycles
            NFock=  9  Conv=0.48D-08     -V/T= 2.9850
 KE= 1.868081548285D+02 PE=-9.095404732326D+02 EE= 3.039544196346D+02
 Leave Link  502 at Fri Oct  8 16:23:05 2021, MaxMem= 16106127360 cpu:              37.4 elap:               3.9
 (Enter /sw/contrib/gaussian/g16/B01/g16/l801.exe)
 ExpMin= 2.53D-02 ExpMax= 1.53D+04 ExpMxC= 5.22D+02 IAcc=3 IRadAn=         5 AccDes= 0.00D+00
 HarFok:  IExCor=  205 AccDes= 0.00D+00 IRadAn=         5 IDoV=-2 UseB2=F ITyADJ=14
 ICtDFT= 12500011 ScaDFX=  1.000000  1.000000  1.000000  1.000000
 Defaulting to unpruned grid for atomic number  53.
 Largest valence mixing into a core orbital is  1.30D-04
 Largest core mixing into a valence orbital is  2.16D-05
 Range of M.O.s used for correlation:     6   147
 NBasis=   191 NAE=    18 NBE=    18 NFC=     5 NFV=     0
 NROrb=    142 NOA=    13 NOB=    13 NVA=   129 NVB=   129

 **** Warning!!: The largest alpha MO coefficient is  0.11689989D+02

 Leave Link  801 at Fri Oct  8 16:23:05 2021, MaxMem= 16106127360 cpu:               2.6 elap:               0.1
 (Enter /sw/contrib/gaussian/g16/B01/g16/l906.exe)
 Frozen-core derivative calculation, NFC=   5 NFV=   0.
 FulOut=F Deriv=T AODrv=T NAtomX=     4
   MMem=         107  MDisk=          13 MDiskD=          13
  W3Min=      576828 MinDsk=     1313419 NBas6D=         218
 NBas2D=       24339    NTT=       23871    LW2=    26219120
    MDV= 16105786807 MDiskM=      369352 NBas2p=       24339
 Fully direct method using O(ONN) memory.
 IMap=   1   2   3   4   5   6   7   8   9  10  11  12  13  14  15  16  17  18
 JobTyp=1 Pass  1:  I=   6 to  18 NPSUse= 28 ParTrn=T ParDer=T DoDerP=T.
 Spin components of T(2) and E(2):
     alpha-alpha T2 =       0.2171122806D-01 E2=     -0.6750921820D-01
     alpha-beta  T2 =       0.1135942827D+00 E2=     -0.3625919165D+00
     beta-beta   T2 =       0.2171122806D-01 E2=     -0.6750921820D-01
 The integrals were generated   1 times.
 ANorm=    0.1075647126D+01
 E2 =    -0.4976103529D+00 EUMP2 =    -0.37131399562442D+03
 Leave Link  906 at Fri Oct  8 16:23:18 2021, MaxMem= 16106127360 cpu:             362.2 elap:              13.0
 (Enter /sw/contrib/gaussian/g16/B01/g16/l1002.exe)
 Minotr:  Closed shell wavefunction.
          Computing MP2/KS-MP2 derivatives.
          Using Z-Vector for PSCF gradient.
          Skipping F1 and S1 gradient terms here.
          IDoAtm=1111
          Frozen-core window.
          Direct CPHF calculation.
          Differentiating once with respect to electric field.
                with respect to dipole field.
          Differentiating once with respect to nuclear coordinates.
          Requested convergence is 1.0D-10 RMS, and 1.0D-09 maximum.
          NewPWx=F KeepS1=T KeepF1=T KeepIn=T MapXYZ=F SortEE=F KeepMc=T.
 Keep R1 ints in memory in canonical form, NReq=226105884.
 FoFCou: FMM=F IPFlag=           0 FMFlag=           0 FMFlg1=           0
         NFxFlg=           0 DoJE=F BraDBF=F KetDBF=F FulRan=T
         wScrn=  0.000000 ICntrl=       600 IOpCl=  0 I1Cent=           0 NGrid=           0
         NMat0=    1 NMatS0=  18336 NMatT0=    0 NMatD0=    1 NMtDS0=    0 NMtDT0=    0
 Symmetry not used in FoFCou.
 Two-electron integral symmetry not used.
          MDV=   16106127360 using IRadAn=       5.
          Solving linear equations separately, MaxMat=       0.
          There are     1 degrees of freedom in the 1st order CPHF.  IDoFFX=0 NUNeed=     1.
 LinEq1:  Iter=  0 NonCon=     1 RMS=2.68D-03 Max=4.74D-02 NDo=     1
 AX will form     1 AO Fock derivatives at one time.
 LinEq1:  Iter=  1 NonCon=     1 RMS=4.35D-04 Max=5.29D-03 NDo=     1
 LinEq1:  Iter=  2 NonCon=     1 RMS=1.94D-04 Max=2.67D-03 NDo=     1
 LinEq1:  Iter=  3 NonCon=     1 RMS=4.58D-05 Max=7.46D-04 NDo=     1
 LinEq1:  Iter=  4 NonCon=     1 RMS=1.34D-05 Max=1.42D-04 NDo=     1
 LinEq1:  Iter=  5 NonCon=     1 RMS=3.56D-06 Max=4.78D-05 NDo=     1
 LinEq1:  Iter=  6 NonCon=     1 RMS=7.67D-07 Max=1.18D-05 NDo=     1
 LinEq1:  Iter=  7 NonCon=     1 RMS=1.69D-07 Max=2.56D-06 NDo=     1
 LinEq1:  Iter=  8 NonCon=     1 RMS=4.75D-08 Max=6.55D-07 NDo=     1
 LinEq1:  Iter=  9 NonCon=     1 RMS=9.23D-09 Max=1.28D-07 NDo=     1
 LinEq1:  Iter= 10 NonCon=     1 RMS=1.51D-09 Max=1.73D-08 NDo=     1
 LinEq1:  Iter= 11 NonCon=     1 RMS=2.65D-10 Max=4.19D-09 NDo=     1
 LinEq1:  Iter= 12 NonCon=     1 RMS=7.61D-11 Max=1.11D-09 NDo=     1
 LinEq1:  Iter= 13 NonCon=     0 RMS=1.51D-11 Max=1.84D-10 NDo=     1
 Linear equations converged to 1.000D-10 1.000D-09 after    13 iterations.
 End of Minotr F.D. properties file   721 does not exist.
 End of Minotr F.D. properties file   722 does not exist.
 End of Minotr F.D. properties file   788 does not exist.
 Leave Link 1002 at Fri Oct  8 16:23:23 2021, MaxMem= 16106127360 cpu:              41.3 elap:               5.8
 (Enter /sw/contrib/gaussian/g16/B01/g16/l701.exe)
 ... and contract with generalized density number  2.
 Compute integral first derivatives.
   1 Symmetry operations used in ECPInt.
 ECPInt:  NShTT=    2145 NPrTT=    7341 LenC2=    2146 LenP2D=    6711.
 LDataN:  DoStor=T MaxTD1= 8 Len=  415
 Leave Link  701 at Fri Oct  8 16:23:24 2021, MaxMem= 16106127360 cpu:              22.1 elap:               0.8
 (Enter /sw/contrib/gaussian/g16/B01/g16/l702.exe)
 L702 exits ... SP integral derivatives will be done elsewhere.
 Leave Link  702 at Fri Oct  8 16:23:24 2021, MaxMem= 16106127360 cpu:               0.5 elap:               0.0
 (Enter /sw/contrib/gaussian/g16/B01/g16/l703.exe)
 Integral derivatives from FoFJK, PRISM(SPDF).
 Compute integral first derivatives, UseDBF=F ICtDFT=           0.
 Calling FoFJK, ICntrl=  10002127 FMM=F ISym2X=0 I1Cent= 0 IOpClX= 0 NMat=1 NMatS=1 NMatT=0.
 FoFJK:  IHMeth= 1 ICntrl=10002127 DoSepK=F KAlg= 0 I1Cent=           0 FoldK=F
 IRaf=         0 NMat=       1 IRICut=       1 DoRegI=T DoRafI=F ISym2E= 0 IDoP0=0 IntGTp=1.
 FoFCou: FMM=F IPFlag=           0 FMFlag=      100000 FMFlg1=         800
         NFxFlg=           0 DoJE=F BraDBF=F KetDBF=F FulRan=T
         wScrn=  0.000000 ICntrl=  10002127 IOpCl=  0 I1Cent=           0 NGrid=           0
         NMat0=    1 NMatS0=      1 NMatT0=    0 NMatD0=    1 NMtDS0=    0 NMtDT0=    0
 Symmetry not used in FoFCou.
 Leave Link  703 at Fri Oct  8 16:23:26 2021, MaxMem= 16106127360 cpu:              51.3 elap:               1.9
 (Enter /sw/contrib/gaussian/g16/B01/g16/l716.exe)
 Dipole        = 1.36895265D-01 4.53147411D-01 2.87500484D-06
 ***** Axes restored to original set *****
 -------------------------------------------------------------------
 Center     Atomic                   Forces (Hartrees/Bohr)
 Number     Number              X              Y              Z
 -------------------------------------------------------------------
      1        8          -0.001005067    0.000000160    0.015305249
      2        1           0.000850174   -0.000000177   -0.015684940
      3        1           0.000274478   -0.000000033    0.000499146
      4       53          -0.000119585    0.000000050   -0.000119455
 -------------------------------------------------------------------
 Cartesian Forces:  Max     0.015684940 RMS     0.006340045
 -----------------------------------------------------------------------------------------------
                       Internal Coordinate Forces (Hartree/Bohr or radian)
  Cent   Atom   N1       Length/X         N2         Alpha/Y        N3         Beta/Z          J
 -----------------------------------------------------------------------------------------------
      1  O 
      2  H        1  -0.015685(     1)
      3  H        1   0.000178(     2)      2  -0.001607(     4)
      4  I        1  -0.000140(     3)      3   0.000624(     5)      2   0.000000(     6)     0
 -----------------------------------------------------------------------------------------------
 Internal  Forces:  Max     0.015684940 RMS     0.006442595
 Leave Link  716 at Fri Oct  8 16:23:26 2021, MaxMem= 16106127360 cpu:               1.6 elap:               0.1
 (Enter /sw/contrib/gaussian/g16/B01/g16/l103.exe)

 GradGradGradGradGradGradGradGradGradGradGradGradGradGradGradGradGradGrad
 Berny optimization.
 Search for a local minimum.
 Step number   1 out of a maximum of   20 on scan point     2 out of    51
 All quantities printed in internal units (Hartrees-Bohrs-Radians)
 Second derivative matrix not updated -- first step.
 The second derivative matrix:
                          r1        r2        r3        a1        a2
           r1           0.51278
           r2           0.00000   0.55175
           r3           0.00000  -0.00000   0.01401
           a1           0.00000  -0.00000   0.00000   0.32000
           a2          -0.00000   0.00000  -0.00000  -0.16000   0.32000
           d1          -0.00000  -0.00000  -0.00000  -0.00001   0.00001
                          d1
           d1           0.04500
 ITU=  0
     Eigenvalues --- 1000.000001000.000001000.000001000.000001000.00000
     Eigenvalues --- 1000.00000
 RFO step:  Lambda= 0.00000000D+00 EMin= 1.00000000D+03
 Linear search not attempted -- first point.
 Variable       Old X    -DE/DX   Delta X   Delta X   Delta X     New X
                                 (Linear)    (Quad)   (Total)
    r1        1.89077  -0.01568   0.00000   0.00000   0.00000   1.89077
    r2        1.81677   0.00018   0.00000   0.00000   0.00000   1.81677
    r3        6.63902  -0.00014   0.00000   0.00000   0.00000   6.63902
    a1        1.75638  -0.00161   0.00000   0.00000   0.00000   1.75638
    a2        1.56029   0.00062   0.00000   0.00000   0.00000   1.56029
    d1       -0.00001   0.00000   0.00000   0.00000   0.00000  -0.00001
         Item               Value     Threshold  Converged?
 Maximum Force            0.000000     0.000450     YES
 RMS     Force            0.000000     0.000300     YES
 Maximum Displacement     0.000000     0.001800     YES
 RMS     Displacement     0.000000     0.001200     YES
 Predicted change in Energy=-0.000000D+00
 Optimization completed.
    -- Stationary point found.
                       ----------------------------
                       !   Optimized Parameters   !
                       ! (Angstroms and Degrees)  !
 ----------------------                            ----------------------
 !      Name          Value   Derivative information (Atomic Units)     !
 ------------------------------------------------------------------------
 !       r1          1.0006   -DE/DX =   -0.0157                        !
 !       r2          0.9614   -DE/DX =    0.0002                        !
 !       r3          3.5132   -DE/DX =   -0.0001                        !
 !       a1        100.6333   -DE/DX =   -0.0016                        !
 !       a2         89.398    -DE/DX =    0.0006                        !
 !       d1         -0.0004   -DE/DX =    0.0                           !
 ------------------------------------------------------------------------
 Lowest energy point so far.  Saving SCF results.
 GradGradGradGradGradGradGradGradGradGradGradGradGradGradGradGradGradGrad

 Leave Link  103 at Fri Oct  8 16:23:26 2021, MaxMem= 16106127360 cpu:               0.5 elap:               0.0
 (Enter /sw/contrib/gaussian/g16/B01/g16/l202.exe)
 ---------------------------------------------------------------------------------------------------
                            Z-MATRIX (ANGSTROMS AND DEGREES)
   CD    Cent   Atom    N1       Length/X        N2       Alpha/Y        N3        Beta/Z          J
 ---------------------------------------------------------------------------------------------------
      1      1  O 
      2      2  H        1   1.020551(     1)
      3      3  H        1   0.961393(     2)      2  100.633(     4)
      4      4  I        1   3.513216(     3)      3   89.398(     5)      2   -0.000(     6)      0
 ---------------------------------------------------------------------------------------------------
                         Z-Matrix orientation:                         
 ---------------------------------------------------------------------
 Center     Atomic      Atomic             Coordinates (Angstroms)
 Number     Number       Type             X           Y           Z
 ---------------------------------------------------------------------
      1          8           0        0.000000    0.000000    0.000000
      2          1           0        0.000000    0.000000    1.020551
      3          1           0        0.944884    0.000000   -0.177399
      4         53           0        0.684513   -0.000024    3.445886
 ---------------------------------------------------------------------
                    Distance matrix (angstroms):
                    1          2          3          4
     1  O    0.000000
     2  H    1.020551   0.000000
     3  H    0.961393   1.525742   0.000000
     4  I    3.513216   2.520081   3.632628   0.000000
 Stoichiometry    H2IO(1-)
 Framework group  C1[X(H2IO)]
 Deg. of freedom     6
 Full point group                 C1      NOp   1
 RotChk:  IX=0 Diff= 2.34D-05
 Largest Abelian subgroup         C1      NOp   1
 Largest concise Abelian subgroup C1      NOp   1
                         Standard orientation:                         
 ---------------------------------------------------------------------
 Center     Atomic      Atomic             Coordinates (Angstroms)
 Number     Number       Type             X           Y           Z
 ---------------------------------------------------------------------
      1          8           0       -2.970376   -0.086560   -0.000001
      2          1           0       -1.964716   -0.260259    0.000006
      3          1           0       -2.984366    0.874731    0.000001
      4         53           0        0.541738    0.001472   -0.000000
 ---------------------------------------------------------------------
 Rotational constants (GHZ):         542.0230081           2.6677889           2.6547226
 Leave Link  202 at Fri Oct  8 16:23:26 2021, MaxMem= 16106127360 cpu:               0.4 elap:               0.0
 (Enter /sw/contrib/gaussian/g16/B01/g16/l301.exe)
 Basis read from rwf:  (5D, 7F)
 Pseudo-potential data read from rwf file.
 There are   218 symmetry adapted cartesian basis functions of A   symmetry.
 There are   191 symmetry adapted basis functions of A   symmetry.
   191 basis functions,   344 primitive gaussians,   218 cartesian basis functions
    18 alpha electrons       18 beta electrons
       nuclear repulsion energy        47.9148046273 Hartrees.
 IExCor=    0 DFT=F Ex=HF Corr=None ExCW=0 ScaHFX=  1.000000
 ScaDFX=  1.000000  1.000000  1.000000  1.000000 ScalE2=  1.000000  1.000000
 IRadAn=      5 IRanWt=     -1 IRanGd=            0 ICorTp=0 IEmpDi=  4
 NAtoms=    4 NActive=    4 NUniq=    4 SFac= 1.00D+00 NAtFMM=   60 NAOKFM=F Big=F
 Integral buffers will be    131072 words long.
 Raffenetti 1 integral format.
 Two-electron integral symmetry is turned on.
 No density basis found on file   724.
 Leave Link  301 at Fri Oct  8 16:23:27 2021, MaxMem= 16106127360 cpu:               2.6 elap:               0.1
 (Enter /sw/contrib/gaussian/g16/B01/g16/l302.exe)
 NPDir=0 NMtPBC=     1 NCelOv=     1 NCel=       1 NClECP=     1 NCelD=      1
         NCelK=      1 NCelE2=     1 NClLst=     1 CellRange=     0.0.
 One-electron integrals computed using PRISM.
 One-electron integral symmetry used in STVInt
   1 Symmetry operations used in ECPInt.
 ECPInt:  NShTT=    2145 NPrTT=    7341 LenC2=    2146 LenP2D=    6711.
 LDataN:  DoStor=T MaxTD1= 7 Len=  274
 NBasis=   191 RedAO= T EigKep=  4.01D-04  NBF=   191
 NBsUse=   147 1.00D-06 EigRej=  8.94D-16 NBFU=   147
 Leave Link  302 at Fri Oct  8 16:23:27 2021, MaxMem= 16106127360 cpu:               8.7 elap:               0.4
 (Enter /sw/contrib/gaussian/g16/B01/g16/l303.exe)
 DipDrv:  MaxL=1.
 Leave Link  303 at Fri Oct  8 16:23:27 2021, MaxMem= 16106127360 cpu:               1.4 elap:               0.1
 (Enter /sw/contrib/gaussian/g16/B01/g16/l401.exe)
 Initial guess from the checkpoint file:  "/gscratch/ilahie/mccoygrp/hocl/hoh/i_hoh_OHs.chk"
 B after Tr=     0.000000    0.000000    0.000000
         Rot=    1.000000   -0.000000   -0.000000   -0.000051 Ang=  -0.01 deg.
 Guess basis will be translated and rotated to current coordinates.
 JPrj=2 DoOrth=T DoCkMO=T.
 Generating alternative initial guess.
 ExpMin= 2.53D-02 ExpMax= 1.53D+04 ExpMxC= 5.22D+02 IAcc=3 IRadAn=         5 AccDes= 0.00D+00
 Harris functional with IExCor=  205 and IRadAn=       5 diagonalized for initial guess.
 HarFok:  IExCor=  205 AccDes= 0.00D+00 IRadAn=         5 IDoV= 1 UseB2=F ITyADJ=14
 ICtDFT=  3500011 ScaDFX=  1.000000  1.000000  1.000000  1.000000
 Defaulting to unpruned grid for atomic number  53.
 FoFCou: FMM=F IPFlag=           0 FMFlag=      100000 FMFlg1=           0
         NFxFlg=           0 DoJE=T BraDBF=F KetDBF=T FulRan=T
         wScrn=  0.000000 ICntrl=       500 IOpCl=  0 I1Cent=   200000004 NGrid=           0
         NMat0=    1 NMatS0=      1 NMatT0=    0 NMatD0=    1 NMtDS0=    0 NMtDT0=    0
 Petite list used in FoFCou.
 Harris En= -372.679545752395    
 Leave Link  401 at Fri Oct  8 16:23:27 2021, MaxMem= 16106127360 cpu:               7.9 elap:               0.3
 (Enter /sw/contrib/gaussian/g16/B01/g16/l502.exe)
 Keep R1 ints in memory in canonical form, NReq=226102576.
 FoFCou: FMM=F IPFlag=           0 FMFlag=           0 FMFlg1=           0
         NFxFlg=           0 DoJE=F BraDBF=F KetDBF=F FulRan=T
         wScrn=  0.000000 ICntrl=       600 IOpCl=  0 I1Cent=           0 NGrid=           0
         NMat0=    1 NMatS0=  18336 NMatT0=    0 NMatD0=    1 NMtDS0=    0 NMtDT0=    0
 Symmetry not used in FoFCou.
 Two-electron integral symmetry not used.
 Closed shell SCF:
 Using DIIS extrapolation, IDIIS=  1040.
 NGot= 16106127360 LenX= 15937910754 LenY= 15937862789
 Requested convergence on RMS density matrix=1.00D-08 within 128 cycles.
 Requested convergence on MAX density matrix=1.00D-06.
 Requested convergence on             energy=1.00D-06.
 No special actions if energy rises.

 Cycle   1  Pass 1  IDiag  1:
 E= -370.814346828429    
 DIIS: error= 1.16D-03 at cycle   1 NSaved=   1.
 NSaved= 1 IEnMin= 1 EnMin= -370.814346828429     IErMin= 1 ErrMin= 1.16D-03
 ErrMax= 1.16D-03  0.00D+00 EMaxC= 1.00D-01 BMatC= 1.55D-04 BMatP= 1.55D-04
 IDIUse=3 WtCom= 9.88D-01 WtEn= 1.16D-02
 Coeff-Com:  0.100D+01
 Coeff-En:   0.100D+01
 Coeff:      0.100D+01
 Gap=     0.616 Goal=   None    Shift=    0.000
 GapD=    0.616 DampG=2.000 DampE=1.000 DampFc=2.0000 IDamp=-1.
 RMSDP=7.76D-05 MaxDP=2.48D-03              OVMax= 3.34D-03

 Cycle   2  Pass 1  IDiag  1:
 E= -370.814462596916     Delta-E=       -0.000115768487 Rises=F Damp=F
 DIIS: error= 3.61D-04 at cycle   2 NSaved=   2.
 NSaved= 2 IEnMin= 2 EnMin= -370.814462596916     IErMin= 2 ErrMin= 3.61D-04
 ErrMax= 3.61D-04  0.00D+00 EMaxC= 1.00D-01 BMatC= 9.59D-06 BMatP= 1.55D-04
 IDIUse=3 WtCom= 9.96D-01 WtEn= 3.61D-03
 Coeff-Com:  0.135D-01 0.987D+00
 Coeff-En:   0.000D+00 0.100D+01
 Coeff:      0.134D-01 0.987D+00
 Gap=     0.281 Goal=   None    Shift=    0.000
 RMSDP=1.82D-05 MaxDP=4.35D-04 DE=-1.16D-04 OVMax= 1.10D-03

 Cycle   3  Pass 1  IDiag  1:
 E= -370.814470039127     Delta-E=       -0.000007442210 Rises=F Damp=F
 DIIS: error= 2.04D-04 at cycle   3 NSaved=   3.
 NSaved= 3 IEnMin= 3 EnMin= -370.814470039127     IErMin= 3 ErrMin= 2.04D-04
 ErrMax= 2.04D-04  0.00D+00 EMaxC= 1.00D-01 BMatC= 2.31D-06 BMatP= 9.59D-06
 IDIUse=3 WtCom= 9.98D-01 WtEn= 2.04D-03
 Coeff-Com: -0.523D-01 0.291D+00 0.761D+00
 Coeff-En:   0.000D+00 0.000D+00 0.100D+01
 Coeff:     -0.522D-01 0.290D+00 0.762D+00
 Gap=     0.281 Goal=   None    Shift=    0.000
 RMSDP=5.93D-06 MaxDP=1.64D-04 DE=-7.44D-06 OVMax= 4.28D-04

 Cycle   4  Pass 1  IDiag  1:
 E= -370.814471839278     Delta-E=       -0.000001800151 Rises=F Damp=F
[...]
           d1          -0.00000  -0.00000  -0.00000  -0.00001   0.00001
                          d1
           d1           0.04500
 ITU=  0
     Eigenvalues --- 1000.000001000.000001000.000001000.000001000.00000
     Eigenvalues --- 1000.00000
 RFO step:  Lambda= 0.00000000D+00 EMin= 1.00000000D+03
 Linear search not attempted -- first point.
 Variable       Old X    -DE/DX   Delta X   Delta X   Delta X     New X
                                 (Linear)    (Quad)   (Total)
    r1        3.74270  -0.04317   0.00000   0.00000   0.00000   3.74270
    r2        1.81677   0.00515   0.00000   0.00000   0.00000   1.81677
    r3        6.63902   0.02223   0.00000   0.00000   0.00000   6.63902
    a1        1.75638   0.00520   0.00000   0.00000   0.00000   1.75638
    a2        1.56029  -0.00959   0.00000   0.00000   0.00000   1.56029
    d1       -0.00001  -0.00000   0.00000   0.00000   0.00000  -0.00001
         Item               Value     Threshold  Converged?
 Maximum Force            0.000000     0.000450     YES
 RMS     Force            0.000000     0.000300     YES
 Maximum Displacement     0.000000     0.001800     YES
 RMS     Displacement     0.000000     0.001200     YES
 Predicted change in Energy=-0.000000D+00
 Optimization completed.
    -- Stationary point found.
                       ----------------------------
                       !   Optimized Parameters   !
                       ! (Angstroms and Degrees)  !
 ----------------------                            ----------------------
 !      Name          Value   Derivative information (Atomic Units)     !
 ------------------------------------------------------------------------
 !       r1          1.9806   -DE/DX =   -0.0432                        !
 !       r2          0.9614   -DE/DX =    0.0052                        !
 !       r3          3.5132   -DE/DX =    0.0222                        !
 !       a1        100.6333   -DE/DX =    0.0052                        !
 !       a2         89.398    -DE/DX =   -0.0096                        !
 !       d1         -0.0004   -DE/DX =    0.0                           !
 ------------------------------------------------------------------------
 Lowest energy point so far.  Saving SCF results.
 Summary of Optimized Potential Surface Scan (add -371.0 to energies):
                           1         2         3         4         5
     Eigenvalues --    -0.31430  -0.31400  -0.31314  -0.31182  -0.31010
           r1           0.98055   1.00055   1.02055   1.04055   1.06055
           r2           0.96139   0.96139   0.96139   0.96139   0.96139
           r3           3.51322   3.51322   3.51322   3.51322   3.51322
           a1         100.63331 100.63331 100.63331 100.63331 100.63331
           a2          89.39796  89.39796  89.39796  89.39796  89.39796
           d1          -0.00040  -0.00040  -0.00040  -0.00040  -0.00040
                           6         7         8         9        10
     Eigenvalues --    -0.30806  -0.30573  -0.30318  -0.30045  -0.29759
           r1           1.08055   1.10055   1.12055   1.14055   1.16055
           r2           0.96139   0.96139   0.96139   0.96139   0.96139
           r3           3.51322   3.51322   3.51322   3.51322   3.51322
           a1         100.63331 100.63331 100.63331 100.63331 100.63331
           a2          89.39796  89.39796  89.39796  89.39796  89.39796
           d1          -0.00040  -0.00040  -0.00040  -0.00040  -0.00040
                          11        12        13        14        15
     Eigenvalues --    -0.29462  -0.29158  -0.28850  -0.28541  -0.28232
           r1           1.18055   1.20055   1.22055   1.24055   1.26055
           r2           0.96139   0.96139   0.96139   0.96139   0.96139
           r3           3.51322   3.51322   3.51322   3.51322   3.51322
           a1         100.63331 100.63331 100.63331 100.63331 100.63331
           a2          89.39796  89.39796  89.39796  89.39796  89.39796
           d1          -0.00040  -0.00040  -0.00040  -0.00040  -0.00040
                          16        17        18        19        20
     Eigenvalues --    -0.27926  -0.27624  -0.27327  -0.27038  -0.26756
           r1           1.28055   1.30055   1.32055   1.34055   1.36055
           r2           0.96139   0.96139   0.96139   0.96139   0.96139
           r3           3.51322   3.51322   3.51322   3.51322   3.51322
           a1         100.63331 100.63331 100.63331 100.63331 100.63331
           a2          89.39796  89.39796  89.39796  89.39796  89.39796
           d1          -0.00040  -0.00040  -0.00040  -0.00040  -0.00040
                          21        22        23        24        25
     Eigenvalues --    -0.26482  -0.26218  -0.25963  -0.25717  -0.25482
           r1           1.38055   1.40055   1.42055   1.44055   1.46055
           r2           0.96139   0.96139   0.96139   0.96139   0.96139
           r3           3.51322   3.51322   3.51322   3.51322   3.51322
           a1         100.63331 100.63331 100.63331 100.63331 100.63331
           a2          89.39796  89.39796  89.39796  89.39796  89.39796
           d1          -0.00040  -0.00040  -0.00040  -0.00040  -0.00040
                          26        27        28        29        30
     Eigenvalues --    -0.25256  -0.25040  -0.24834  -0.24636  -0.24448
           r1           1.48055   1.50055   1.52055   1.54055   1.56055
           r2           0.96139   0.96139   0.96139   0.96139   0.96139
           r3           3.51322   3.51322   3.51322   3.51322   3.51322
           a1         100.63331 100.63331 100.63331 100.63331 100.63331
           a2          89.39796  89.39796  89.39796  89.39796  89.39796
           d1          -0.00040  -0.00040  -0.00040  -0.00040  -0.00040
                          31        32        33        34        35
     Eigenvalues --    -0.24268  -0.24097  -0.23933  -0.23776  -0.23626
           r1           1.58055   1.60055   1.62055   1.64055   1.66055
           r2           0.96139   0.96139   0.96139   0.96139   0.96139
           r3           3.51322   3.51322   3.51322   3.51322   3.51322
           a1         100.63331 100.63331 100.63331 100.63331 100.63331
           a2          89.39796  89.39796  89.39796  89.39796  89.39796
           d1          -0.00040  -0.00040  -0.00040  -0.00040  -0.00040
                          36        37        38        39        40
     Eigenvalues --    -0.23483  -0.23345  -0.23212  -0.23084  -0.22960
           r1           1.68055   1.70055   1.72055   1.74055   1.76055
           r2           0.96139   0.96139   0.96139   0.96139   0.96139
           r3           3.51322   3.51322   3.51322   3.51322   3.51322
           a1         100.63331 100.63331 100.63331 100.63331 100.63331
           a2          89.39796  89.39796  89.39796  89.39796  89.39796
           d1          -0.00040  -0.00040  -0.00040  -0.00040  -0.00040
                          41        42        43        44        45
     Eigenvalues --    -0.22839  -0.22720  -0.22602  -0.22484  -0.22365
           r1           1.78055   1.80055   1.82055   1.84055   1.86055
           r2           0.96139   0.96139   0.96139   0.96139   0.96139
           r3           3.51322   3.51322   3.51322   3.51322   3.51322
           a1         100.63331 100.63331 100.63331 100.63331 100.63331
           a2          89.39796  89.39796  89.39796  89.39796  89.39796
           d1          -0.00040  -0.00040  -0.00040  -0.00040  -0.00040
                          46        47        48        49        50
     Eigenvalues --    -0.22244  -0.22119  -0.21989  -0.21852  -0.21705
           r1           1.88055   1.90055   1.92055   1.94055   1.96055
           r2           0.96139   0.96139   0.96139   0.96139   0.96139
           r3           3.51322   3.51322   3.51322   3.51322   3.51322
           a1         100.63331 100.63331 100.63331 100.63331 100.63331
           a2          89.39796  89.39796  89.39796  89.39796  89.39796
           d1          -0.00040  -0.00040  -0.00040  -0.00040  -0.00040
                          51
     Eigenvalues --    -0.21548
           r1           1.98055
           r2           0.96139
           r3           3.51322
           a1         100.63331
           a2          89.39796
           d1          -0.00040
 Largest change from initial coordinates is atom    2       0.016 Angstoms.
 GradGradGradGradGradGradGradGradGradGradGradGradGradGradGradGradGradGrad

 Leave Link  103 at Fri Oct  8 16:45:35 2021, MaxMem= 16106127360 cpu:               0.5 elap:               0.0
 (Enter /sw/contrib/gaussian/g16/B01/g16/l202.exe)
 ---------------------------------------------------------------------------------------------------
                            Z-MATRIX (ANGSTROMS AND DEGREES)
   CD    Cent   Atom    N1       Length/X        N2       Alpha/Y        N3        Beta/Z          J
 ---------------------------------------------------------------------------------------------------
      1      1  O 
      2      2  H        1   1.980551(     1)
      3      3  H        1   0.961393(     2)      2  100.633(     4)
      4      4  I        1   3.513216(     3)      3   89.398(     5)      2   -0.000(     6)      0
 ---------------------------------------------------------------------------------------------------
                         Z-Matrix orientation:                         
 ---------------------------------------------------------------------
 Center     Atomic      Atomic             Coordinates (Angstroms)
 Number     Number       Type             X           Y           Z
 ---------------------------------------------------------------------
      1          8           0        0.000000    0.000000    0.000000
      2          1           0        0.000000    0.000000    1.980551
      3          1           0        0.944884    0.000000   -0.177399
      4         53           0        0.684513   -0.000024    3.445886
 ---------------------------------------------------------------------
                    Distance matrix (angstroms):
                    1          2          3          4
     1  O    0.000000
     2  H    1.980551   0.000000
     3  H    0.961393   2.355749   0.000000
     4  I    3.513216   1.617333   3.632628   0.000000
 Stoichiometry    H2IO(1-)
 Framework group  C1[X(H2IO)]
 Deg. of freedom     6
 Full point group                 C1      NOp   1
 RotChk:  IX=0 Diff= 2.48D-16
 Largest Abelian subgroup         C1      NOp   1
 Largest concise Abelian subgroup C1      NOp   1
                         Standard orientation:                         
 ---------------------------------------------------------------------
 Center     Atomic      Atomic             Coordinates (Angstroms)
 Number     Number       Type             X           Y           Z
 ---------------------------------------------------------------------
      1          8           0       -2.985322   -0.086394   -0.000001
      2          1           0       -1.033396   -0.421899    0.000011
      3          1           0       -3.000094    0.874886    0.000004
      4         53           0        0.526718    0.004494   -0.000000
 ---------------------------------------------------------------------
 Rotational constants (GHZ):         483.8935627           2.7116674           2.6965563
 Leave Link  202 at Fri Oct  8 16:45:35 2021, MaxMem= 16106127360 cpu:               1.6 elap:               0.1
 (Enter /sw/contrib/gaussian/g16/B01/g16/l601.exe)
 Copying SCF densities to generalized density rwf, IOpCl= 0 IROHF=0.

 **********************************************************************

            Population analysis using the SCF Density.

 **********************************************************************

 Orbital symmetries:
       Occupied  (A) (A) (A) (A) (A) (A) (A) (A) (A) (A) (A) (A)
                 (A) (A) (A) (A) (A) (A)
       Virtual   (A) (A) (A) (A) (A) (A) (A) (A) (A) (A) (A) (A)
                 (A) (A) (A) (A) (A) (A) (A) (A) (A) (A) (A) (A)
                 (A) (A) (A) (A) (A) (A) (A) (A) (A) (A) (A) (A)
                 (A) (A) (A) (A) (A) (A) (A) (A) (A) (A) (A) (A)
                 (A) (A) (A) (A) (A) (A) (A) (A) (A) (A) (A) (A)
                 (A) (A) (A) (A) (A) (A) (A) (A) (A) (A) (A) (A)
                 (A) (A) (A) (A) (A) (A) (A) (A) (A) (A) (A) (A)
                 (A) (A) (A) (A) (A) (A) (A) (A) (A) (A) (A) (A)
                 (A) (A) (A) (A) (A) (A) (A) (A) (A) (A) (A) (A)
                 (A) (A) (A) (A) (A) (A) (A) (A) (A) (A) (A) (A)
                 (A) (A) (A) (A) (A) (A) (A) (A) (A)
 The electronic state is 1-A.
 Alpha  occ. eigenvalues --  -20.23446  -7.56077  -5.39009  -5.38438  -5.38436
 Alpha  occ. eigenvalues --   -2.11984  -2.11568  -2.11565  -2.10966  -2.10966
 Alpha  occ. eigenvalues --   -0.95589  -0.74354  -0.35690  -0.30018  -0.22282
 Alpha  occ. eigenvalues --   -0.22281  -0.16043  -0.15250
 Alpha virt. eigenvalues --    0.15621   0.16710   0.20524   0.22416   0.22986
 Alpha virt. eigenvalues --    0.27558   0.30793   0.32310   0.32900   0.33731
 Alpha virt. eigenvalues --    0.33841   0.36052   0.36595   0.38529   0.41209
 Alpha virt. eigenvalues --    0.44731   0.47273   0.49616   0.51820   0.53953
 Alpha virt. eigenvalues --    0.54083   0.62019   0.62718   0.67712   0.71158
 Alpha virt. eigenvalues --    0.71792   0.73282   0.73521   0.75090   0.77087
 Alpha virt. eigenvalues --    0.81209   0.81399   0.82233   0.82390   0.82535
 Alpha virt. eigenvalues --    0.88430   0.90435   0.93523   0.95584   0.96572
 Alpha virt. eigenvalues --    0.97004   1.02782   1.04429   1.09226   1.14829
 Alpha virt. eigenvalues --    1.16251   1.17911   1.19037   1.21705   1.24818
 Alpha virt. eigenvalues --    1.26057   1.27445   1.33297   1.34664   1.35248
 Alpha virt. eigenvalues --    1.47846   1.49922   1.56993   1.59058   1.61914
 Alpha virt. eigenvalues --    1.64424   1.67294   1.67544   1.68671   1.76362
 Alpha virt. eigenvalues --    1.77679   1.80940   1.83333   1.88007   1.88635
 Alpha virt. eigenvalues --    1.92567   1.97969   1.98154   2.02119   2.04636
 Alpha virt. eigenvalues --    2.05580   2.20779   2.41275   2.41430   2.53475
 Alpha virt. eigenvalues --    2.60254   2.63639   2.67978   2.69745   2.74385
 Alpha virt. eigenvalues --    2.75575   2.86378   2.88540   2.94104   3.09390
 Alpha virt. eigenvalues --    3.15585   3.32226   3.38599   3.65869   3.97038
 Alpha virt. eigenvalues --    4.11233   4.15661   4.31256   4.36832   4.39734
 Alpha virt. eigenvalues --    4.44447   4.50025   4.54223   4.56800   4.65003
 Alpha virt. eigenvalues --    4.65768   4.72251   4.77242   4.94284   5.12789
 Alpha virt. eigenvalues --    5.53877   5.66749   5.79830   6.27094   6.56173
 Alpha virt. eigenvalues --    6.98162   7.03607   7.04862   7.14309   7.47752
 Alpha virt. eigenvalues --    7.52647   7.54989   7.59353   7.61762   7.68071
 Alpha virt. eigenvalues --    7.82365   8.22964  13.86644  59.15007
          Condensed to atoms (all electrons):
               1          2          3          4
     1  O    8.768835   0.065651   0.293059  -0.086748
     2  H    0.065651   0.616195   0.002319   0.280960
     3  H    0.293059   0.002319   0.583818  -0.001269
     4  I   -0.086748   0.280960  -0.001269  24.923207
 Mulliken charges:
               1
     1  O   -1.040797
     2  H    0.034875
     3  H    0.122073
     4  I   -0.116150
 Sum of Mulliken charges =  -1.00000
 Mulliken charges with hydrogens summed into heavy atoms:
               1
     1  O   -0.918725
     4  I   -0.081275
 Electronic spatial extent (au):  <R**2>=            431.7736
 Charge=             -1.0000 electrons
 Dipole moment (field-independent basis, Debye):
    X=             10.0588    Y=              1.1605    Z=              0.0000  Tot=             10.1255
 Quadrupole moment (field-independent basis, Debye-Ang):
   XX=            -75.0757   YY=            -37.0437   ZZ=            -39.6801
   XY=             -3.3330   XZ=             -0.0001   YZ=              0.0000
 Traceless Quadrupole moment (field-independent basis, Debye-Ang):
   XX=            -24.4759   YY=             13.5561   ZZ=             10.9197
   XY=             -3.3330   XZ=             -0.0001   YZ=              0.0000
 Octapole moment (field-independent basis, Debye-Ang**2):
  XXX=            151.9822  YYY=              1.4120  ZZZ=             -0.0000  XYY=              5.1924
  XXY=             14.7723  XXZ=              0.0001  XZZ=             11.9809  YZZ=              0.2210
  YYZ=              0.0000  XYZ=             -0.0000
 Hexadecapole moment (field-independent basis, Debye-Ang**3):
 XXXX=           -935.4647 YYYY=            -60.1827 ZZZZ=            -61.8198 XXXY=            -39.9228
 XXXZ=             -0.0003 YYYX=             -2.5488 YYYZ=              0.0000 ZZZX=             -0.0001
 ZZZY=              0.0000 XXYY=            -91.7636 XXZZ=           -112.6355 YYZZ=            -20.5752
 XXYZ=              0.0001 YYXZ=             -0.0000 ZZXY=             -0.0662
 N-N= 4.871210665806D+01 E-N=-9.102269602655D+02  KE= 1.866975099622D+02
 No NMR shielding tensors so no spin-rotation constants.
 Leave Link  601 at Fri Oct  8 16:45:36 2021, MaxMem= 16106127360 cpu:               4.2 elap:               0.2
 (Enter /sw/contrib/gaussian/g16/B01/g16/l9999.exe)
 1\1\GINC-N2219\Scan\RMP2-FC\Gen\H2I1O1(1-)\ABMCCOY\08-Oct-2021\1\\#p o
 pt=z-matrix mp2/gen Pseudo=read\\title\\-1,1\O\H,1,r1\H,1,r2,2,a1\I,1,
 r3,3,a2,2,d1,0\\r1=1.98055084,s,50,0.02\r2=0.96139273,s,-1000,0.\r3=3.
 51321647,s,-1000,0.\a1=100.63331099,s,-1000,0.\a2=89.39796245,s,-1000,
 0.\d1=-0.00039708,s,-1000,0.\\Version=ES64L-G16RevB.01\State=1-A\HF=-3
 70.817738,-370.8163853,-370.814472,-370.8120795,-370.8092802,-370.8061
 388,-370.8027132,-370.7990551,-370.7952112,-370.7912233,-370.7871291,-
 370.7829628,-370.7787549,-370.7745334,-370.7703232,-370.766147,-370.76
 20251,-370.7579757,-370.754015,-370.7501576,-370.746416,-370.7428013,-
 370.7393228,-370.7359885,-370.7328047,-370.7297763,-370.7269067,-370.7
 241981,-370.7216511,-370.7192652,-370.7170383,-370.7149673,-370.713047
 5,-370.7112732,-370.7096374,-370.7081318,-370.706747,-370.7054726,-370
 .7042967,-370.7032068,-370.7021889,-370.7012283,-370.7003092,-370.6994
 147,-370.6985272,-370.697628,-370.6966977,-370.6957158,-370.6946612,-3
 70.6935115,-370.692244\MP2=-371.3142999,-371.3139956,-371.3131427,-371
 .3118218,-371.3101046,-371.3080551,-371.3057303,-371.3031812,-371.3004
 534,-371.2975873,-371.2946194,-371.2915818,-371.2885031,-371.2854086,-
 371.2823203,-371.2792575,-371.2762367,-371.273272,-371.2703751,-371.26
 75555,-371.2648208,-371.2621765,-371.2596267,-371.2571737,-371.2548188
 ,-371.2525618,-371.2504017,-371.2483365,-371.2463636,-371.2444799,-371
 .2426818,-371.2409653,-371.2393261,-371.2377598,-371.2362616,-371.2348
 263,-371.2334486,-371.2321225,-371.2308417,-371.2295991,-371.2283869,-
 371.2271964,-371.2260179,-371.2248407,-371.2236531,-371.2224418,-371.2
 211925,-371.2198896,-371.2185162,-371.217054,-371.2154833\RMSD=3.543e-
 09,4.774e-09,4.837e-09,4.896e-09,4.946e-09,5.026e-09,5.249e-09,5.633e-
 09,6.127e-09,6.738e-09,7.466e-09,8.294e-09,9.199e-09,2.645e-09,2.858e-
 09,3.088e-09,3.337e-09,3.610e-09,3.906e-09,4.225e-09,4.566e-09,4.926e-
 09,5.301e-09,5.685e-09,6.071e-09,6.454e-09,6.825e-09,7.178e-09,7.510e-
 09,7.815e-09,8.091e-09,8.338e-09,8.557e-09,8.749e-09,8.917e-09,9.064e-
 09,9.194e-09,9.308e-09,9.410e-09,9.501e-09,9.585e-09,9.657e-09,9.721e-
 09,9.778e-09,9.823e-09,9.855e-09,9.876e-09,9.885e-09,9.883e-09,9.867e-
 09,9.839e-09\PG=C01 [X(H2I1O1)]\\@


 YOU SHOULDN'T LET PEOPLE DRIVE YOU CRAZY
 WHEN YOU KNOW IT'S WITHIN WALKING DISTANCE.
 Job cpu time:       0 days  7 hours 46 minutes 56.2 seconds.
 Elapsed time:       0 days  0 hours 22 minutes 59.6 seconds.
 File lengths (MBytes):  RWF=     19 Int=      0 D2E=      0 Chk=      8 Scr=      1
 Normal termination of Gaussian 16 at Fri Oct  8 16:45:36 2021.
