title                                                                   
Scan      RMP2-FC                                                     Gen                 
Number of atoms                            I                4
Info1-9                                    I   N=           9
         144         133           0           0           0         100
           8           2           1
Full Title                                 C   N=           1
title       
Route                                      C   N=           3
#p opt=z-matrix mp2/gen Pseudo=read 
Charge                                     I               -1
Multiplicity                               I                1
Number of electrons                        I               36
Number of alpha electrons                  I               18
Number of beta electrons                   I               18
Number of basis functions                  I              191
Number of independent functions            I              147
Number of point charges in /Mol/           I                0
Number of translation vectors              I                0
Atomic numbers                             I   N=           4
           8           1           1          53
Nuclear charges                            R   N=           4
  8.00000000E+00  1.00000000E+00  1.00000000E+00  2.50000000E+01
Current cartesian coordinates              R   N=          12
 -5.64144166E+00 -1.63260500E-01 -2.14859024E-06 -1.95283477E+00 -7.97273523E-01
  2.02861035E-05 -5.66935610E+00  1.65329399E+00  8.14300695E-06  9.95353286E-01
  8.49176477E-03 -2.12082802E-07
Number of symbols in /Mol/                 I                0
Force Field                                I                0
Atom Types                                 C   N=           4
                                                
Int Atom Types                             I   N=           4
           0           0           0           0
MM charges                                 R   N=           4
  0.00000000E+00  0.00000000E+00  0.00000000E+00  0.00000000E+00
Integer atomic weights                     I   N=           4
          16           1           1         127
Real atomic weights                        R   N=           4
  1.59949146E+01  1.00782504E+00  1.00782504E+00  1.26900400E+02
Atom fragment info                         I   N=           4
           0           0           0           0
Atom residue num                           I   N=           4
           0           0           0           0
Nuclear spins                              I   N=           4
           0           1           1           5
Nuclear ZEff                               R   N=           4
 -5.60000000E+00 -1.00000000E+00 -1.00000000E+00 -5.83000000E+03
Nuclear ZNuc                               R   N=           4
  8.00000000E+00  1.00000000E+00  1.00000000E+00  5.30000000E+01
Nuclear QMom                               R   N=           4
  0.00000000E+00  0.00000000E+00  0.00000000E+00 -7.10000000E+01
Nuclear GFac                               R   N=           4
  0.00000000E+00  2.79284600E+00  2.79284600E+00  2.81328000E+00
MicOpt                                     I   N=           4
          -1          -1          -1          -1
Number of residues                         I                0
Number of secondary structures             I                0
SymInf integers                            I   N=          26
           1           1           1           1           1           0
           0           0           0           0           0           0
           0           0           0           0           0           0
           0           0           0           0           0           0
           0           0
RotTr to input orientation                 R   N=          12
  1.69399965E-01 -7.07464610E-06  9.85547387E-01  9.85547387E-01 -5.77416311E-06
 -1.69399965E-01  6.88915617E-06  1.00000000E+00  5.99425595E-06  1.11656098E+00
 -3.87053058E-05  5.53225176E+00
Number of contracted shells                I               65
Number of primitive shells                 I              119
Pure/Cartesian d shells                    I                0
Pure/Cartesian f shells                    I                0
Highest angular momentum                   I                3
Largest degree of contraction              I                9
Shell types                                I   N=          65
           0           0           0           0           0           1
           1           1           1          -2          -2          -2
          -3          -3           0           0           0           0
           0           0           0           1           1           1
           1           1           1          -2          -2          -2
          -2           0           0           0           0           0
           0           0           1           1           1           1
           1           1          -2          -2          -2          -2
           0           0           0           0           0           0
           1           1           1           1           1          -2
          -2          -2          -2          -3          -3
Number of primitives per shell             I   N=          65
           7           6           1           1           1           3
           1           1           1           1           1           1
           1           1           3           1           1           1
           1           1           1           1           1           1
           1           1           1           1           1           1
           1           3           1           1           1           1
           1           1           1           1           1           1
           1           1           1           1           1           1
           9           8           1           1           1           1
           8           8           1           1           1           9
           1           1           1           1           1
Shell to atom map                          I   N=          65
           1           1           1           1           1           1
           1           1           1           1           1           1
           1           1           2           2           2           2
           2           2           2           2           2           2
           2           2           2           2           2           2
           2           3           3           3           3           3
           3           3           3           3           3           3
           3           3           3           3           3           3
           4           4           4           4           4           4
           4           4           4           4           4           4
           4           4           4           4           4
Primitive exponents                        R   N=         119
  1.53300000E+04  2.29900000E+03  5.22400000E+02  1.47300000E+02  4.75500000E+01
  1.67600000E+01  6.20700000E+00  5.22400000E+02  1.47300000E+02  4.75500000E+01
  1.67600000E+01  6.20700000E+00  6.88200000E-01  1.75200000E+00  2.38400000E-01
  7.37600000E-02  3.44600000E+01  7.74900000E+00  2.28000000E+00  7.15600000E-01
  2.14000000E-01  5.97400000E-02  2.31400000E+00  6.45000000E-01  2.14000000E-01
  1.42800000E+00  5.00000000E-01  3.38700000E+01  5.09500000E+00  1.15900000E+00
  3.25800000E-01  1.02700000E-01  2.52600000E-02  3.25800000E-01  1.02700000E-01
  2.52600000E-02  1.40700000E+00  3.88000000E-01  1.02000000E-01  1.40700000E+00
  3.88000000E-01  1.02000000E-01  1.05700000E+00  2.47000000E-01  1.05700000E+00
  2.47000000E-01  3.38700000E+01  5.09500000E+00  1.15900000E+00  3.25800000E-01
  1.02700000E-01  2.52600000E-02  3.25800000E-01  1.02700000E-01  2.52600000E-02
  1.40700000E+00  3.88000000E-01  1.02000000E-01  1.40700000E+00  3.88000000E-01
  1.02000000E-01  1.05700000E+00  2.47000000E-01  1.05700000E+00  2.47000000E-01
  5.54650000E+03  8.38214000E+02  1.82187000E+02  3.12123000E+01  1.95314000E+01
  8.24099000E+00  2.19455000E+00  1.10911000E+00  8.10610000E-02  5.54650000E+03
  8.38214000E+02  3.12123000E+01  1.95314000E+01  8.24099000E+00  2.19455000E+00
  1.10911000E+00  8.10610000E-02  3.74641000E-01  1.77080000E-01  1.00100000E-01
  4.12000000E-02  1.88988000E+02  2.12868000E+01  1.00396000E+01  3.45180000E+00
  1.97456000E+00  1.02420000E+00  4.49437000E-01  7.34810000E-02  1.88988000E+02
  1.00396000E+01  3.45180000E+00  1.97456000E+00  1.02420000E+00  4.49437000E-01
  1.86648000E-01  7.34810000E-02  5.98100000E-01  9.61800000E-02  3.59000000E-02
  1.32662000E+02  3.76054000E+01  1.03891000E+01  6.49017000E+00  3.45451000E+00
  1.84413000E+00  9.62478000E-01  4.72853000E-01  1.93200000E-01  4.72853000E-01
  1.93200000E-01  7.82000000E-02  4.06400000E-01  1.84800000E-01
Contraction coefficients                   R   N=         119
  5.19808943E-04  4.02025621E-03  2.07128267E-02  8.10105536E-02  2.35962985E-01
  4.42653446E-01  3.57064423E-01 -4.42115008E-05 -1.22591041E-03 -1.05517725E-02
 -6.74452633E-02 -1.71198607E-01  1.07329856E+00  1.00000000E+00  1.00000000E+00
  1.00000000E+00  4.11634896E-02  2.57762836E-01  8.02419274E-01  1.00000000E+00
  1.00000000E+00  1.00000000E+00  1.00000000E+00  1.00000000E+00  1.00000000E+00
  1.00000000E+00  1.00000000E+00  2.54948632E-02  1.90362766E-01  8.52162022E-01
  1.00000000E+00  1.00000000E+00  1.00000000E+00  1.00000000E+00  1.00000000E+00
  1.00000000E+00  1.00000000E+00  1.00000000E+00  1.00000000E+00  1.00000000E+00
  1.00000000E+00  1.00000000E+00  1.00000000E+00  1.00000000E+00  1.00000000E+00
  1.00000000E+00  2.54948632E-02  1.90362766E-01  8.52162022E-01  1.00000000E+00
  1.00000000E+00  1.00000000E+00  1.00000000E+00  1.00000000E+00  1.00000000E+00
  1.00000000E+00  1.00000000E+00  1.00000000E+00  1.00000000E+00  1.00000000E+00
  1.00000000E+00  1.00000000E+00  1.00000000E+00  1.00000000E+00  1.00000000E+00
  1.58603022E-04  1.00211458E-03  2.83966410E-03 -4.40310212E-02  2.38198152E-01
 -7.63568980E-01  8.96516870E-01  4.68371203E-01  2.16251781E-03 -2.17177846E-05
 -2.59237305E-04 -1.50376554E-02  2.42214079E-02  6.99888661E-02 -5.50491335E-01
 -5.69654432E-01  3.76065139E-01  1.00000000E+00  1.00000000E+00  1.00000000E+00
  1.00000000E+00  5.85232173E-04  3.69335916E-02 -2.35399435E-01  3.41625365E-01
  5.34991615E-01  2.65244797E-01  2.54463150E-02  3.82802808E-04 -6.76097015E-05
  8.33123161E-03 -4.66496478E-02 -5.27406452E-02 -2.91398344E-02  3.65650039E-01
  5.48502805E-01  2.34644635E-01  1.00000000E+00  1.00000000E+00  1.00000000E+00
  5.72000072E-04  4.40200055E-03 -4.09220051E-02  9.96610125E-02  3.22663040E-01
  4.00343050E-01  2.68306034E-01  8.48470106E-02  7.63200096E-03  1.00000000E+00
  1.00000000E+00  1.00000000E+00  1.00000000E+00  1.00000000E+00
Coordinates of each shell                  R   N=         195
 -5.64144166E+00 -1.63260500E-01 -2.14859024E-06 -5.64144166E+00 -1.63260500E-01
 -2.14859024E-06 -5.64144166E+00 -1.63260500E-01 -2.14859024E-06 -5.64144166E+00
 -1.63260500E-01 -2.14859024E-06 -5.64144166E+00 -1.63260500E-01 -2.14859024E-06
 -5.64144166E+00 -1.63260500E-01 -2.14859024E-06 -5.64144166E+00 -1.63260500E-01
 -2.14859024E-06 -5.64144166E+00 -1.63260500E-01 -2.14859024E-06 -5.64144166E+00
 -1.63260500E-01 -2.14859024E-06 -5.64144166E+00 -1.63260500E-01 -2.14859024E-06
 -5.64144166E+00 -1.63260500E-01 -2.14859024E-06 -5.64144166E+00 -1.63260500E-01
 -2.14859024E-06 -5.64144166E+00 -1.63260500E-01 -2.14859024E-06 -5.64144166E+00
 -1.63260500E-01 -2.14859024E-06 -1.95283477E+00 -7.97273523E-01  2.02861035E-05
 -1.95283477E+00 -7.97273523E-01  2.02861035E-05 -1.95283477E+00 -7.97273523E-01
  2.02861035E-05 -1.95283477E+00 -7.97273523E-01  2.02861035E-05 -1.95283477E+00
 -7.97273523E-01  2.02861035E-05 -1.95283477E+00 -7.97273523E-01  2.02861035E-05
 -1.95283477E+00 -7.97273523E-01  2.02861035E-05 -1.95283477E+00 -7.97273523E-01
  2.02861035E-05 -1.95283477E+00 -7.97273523E-01  2.02861035E-05 -1.95283477E+00
 -7.97273523E-01  2.02861035E-05 -1.95283477E+00 -7.97273523E-01  2.02861035E-05
 -1.95283477E+00 -7.97273523E-01  2.02861035E-05 -1.95283477E+00 -7.97273523E-01
  2.02861035E-05 -1.95283477E+00 -7.97273523E-01  2.02861035E-05 -1.95283477E+00
 -7.97273523E-01  2.02861035E-05 -1.95283477E+00 -7.97273523E-01  2.02861035E-05
 -1.95283477E+00 -7.97273523E-01  2.02861035E-05 -5.66935610E+00  1.65329399E+00
  8.14300695E-06 -5.66935610E+00  1.65329399E+00  8.14300695E-06 -5.66935610E+00
  1.65329399E+00  8.14300695E-06 -5.66935610E+00  1.65329399E+00  8.14300695E-06
 -5.66935610E+00  1.65329399E+00  8.14300695E-06 -5.66935610E+00  1.65329399E+00
  8.14300695E-06 -5.66935610E+00  1.65329399E+00  8.14300695E-06 -5.66935610E+00
  1.65329399E+00  8.14300695E-06 -5.66935610E+00  1.65329399E+00  8.14300695E-06
 -5.66935610E+00  1.65329399E+00  8.14300695E-06 -5.66935610E+00  1.65329399E+00
  8.14300695E-06 -5.66935610E+00  1.65329399E+00  8.14300695E-06 -5.66935610E+00
  1.65329399E+00  8.14300695E-06 -5.66935610E+00  1.65329399E+00  8.14300695E-06
 -5.66935610E+00  1.65329399E+00  8.14300695E-06 -5.66935610E+00  1.65329399E+00
  8.14300695E-06 -5.66935610E+00  1.65329399E+00  8.14300695E-06  9.95353286E-01
  8.49176477E-03 -2.12082802E-07  9.95353286E-01  8.49176477E-03 -2.12082802E-07
  9.95353286E-01  8.49176477E-03 -2.12082802E-07  9.95353286E-01  8.49176477E-03
 -2.12082802E-07  9.95353286E-01  8.49176477E-03 -2.12082802E-07  9.95353286E-01
  8.49176477E-03 -2.12082802E-07  9.95353286E-01  8.49176477E-03 -2.12082802E-07
  9.95353286E-01  8.49176477E-03 -2.12082802E-07  9.95353286E-01  8.49176477E-03
 -2.12082802E-07  9.95353286E-01  8.49176477E-03 -2.12082802E-07  9.95353286E-01
  8.49176477E-03 -2.12082802E-07  9.95353286E-01  8.49176477E-03 -2.12082802E-07
  9.95353286E-01  8.49176477E-03 -2.12082802E-07  9.95353286E-01  8.49176477E-03
 -2.12082802E-07  9.95353286E-01  8.49176477E-03 -2.12082802E-07  9.95353286E-01
  8.49176477E-03 -2.12082802E-07  9.95353286E-01  8.49176477E-03 -2.12082802E-07
Num ILSW                                   I              100
ILSW                                       I   N=         100
           0           0           0           0           2           0
           0           0           0           0           0          -1
           5           0           0           0           2           0
           0           0           0           0           1           0
           1           0           0           0           0           0
           0           0      100000           0          -1           0
           0           0           0           0           0           0
           0           0           0           1           0           0
           0 -2000000000           1           0           0           0
           0           0           4          52           0           0
           0           0           0           0           0           0
           0           0           0           4           0           1
           0           0           0           0           0           0
           0           0           0           0           0           0
           0           0           0           0           0           0
           0           0           0           0           0           0
           0           0           0           0
Num RLSW                                   I               52
RLSW                                       R   N=          52
  1.00000000E+00  1.00000000E+00  1.00000000E+00  1.00000000E+00  1.00000000E+00
  0.00000000E+00  0.00000000E+00  1.00000000E+00  0.00000000E+00  0.00000000E+00
  0.00000000E+00  0.00000000E+00  1.00000000E+00  0.00000000E+00  0.00000000E+00
  0.00000000E+00  0.00000000E+00  1.00000000E+00  0.00000000E+00  0.00000000E+00
  0.00000000E+00  0.00000000E+00  1.00000000E+00  0.00000000E+00  0.00000000E+00
  0.00000000E+00  0.00000000E+00  1.00000000E+00  0.00000000E+00  0.00000000E+00
  0.00000000E+00  0.00000000E+00  1.00000000E+00  0.00000000E+00  0.00000000E+00
  0.00000000E+00  0.00000000E+00  0.00000000E+00  1.00000000E+00  1.00000000E+00
  0.00000000E+00  1.00000000E+00  0.00000000E+00  0.00000000E+00  0.00000000E+00
  0.00000000E+00  0.00000000E+00  0.00000000E+00  0.00000000E+00  0.00000000E+00
  0.00000000E+00  0.00000000E+00
ECP-MxAtEC                                 I           250000
ECP-MaxLECP                                I               10
ECP-MaxAtL                                 I          2250000
ECP-MxTECP                                 I         11250000
ECP-LenNCZ                                 I               16
ECP-KFirst                                 I   N=          40
           0           0           0           1           0           0
           0           2           0           0           0           5
           0           0           0           9           0           0
           0          13           0           0           0           0
           0           0           0           0           0           0
           0           0           0           0           0           0
           0           0           0           0
ECP-KLast                                  I   N=          40
           0           0           0           1           0           0
           0           4           0           0           0           8
           0           0           0          12           0           0
           0          16           0           0           0           0
           0           0           0           0           0           0
           0           0           0           0           0           0
           0           0           0           0
ECP-LMax                                   I   N=           4
           0           0           0           4
ECP-LPSkip                                 I   N=           4
           1           1           1           0
ECP-RNFroz                                 R   N=           4
  0.00000000E+00  0.00000000E+00  0.00000000E+00  2.80000000E+01
ECP-NLP                                    I   N=          16
           2           2           2           2           2           2
           2           2           2           2           2           2
           2           2           2           2
ECP-CLP1                                   R   N=          16
  0.00000000E+00  4.99896490E+01  2.81006556E+02  6.14167390E+01  6.74162390E+01
  1.34807696E+02  1.45665480E+01  2.89684220E+01  3.55387560E+01  5.33397590E+01
  9.71646600E+00  1.49775000E+01 -2.01766180E+01 -2.60880770E+01 -2.20434000E-01
 -2.21646000E-01
ECP-CLP2                                   R   N=          16
  0.00000000E+00  0.00000000E+00  0.00000000E+00  0.00000000E+00  0.00000000E+00
  0.00000000E+00  0.00000000E+00  0.00000000E+00  0.00000000E+00  0.00000000E+00
  0.00000000E+00  0.00000000E+00  0.00000000E+00  0.00000000E+00  0.00000000E+00
  0.00000000E+00
ECP-ZLP                                    R   N=          16
  1.00000000E+00  4.00333760E+01  1.73005760E+01  8.85172000E+00  1.57201410E+01
  1.52082220E+01  8.29418600E+00  7.75394900E+00  1.38177510E+01  1.35878050E+01
  6.94763000E+00  6.96009900E+00  1.85229500E+01  1.82510350E+01  7.55790100E+00
  7.59740400E+00
MxBond                                     I                2
NBond                                      I   N=           4
           2           1           1           0
IBond                                      I   N=           8
           2           3           1           0           1           0
           0           0
RBond                                      R   N=           8
  1.00000000E+00  1.00000000E+00  1.00000000E+00  0.00000000E+00  1.00000000E+00
  0.00000000E+00  0.00000000E+00  0.00000000E+00
Virial Ratio                               R      2.985523235141257E+00
SCF Energy                                 R     -3.706922439730351E+02
MP2 Energy                                 R     -3.712154833467593E+02
Total Energy                               R     -3.712154833467593E+02
Post-SCF wavefunction norm                 R      1.083185564550372E+00
RMS Force                                  R      1.554859887125092E-02
RMS Density                                R      9.838873733719302E-09
Job Status                                 I                1
Nuclear derivative order                   I                1
External E-field                           R   N=          35
  0.00000000E+00  0.00000000E+00  0.00000000E+00  0.00000000E+00  0.00000000E+00
  0.00000000E+00  0.00000000E+00  0.00000000E+00  0.00000000E+00  0.00000000E+00
  0.00000000E+00  0.00000000E+00  0.00000000E+00  0.00000000E+00  0.00000000E+00
  0.00000000E+00  0.00000000E+00  0.00000000E+00  0.00000000E+00  0.00000000E+00
  0.00000000E+00  0.00000000E+00  0.00000000E+00  0.00000000E+00  0.00000000E+00
  0.00000000E+00  0.00000000E+00  0.00000000E+00  0.00000000E+00  0.00000000E+00
  0.00000000E+00  0.00000000E+00  0.00000000E+00  0.00000000E+00  0.00000000E+00
IOpCl                                      I                0
IROHF                                      I                0
Alpha Orbital Energies                     R   N=         147
 -2.02344624E+01 -7.56077441E+00 -5.39008593E+00 -5.38437922E+00 -5.38435917E+00
 -2.11984184E+00 -2.11567801E+00 -2.11565238E+00 -2.10965715E+00 -2.10965632E+00
 -9.55886658E-01 -7.43544992E-01 -3.56904051E-01 -3.00182088E-01 -2.22821373E-01
 -2.22805699E-01 -1.60430867E-01 -1.52502803E-01  1.56207866E-01  1.67096990E-01
  2.05237282E-01  2.24158330E-01  2.29856680E-01  2.75581699E-01  3.07927068E-01
  3.23096848E-01  3.28995772E-01  3.37305600E-01  3.38407514E-01  3.60522058E-01
  3.65947861E-01  3.85286616E-01  4.12094702E-01  4.47309474E-01  4.72727266E-01
  4.96162460E-01  5.18198592E-01  5.39534138E-01  5.40826933E-01  6.20193625E-01
  6.27181016E-01  6.77115763E-01  7.11584610E-01  7.17916014E-01  7.32819942E-01
  7.35210729E-01  7.50899409E-01  7.70870867E-01  8.12093818E-01  8.13987453E-01
  8.22334532E-01  8.23899321E-01  8.25348205E-01  8.84296859E-01  9.04348348E-01
  9.35227600E-01  9.55836948E-01  9.65719488E-01  9.70044094E-01  1.02782464E+00
  1.04429032E+00  1.09225688E+00  1.14829404E+00  1.16250751E+00  1.17910740E+00
  1.19037380E+00  1.21705086E+00  1.24818151E+00  1.26056677E+00  1.27444972E+00
  1.33296928E+00  1.34664218E+00  1.35247549E+00  1.47846323E+00  1.49921517E+00
  1.56992615E+00  1.59057757E+00  1.61914201E+00  1.64424291E+00  1.67293828E+00
  1.67544310E+00  1.68670917E+00  1.76362154E+00  1.77678988E+00  1.80940422E+00
  1.83332631E+00  1.88006690E+00  1.88634822E+00  1.92567310E+00  1.97968797E+00
  1.98154020E+00  2.02118839E+00  2.04636137E+00  2.05579947E+00  2.20779135E+00
  2.41274891E+00  2.41429510E+00  2.53475167E+00  2.60254174E+00  2.63638563E+00
  2.67977781E+00  2.69744945E+00  2.74384685E+00  2.75575259E+00  2.86377962E+00
  2.88539574E+00  2.94103598E+00  3.09389553E+00  3.15584757E+00  3.32225675E+00
  3.38598921E+00  3.65869204E+00  3.97037976E+00  4.11232871E+00  4.15660824E+00
  4.31256152E+00  4.36831596E+00  4.39733673E+00  4.44446571E+00  4.50024707E+00
  4.54223444E+00  4.56799632E+00  4.65002634E+00  4.65768351E+00  4.72250671E+00
  4.77242409E+00  4.94283992E+00  5.12789068E+00  5.53876672E+00  5.66748847E+00
  5.79829859E+00  6.27094279E+00  6.56172885E+00  6.98161914E+00  7.03607037E+00
  7.04862202E+00  7.14308650E+00  7.47751512E+00  7.52646621E+00  7.54988626E+00
  7.59352623E+00  7.61761980E+00  7.68071432E+00  7.82364708E+00  8.22963601E+00
  1.38664434E+01  5.91500683E+01
Alpha MO coefficients                      R   N=       28077
  9.76842582E-01 -9.14365399E-03  4.32777438E-02  3.47811356E-03  9.87987526E-04
  1.67904901E-04  1.43176455E-03  1.04524981E-08 -2.22189236E-04 -1.32001869E-03
 -9.78185607E-09  8.66807201E-04  6.26693545E-04  9.06598882E-09  2.35923868E-04
  1.71349843E-04  3.45301509E-09 -2.08722989E-05 -3.43085381E-10  6.39919563E-10
 -6.65121771E-05  6.37520894E-07  2.55823936E-04 -3.27030823E-10 -4.90711421E-09
  4.36110158E-04  4.48893299E-05 -3.34073793E-04  3.19307907E-09  3.67207150E-09
 -9.72600643E-05 -3.42151426E-05  6.33865319E-10  1.71620590E-05  2.65592817E-05
  2.25272547E-10 -5.18082076E-11 -1.69074224E-05  3.57203109E-05 -5.13914133E-10
 -6.11799631E-05  2.53142886E-05  1.48574549E-09  7.23869729E-11  6.42480756E-05
  2.07188469E-05  6.06130449E-05 -4.68042549E-05  2.39573630E-04  5.01200631E-05
 -4.68042549E-05  2.39573630E-04  5.01200631E-05 -2.55988148E-05  3.79379252E-06
 -4.85541835E-11  1.64042925E-04 -1.34124948E-05  3.71914012E-10  7.66519017E-04
  3.28937361E-05  3.92916591E-09 -2.55988148E-05  3.79379252E-06 -4.85541340E-11
  1.64042925E-04 -1.34124948E-05  3.71914666E-10  7.66519017E-04  3.28937361E-05
  3.92916662E-09  5.34617266E-06 -1.70656112E-10 -1.19414666E-10 -7.12334538E-06
  6.04112331E-06  4.44452881E-05 -2.07897268E-09  6.06712562E-10 -8.26232992E-05
  9.48377551E-05  5.34617266E-06 -1.70656965E-10 -1.19414345E-10 -7.12334538E-06
  6.04112331E-06  4.44452881E-05 -2.07897300E-09  6.06712204E-10 -8.26232992E-05
  9.48377551E-05  5.39882089E-04  1.99587699E-04 -4.51554110E-04 -1.25559137E-05
  1.99587699E-04 -4.51554110E-04 -1.25559137E-05  1.43671452E-05 -1.28963156E-04
 -6.28913826E-10 -3.92650255E-05 -4.27917643E-04 -2.64315415E-09 -8.90030794E-05
 -5.39735424E-06 -2.12368621E-10  1.43671452E-05 -1.28963156E-04 -6.28913718E-10
 -3.92650255E-05 -4.27917643E-04 -2.64315400E-09 -8.90030794E-05 -5.39735424E-06
 -2.12368533E-10  2.52481910E-05 -8.83775954E-11 -5.53301303E-10  4.32656900E-05
 -2.42763891E-06 -1.29574194E-04  2.20192159E-10  2.89763138E-09 -2.66627505E-04
  3.56432484E-05  2.52481910E-05 -8.83775288E-11 -5.53301275E-10  4.32656900E-05
 -2.42763891E-06 -1.29574194E-04  2.20192172E-10  2.89763136E-09 -2.66627505E-04
  3.56432484E-05  2.58701427E-06 -1.82609488E-07  1.12356430E-04 -1.54502931E-04
 -1.43963103E-03 -5.10487379E-05  7.68106237E-05 -2.87309083E-05  5.11136948E-10
  5.24960572E-04 -1.68005327E-04  3.23828781E-09 -1.85968376E-04  6.09442068E-05
 -9.99422060E-10  3.38460421E-04  4.17104601E-04 -1.45593410E-08 -8.26637319E-05
 -8.90996209E-06 -6.51298646E-10 -2.84525962E-06  2.10085485E-10  8.43907747E-11
  8.34774675E-06 -7.24620719E-06  1.94769655E-05 -1.05999413E-09 -3.02385204E-10
 -4.75526432E-05  3.24087446E-05  3.94048491E-05  2.81433316E-09 -8.97602236E-10
 -9.30223486E-05 -3.79989781E-05 -3.23416699E-05  4.98743356E-09  2.72566058E-09
  8.22603592E-05 -1.03519349E-04 -3.56401255E-10 -3.39106034E-05  7.52351784E-06
  4.04202986E-13  1.14693715E-09  5.14513594E-05 -1.10348639E-05  9.08401771E-10
  6.80245361E-05 -8.13046446E-06 -1.46636362E-09 -8.98787700E-10 -5.78999341E-05
  3.05832340E-05 -1.46729064E-06 -2.27468374E-05 -1.87063992E-06 -5.44111439E-05
 -6.08064419E-05 -8.56042480E-06  6.74085610E-07  2.38215135E-11  8.39153599E-06
 -7.81206293E-06 -4.55895750E-10  7.61616998E-05 -2.11351978E-04  5.94218725E-10
 -3.57310988E-05  5.97588401E-05 -1.18633299E-09 -5.07542819E-07 -6.08295346E-11
  1.12687732E-11 -1.34474811E-06  1.41037001E-06  6.91805303E-06  2.03266736E-10
 -1.88415536E-10  2.23427429E-05 -3.80616172E-06 -1.91651893E-05  2.17345238E-09
 -2.06406373E-09  5.31648051E-05 -1.00409422E-04  1.37716379E-10 -7.61140382E-07
 -1.99478447E-06 -1.35034318E-10  1.92200986E-10  5.14069583E-06  6.73890246E-06
 -4.32760797E-10 -7.00501849E-07  1.43317632E-05  7.94645531E-10 -7.63962839E-10
 -1.52544014E-05 -2.58288923E-05  1.42728180E-04  1.25908181E-04 -8.62070715E-04
  9.37625449E-05  1.25908181E-04 -8.62070715E-04  9.37625449E-05  4.60821141E-05
  1.10624606E-05 -2.87819105E-10 -8.89193925E-05 -2.34050760E-05  5.79757016E-10
 -3.03424194E-04 -9.13533457E-05  1.41413951E-09  4.60821141E-05  1.10624606E-05
 -2.87818621E-10 -8.89193925E-05 -2.34050760E-05  5.79756653E-10 -3.03424194E-04
 -9.13533457E-05  1.41413858E-09 -1.10597791E-05 -1.87981186E-10 -1.90380797E-12
  1.84012732E-05  8.71777656E-06  1.01342091E-04  1.49195398E-09  8.25315205E-11
 -1.68934312E-04 -7.99685929E-05 -1.10597791E-05 -1.87980613E-10 -1.90380401E-12
  1.84012732E-05  8.71777656E-06  1.01342091E-04  1.49195408E-09  8.25316123E-11
 -1.68934312E-04 -7.99685929E-05 -9.42615915E-06  9.52214904E-05  4.03012825E-05
 -2.37266265E-05  9.52214904E-05  4.03012825E-05 -2.37266265E-05 -1.99543149E-06
 -2.25967136E-06 -2.45001825E-11  1.07849310E-05 -2.80373357E-05  2.12698515E-10
  3.84333123E-05 -1.92696463E-05  5.02507668E-10 -1.99543149E-06 -2.25967136E-06
 -2.45000694E-11  1.07849310E-05 -2.80373357E-05  2.12698439E-10  3.84333123E-05
 -1.92696463E-05  5.02507480E-10 -4.11911684E-06  1.28210283E-10  2.08619685E-11
 -1.02925039E-06  4.87889590E-07  3.13519990E-06 -3.84159377E-10 -1.87161555E-10
 -6.40001490E-07 -6.35555409E-06 -4.11911684E-06  1.28209999E-10  2.08622271E-11
 -1.02925039E-06  4.87889589E-07  3.13519990E-06 -3.84159258E-10 -1.87161581E-10
 -6.40001490E-07 -6.35555409E-06  9.83119211E-01 -2.53182421E-03  2.31965893E-02
 -5.65054981E-03  2.51844929E-03 -5.09561707E-04 -2.14456624E-03 -7.94084551E-04
  2.21930859E-08 -1.81318079E-04 -4.29131966E-05  1.68001222E-09 -4.60747647E-04
 -1.53854947E-04  3.99684177E-09 -4.99820037E-04 -1.59525159E-04  4.98083608E-09
  4.80352018E-07  4.95835409E-06 -1.68778699E-10 -4.96906549E-04 -1.30923931E-08
 -3.55025821E-09  6.96564355E-04  4.98597025E-04 -9.66726815E-05 -2.17419181E-09
 -6.48788431E-10  1.41061076E-04  8.72183878E-05  7.06833301E-05  4.42795087E-10
  1.72903092E-10 -1.05254281E-04 -5.21064647E-05 -6.45199136E-05 -2.00155640E-09
 -4.78374703E-10  1.02698068E-04  7.04206099E-05  1.95899144E-10 -1.23112514E-05
 -4.30797399E-06 -2.75075175E-10 -1.15794588E-10  1.29068710E-05  1.73387443E-05