title                                                                   
POpt      RMP2-FC                                                     Aug-CC-pVTZ         
Number of atoms                            I                4
Info1-9                                    I   N=           9
          33          21           0           0           2         100
           2           2           1
Full Title                                 C   N=           1
title       
Route                                      C   N=           5
#p opt=(z-matrix,tight) mp2/aug-cc-pvtz density=current     
Charge                                     I               -1
Multiplicity                               I                1
Number of electrons                        I               44
Number of alpha electrons                  I               22
Number of beta electrons                   I               22
Number of basis functions                  I              169
Number of independent functions            I              169
Number of point charges in /Mol/           I                0
Number of translation vectors              I                0
Atomic numbers                             I   N=           4
           8          17          17           1
Nuclear charges                            R   N=           4
  8.00000000E+00  1.70000000E+01  1.70000000E+01  1.00000000E+00
Current cartesian coordinates              R   N=          12
  1.40867438E+00  1.85067121E+00 -3.80774536E-02  3.34894889E+00 -6.73807676E-01
 -7.12755377E-04 -3.99563574E+00 -2.62205850E-01 -8.80820848E-03 -2.75718627E-01
  1.10686028E+00  4.66476015E-01
Number of symbols in /Mol/                 I                0
Force Field                                I                0
Atom Types                                 C   N=           4
                                                
Int Atom Types                             I   N=           4
           0           0           0           0
MM charges                                 R   N=           4
  0.00000000E+00  0.00000000E+00  0.00000000E+00  0.00000000E+00
Integer atomic weights                     I   N=           4
          16          35          35           1
Real atomic weights                        R   N=           4
  1.59949146E+01  3.49688527E+01  3.49688527E+01  1.00782504E+00
Atom fragment info                         I   N=           4
           0           0           0           0
Atom residue num                           I   N=           4
           0           0           0           0
Nuclear spins                              I   N=           4
           0           3           3           1
Nuclear ZEff                               R   N=           4
 -5.60000000E+00 -1.42400000E+01 -1.42400000E+01 -1.00000000E+00
Nuclear ZNuc                               R   N=           4
  8.00000000E+00  1.70000000E+01  1.70000000E+01  1.00000000E+00
Nuclear QMom                               R   N=           4
  0.00000000E+00 -8.16500000E+00 -8.16500000E+00  0.00000000E+00
Nuclear GFac                               R   N=           4
  0.00000000E+00  8.21874000E-01  8.21874000E-01  2.79284600E+00
MicOpt                                     I   N=           4
          -1          -1          -1          -1
Number of residues                         I                0
Number of secondary structures             I                0
SymInf integers                            I   N=          26
           1           1           1           1           1           0
           0           0           0           0           0           0
           0           0           0           0           0           0
           0           0           0           0           0           0
           0           0
RotTr to input orientation                 R   N=          12
  6.09346669E-01  7.92903876E-01 -2.85013276E-04 -7.92817091E-01  6.09285216E-01
  1.45803243E-02  1.17344500E-02 -8.65850866E-03  9.99893661E-01  6.09319544E-01
 -2.24485967E+00  1.14915089E-02
Number of contracted shells                I               55
Number of primitive shells                 I              140
Pure/Cartesian d shells                    I                0
Pure/Cartesian f shells                    I                0
Highest angular momentum                   I                3
Largest degree of contraction              I               11
Shell types                                I   N=          55
           0           0           0           0           0           1
           1           1           1          -2          -2          -2
          -3          -3           0           0           0           0
           0           0           1           1           1           1
           1          -2          -2          -2          -3          -3
           0           0           0           0           0           0
           1           1           1           1           1          -2
          -2          -2          -3          -3           0           0
           0           0           1           1           1          -2
          -2
Number of primitives per shell             I   N=          55
           7           6           1           1           1           3
           1           1           1           1           1           1
           1           1          11           9           8           1
           1           1           6           6           1           1
           1           1           1           1           1           1
          11           9           8           1           1           1
           6           6           1           1           1           1
           1           1           1           1           3           1
           1           1           1           1           1           1
           1
Shell to atom map                          I   N=          55
           1           1           1           1           1           1
           1           1           1           1           1           1
           1           1           2           2           2           2
           2           2           2           2           2           2
           2           2           2           2           2           2
           3           3           3           3           3           3
           3           3           3           3           3           3
           3           3           3           3           4           4
           4           4           4           4           4           4
           4
Primitive exponents                        R   N=         140
  1.53300000E+04  2.29900000E+03  5.22400000E+02  1.47300000E+02  4.75500000E+01
  1.67600000E+01  6.20700000E+00  5.22400000E+02  1.47300000E+02  4.75500000E+01
  1.67600000E+01  6.20700000E+00  6.88200000E-01  1.75200000E+00  2.38400000E-01
  7.37600000E-02  3.44600000E+01  7.74900000E+00  2.28000000E+00  7.15600000E-01
  2.14000000E-01  5.97400000E-02  2.31400000E+00  6.45000000E-01  2.14000000E-01
  1.42800000E+00  5.00000000E-01  4.56100000E+05  6.83300000E+04  1.55500000E+04
  4.40500000E+03  1.43900000E+03  5.20400000E+02  2.03100000E+02  8.39600000E+01
  3.62000000E+01  1.58300000E+01  6.33400000E+00  4.40500000E+03  1.43900000E+03
  5.20400000E+02  2.03100000E+02  8.39600000E+01  3.62000000E+01  1.58300000E+01
  6.33400000E+00  2.69400000E+00  1.43900000E+03  2.03100000E+02  8.39600000E+01
  3.62000000E+01  1.58300000E+01  6.33400000E+00  2.69400000E+00  4.31300000E-01
  9.76800000E-01  1.62500000E-01  5.91000000E-02  6.63300000E+02  1.56800000E+02
  4.99800000E+01  1.84200000E+01  7.24000000E+00  2.92200000E+00  1.56800000E+02
  4.99800000E+01  1.84200000E+01  7.24000000E+00  2.92200000E+00  3.81800000E-01
  1.02200000E+00  1.30100000E-01  4.19000000E-02  1.04600000E+00  3.44000000E-01
  1.35000000E-01  7.06000000E-01  3.12000000E-01  4.56100000E+05  6.83300000E+04
  1.55500000E+04  4.40500000E+03  1.43900000E+03  5.20400000E+02  2.03100000E+02
  8.39600000E+01  3.62000000E+01  1.58300000E+01  6.33400000E+00  4.40500000E+03
  1.43900000E+03  5.20400000E+02  2.03100000E+02  8.39600000E+01  3.62000000E+01
  1.58300000E+01  6.33400000E+00  2.69400000E+00  1.43900000E+03  2.03100000E+02
  8.39600000E+01  3.62000000E+01  1.58300000E+01  6.33400000E+00  2.69400000E+00
  4.31300000E-01  9.76800000E-01  1.62500000E-01  5.91000000E-02  6.63300000E+02
  1.56800000E+02  4.99800000E+01  1.84200000E+01  7.24000000E+00  2.92200000E+00
  1.56800000E+02  4.99800000E+01  1.84200000E+01  7.24000000E+00  2.92200000E+00
  3.81800000E-01  1.02200000E+00  1.30100000E-01  4.19000000E-02  1.04600000E+00
  3.44000000E-01  1.35000000E-01  7.06000000E-01  3.12000000E-01  3.38700000E+01
  5.09500000E+00  1.15900000E+00  3.25800000E-01  1.02700000E-01  2.52600000E-02
  1.40700000E+00  3.88000000E-01  1.02000000E-01  1.05700000E+00  2.47000000E-01
Contraction coefficients                   R   N=         140
  5.19808943E-04  4.02025621E-03  2.07128267E-02  8.10105536E-02  2.35962985E-01
  4.42653446E-01  3.57064423E-01 -4.42115008E-05 -1.22591041E-03 -1.05517725E-02
 -6.74452633E-02 -1.71198607E-01  1.07329856E+00  1.00000000E+00  1.00000000E+00
  1.00000000E+00  4.11634896E-02  2.57762836E-01  8.02419274E-01  1.00000000E+00
  1.00000000E+00  1.00000000E+00  1.00000000E+00  1.00000000E+00  1.00000000E+00
  1.00000000E+00  1.00000000E+00  4.93229477E-05  3.83207967E-04  2.00947816E-03
  8.38950124E-03  2.94843950E-02  8.78759948E-02  2.11589759E-01  3.65611554E-01
  3.41246350E-01  1.02162570E-01  2.14249949E-03 -2.21747925E-06 -1.71189708E-04
 -1.27922846E-03 -9.32956265E-03 -3.98910062E-02 -1.05536085E-01  9.36202446E-03
  5.10511140E-01  5.73150737E-01  4.03949245E-06  2.12481765E-04  8.59484452E-04
  4.63248159E-03  4.47343490E-04 -7.38438245E-02 -3.62271994E-01  1.16620337E+00
  1.00000000E+00  1.00000000E+00  1.00000000E+00  2.47206402E-03  1.97550234E-02
  9.09917355E-02  2.63187834E-01  4.49078073E-01  3.60183072E-01  3.03427809E-05
 -1.22475826E-03 -6.01429772E-03 -2.76401323E-02  4.35105612E-04  1.00307272E+00
  1.00000000E+00  1.00000000E+00  1.00000000E+00  1.00000000E+00  1.00000000E+00
  1.00000000E+00  1.00000000E+00  1.00000000E+00  4.93229477E-05  3.83207967E-04
  2.00947816E-03  8.38950124E-03  2.94843950E-02  8.78759948E-02  2.11589759E-01
  3.65611554E-01  3.41246350E-01  1.02162570E-01  2.14249949E-03 -2.21747925E-06
 -1.71189708E-04 -1.27922846E-03 -9.32956265E-03 -3.98910062E-02 -1.05536085E-01
  9.36202446E-03  5.10511140E-01  5.73150737E-01  4.03949245E-06  2.12481765E-04
  8.59484452E-04  4.63248159E-03  4.47343490E-04 -7.38438245E-02 -3.62271994E-01
  1.16620337E+00  1.00000000E+00  1.00000000E+00  1.00000000E+00  2.47206402E-03
  1.97550234E-02  9.09917355E-02  2.63187834E-01  4.49078073E-01  3.60183072E-01
  3.03427809E-05 -1.22475826E-03 -6.01429772E-03 -2.76401323E-02  4.35105612E-04
  1.00307272E+00  1.00000000E+00  1.00000000E+00  1.00000000E+00  1.00000000E+00
  1.00000000E+00  1.00000000E+00  1.00000000E+00  1.00000000E+00  2.54948632E-02
  1.90362766E-01  8.52162022E-01  1.00000000E+00  1.00000000E+00  1.00000000E+00
  1.00000000E+00  1.00000000E+00  1.00000000E+00  1.00000000E+00  1.00000000E+00
Coordinates of each shell                  R   N=         165
  1.40867438E+00  1.85067121E+00 -3.80774536E-02  1.40867438E+00  1.85067121E+00
 -3.80774536E-02  1.40867438E+00  1.85067121E+00 -3.80774536E-02  1.40867438E+00
  1.85067121E+00 -3.80774536E-02  1.40867438E+00  1.85067121E+00 -3.80774536E-02
  1.40867438E+00  1.85067121E+00 -3.80774536E-02  1.40867438E+00  1.85067121E+00
 -3.80774536E-02  1.40867438E+00  1.85067121E+00 -3.80774536E-02  1.40867438E+00
  1.85067121E+00 -3.80774536E-02  1.40867438E+00  1.85067121E+00 -3.80774536E-02
  1.40867438E+00  1.85067121E+00 -3.80774536E-02  1.40867438E+00  1.85067121E+00
 -3.80774536E-02  1.40867438E+00  1.85067121E+00 -3.80774536E-02  1.40867438E+00
  1.85067121E+00 -3.80774536E-02  3.34894889E+00 -6.73807676E-01 -7.12755377E-04
  3.34894889E+00 -6.73807676E-01 -7.12755377E-04  3.34894889E+00 -6.73807676E-01
 -7.12755377E-04  3.34894889E+00 -6.73807676E-01 -7.12755377E-04  3.34894889E+00
 -6.73807676E-01 -7.12755377E-04  3.34894889E+00 -6.73807676E-01 -7.12755377E-04
  3.34894889E+00 -6.73807676E-01 -7.12755377E-04  3.34894889E+00 -6.73807676E-01
 -7.12755377E-04  3.34894889E+00 -6.73807676E-01 -7.12755377E-04  3.34894889E+00
 -6.73807676E-01 -7.12755377E-04  3.34894889E+00 -6.73807676E-01 -7.12755377E-04
  3.34894889E+00 -6.73807676E-01 -7.12755377E-04  3.34894889E+00 -6.73807676E-01
 -7.12755377E-04  3.34894889E+00 -6.73807676E-01 -7.12755377E-04  3.34894889E+00
 -6.73807676E-01 -7.12755377E-04  3.34894889E+00 -6.73807676E-01 -7.12755377E-04
 -3.99563574E+00 -2.62205850E-01 -8.80820848E-03 -3.99563574E+00 -2.62205850E-01
 -8.80820848E-03 -3.99563574E+00 -2.62205850E-01 -8.80820848E-03 -3.99563574E+00
 -2.62205850E-01 -8.80820848E-03 -3.99563574E+00 -2.62205850E-01 -8.80820848E-03
 -3.99563574E+00 -2.62205850E-01 -8.80820848E-03 -3.99563574E+00 -2.62205850E-01
 -8.80820848E-03 -3.99563574E+00 -2.62205850E-01 -8.80820848E-03 -3.99563574E+00
 -2.62205850E-01 -8.80820848E-03 -3.99563574E+00 -2.62205850E-01 -8.80820848E-03
 -3.99563574E+00 -2.62205850E-01 -8.80820848E-03 -3.99563574E+00 -2.62205850E-01
 -8.80820848E-03 -3.99563574E+00 -2.62205850E-01 -8.80820848E-03 -3.99563574E+00
 -2.62205850E-01 -8.80820848E-03 -3.99563574E+00 -2.62205850E-01 -8.80820848E-03
 -3.99563574E+00 -2.62205850E-01 -8.80820848E-03 -2.75718627E-01  1.10686028E+00
  4.66476015E-01 -2.75718627E-01  1.10686028E+00  4.66476015E-01 -2.75718627E-01
  1.10686028E+00  4.66476015E-01 -2.75718627E-01  1.10686028E+00  4.66476015E-01
 -2.75718627E-01  1.10686028E+00  4.66476015E-01 -2.75718627E-01  1.10686028E+00
  4.66476015E-01 -2.75718627E-01  1.10686028E+00  4.66476015E-01 -2.75718627E-01
  1.10686028E+00  4.66476015E-01 -2.75718627E-01  1.10686028E+00  4.66476015E-01
Num ILSW                                   I              100
ILSW                                       I   N=         100
           0           0           0           1           2           0
           0           0           0           0           0          -1
           5           0           0           0           2           0
           0           0           0           0           1           0
           1           0           0           0           0           0
           0           0      100000           0          -1           0
           0           0           0           0           0           0
           0           0           0           1           0           0
           0 -2000000000           1           0           0           0
           0           0           4          52           0           0
           0           0           0           0           0           0
           0           0           0           4           0           1
           0           0           0           0           0           0
           0           0           0           0           0           0
           0           0           0           0           0           0
           0           0           0           0           0           0
           0           0           0           0
Num RLSW                                   I               52
RLSW                                       R   N=          52
  1.00000000E+00  1.00000000E+00  1.00000000E+00  1.00000000E+00  1.00000000E+00
  0.00000000E+00  0.00000000E+00  1.00000000E+00  0.00000000E+00  0.00000000E+00
  0.00000000E+00  0.00000000E+00  1.00000000E+00  0.00000000E+00  0.00000000E+00
  0.00000000E+00  0.00000000E+00  1.00000000E+00  0.00000000E+00  0.00000000E+00
  0.00000000E+00  0.00000000E+00  1.00000000E+00  0.00000000E+00  0.00000000E+00
  0.00000000E+00  0.00000000E+00  1.00000000E+00  0.00000000E+00  0.00000000E+00
  0.00000000E+00  0.00000000E+00  1.00000000E+00  0.00000000E+00  0.00000000E+00
  0.00000000E+00  0.00000000E+00  0.00000000E+00  1.00000000E+00  1.00000000E+00
  0.00000000E+00  1.00000000E+00  0.00000000E+00  0.00000000E+00  0.00000000E+00
  0.00000000E+00  0.00000000E+00  0.00000000E+00  0.00000000E+00  0.00000000E+00
  0.00000000E+00  0.00000000E+00
MxBond                                     I                2
NBond                                      I   N=           4
           2           1           0           1
IBond                                      I   N=           8
           2           4           1           0           0           0
           1           0
RBond                                      R   N=           8
  1.00000000E+00  1.00000000E+00  1.00000000E+00  0.00000000E+00  0.00000000E+00
  0.00000000E+00  1.00000000E+00  0.00000000E+00
Virial Ratio                               R      2.000205489579294E+00
SCF Energy                                 R     -9.945228834251905E+02
MP2 Energy                                 R     -9.951877748173801E+02
Total Energy                               R     -9.951877748173801E+02
Post-SCF wavefunction norm                 R      1.103530637239567E+00
RMS Force                                  R      4.693874847645546E-03
RMS Density                                R      4.921539351468848E-09
Job Status                                 I                1
Nuclear derivative order                   I                1
External E-field                           R   N=          35
  0.00000000E+00  0.00000000E+00  0.00000000E+00  0.00000000E+00  0.00000000E+00
  0.00000000E+00  0.00000000E+00  0.00000000E+00  0.00000000E+00  0.00000000E+00
  0.00000000E+00  0.00000000E+00  0.00000000E+00  0.00000000E+00  0.00000000E+00
  0.00000000E+00  0.00000000E+00  0.00000000E+00  0.00000000E+00  0.00000000E+00
  0.00000000E+00  0.00000000E+00  0.00000000E+00  0.00000000E+00  0.00000000E+00
  0.00000000E+00  0.00000000E+00  0.00000000E+00  0.00000000E+00  0.00000000E+00
  0.00000000E+00  0.00000000E+00  0.00000000E+00  0.00000000E+00  0.00000000E+00
IOpCl                                      I                0
IROHF                                      I                0
Alpha Orbital Energies                     R   N=         169
 -1.04735047E+02 -1.04542207E+02 -2.04680475E+01 -1.04545731E+01 -1.02665323E+01
 -7.92174841E+00 -7.91908958E+00 -7.91897928E+00 -7.73266281E+00 -7.73255039E+00
 -7.73254855E+00 -1.23336544E+00 -8.99251764E-01 -7.76654987E-01 -5.42803472E-01
 -4.46451244E-01 -4.37747227E-01 -3.11489789E-01 -2.84760644E-01 -1.95869257E-01
 -1.88454716E-01 -1.88187310E-01  1.58510854E-01  1.82110563E-01  2.25020709E-01
  2.30794917E-01  2.58728082E-01  2.72958992E-01  2.77300256E-01  2.86208723E-01
  3.11462631E-01  3.15876080E-01  3.33762678E-01  3.47151553E-01  3.95269095E-01
  4.31265263E-01  4.57547036E-01  4.98996815E-01  5.11192385E-01  5.41084034E-01
  5.50993922E-01  5.73588062E-01  5.77770251E-01  5.92451088E-01  6.01348888E-01
  6.45655300E-01  6.61182245E-01  6.67905394E-01  6.81327749E-01  7.31113653E-01
  7.66701004E-01  7.81445924E-01  8.44768198E-01  8.71087805E-01  8.88355836E-01
  8.93597116E-01  9.05493733E-01  9.08183894E-01  9.64611671E-01  9.79836169E-01
  1.02070992E+00  1.06594008E+00  1.06801457E+00  1.09129652E+00  1.09426526E+00
  1.10013900E+00  1.12539656E+00  1.14651650E+00  1.16838771E+00  1.18831873E+00
  1.19283416E+00  1.19648144E+00  1.20826974E+00  1.22955035E+00  1.26603685E+00
  1.29677445E+00  1.31261513E+00  1.35057608E+00  1.38356866E+00  1.40916505E+00
  1.43261428E+00  1.43430324E+00  1.46346175E+00  1.47757591E+00  1.51054483E+00
  1.57712677E+00  1.60471082E+00  1.62859694E+00  1.66503348E+00  1.67316001E+00
  1.67944861E+00  1.74313003E+00  1.80463476E+00  1.83591632E+00  1.85035656E+00
  1.88221441E+00  1.93181518E+00  1.97167720E+00  2.22902262E+00  2.39174165E+00
  2.46263174E+00  2.49680292E+00  2.51285184E+00  2.55820524E+00  2.58830488E+00
  2.61523558E+00  2.64475320E+00  2.68056058E+00  2.70368316E+00  2.71568751E+00
  2.71603337E+00  2.74174122E+00  2.76415903E+00  2.78534079E+00  2.80106413E+00
  2.81526296E+00  2.89642595E+00  2.91565925E+00  2.91837336E+00  2.96022724E+00
  3.05405575E+00  3.06486994E+00  3.07285259E+00  3.10512170E+00  3.18961055E+00
  3.20786996E+00  3.21509537E+00  3.26017330E+00  3.29377778E+00  3.33008919E+00
  3.33610206E+00  3.34333083E+00  3.36794494E+00  3.38810517E+00  3.39539091E+00
  3.49246102E+00  3.50356284E+00  3.53409370E+00  3.54940743E+00  3.56187779E+00
  3.62116305E+00  3.92192180E+00  4.17317214E+00  4.32042670E+00  4.46539604E+00
  4.55076030E+00  4.56507265E+00  4.75938481E+00  4.98016324E+00  5.06493379E+00
  5.34373212E+00  5.41586906E+00  5.66618494E+00  6.21458361E+00  6.50678036E+00
  6.57256068E+00  6.86149760E+00  6.89921015E+00  6.91536625E+00  6.98459843E+00
  7.29707884E+00  7.32930643E+00  7.34296047E+00  7.43536717E+00  7.53599043E+00
  7.73657205E+00  7.78141203E+00  8.34519416E+00  1.44281002E+01
Alpha MO coefficients                      R   N=       28561
  5.33439941E-06  2.96442773E-05  2.07751138E-06 -1.47535676E-04 -9.97830826E-05
  9.44192331E-07 -2.90484233E-06  5.18899345E-07 -2.99570079E-07  9.75163230E-06
 -2.53102639E-06 -1.09153792E-04  1.19043265E-04 -9.89874936E-07 -2.59737680E-05
  2.77390511E-05  1.26846803E-06 -2.12888549E-06 -1.07495112E-07 -1.93471260E-07
 -9.92167389E-07 -3.21383596E-06  1.40282579E-05  4.07114811E-07  1.20599360E-06
  6.74472439E-06  2.16207786E-05  2.48956039E-05 -5.43197388E-06  1.93933952E-06
  3.04336541E-05  5.23636912E-05 -1.44806769E-07  1.79295892E-07  7.29045234E-08
 -5.34094712E-07 -2.41363206E-08  1.39608129E-06  1.22478765E-06  5.80819459E-07
  7.91522053E-06 -1.05682664E-05  2.43460327E-06  5.51683491E-07  1.01076072E-05
  2.13835931E-06  9.99534846E-01  1.95367064E-03  1.84101669E-04 -4.17594030E-04
  7.21299294E-05  7.46867224E-05 -4.69175034E-05  6.14084868E-05  2.36014450E-07
 -8.86312771E-05  1.07215768E-04  2.71201492E-07  4.58193334E-05 -5.78464726E-05
 -2.00577712E-07 -2.68051824E-05  5.01348620E-05 -3.31209154E-06 -6.66966878E-06
  9.81740133E-06 -9.36952800E-07 -3.68484327E-06 -1.60785024E-08 -2.32621507E-08
 -8.74192854E-07 -6.00147896E-06 -2.83662688E-05  1.99293491E-07 -6.21163327E-07
 -1.12712068E-05 -4.81870012E-05 -1.27656663E-06  2.74129485E-06 -1.36206986E-08
 -7.06417733E-06 -6.89944707E-06 -2.62961527E-07  4.29337986E-06 -4.79263927E-06
  7.14732781E-07 -4.01353024E-08  5.29859369E-06  3.21227353E-06  9.87994249E-07
  9.43373024E-07 -2.88869093E-06 -1.47444333E-06  5.38507082E-07  8.22309295E-06
  1.73381700E-06  1.79413135E-07  2.51908068E-06  6.32501955E-06 -1.54494710E-06
 -1.30444540E-05 -9.92534206E-06 -1.67986523E-08 -9.55431755E-08 -4.92981390E-08
  4.72812423E-07 -1.29269750E-06 -3.75275240E-07  1.79881823E-07  4.33509892E-07
  2.31997921E-07 -1.57869937E-05 -1.07232744E-06 -2.62548786E-06 -3.24296189E-06
 -1.06767678E-06  3.09493264E-07 -1.80178185E-07  2.41035253E-07  2.15699147E-07
  3.48811886E-07  3.65339298E-08  8.45584486E-07 -1.08009880E-06 -9.15312745E-07
 -1.25212998E-06 -9.94460452E-07  3.62453375E-06 -1.75974134E-06  6.36415796E-07
 -6.38700751E-06 -9.00307385E-07 -1.71553809E-07 -3.70198831E-07  2.23077408E-08
  3.29312977E-07 -3.32455299E-07  7.21874435E-07 -6.88947896E-08  8.40291094E-07
  1.46226291E-06  8.68137638E-08 -1.12589755E-06  2.00809982E-07 -2.22685985E-06
 -3.30424629E-07 -1.34707001E-06 -1.96180919E-05  4.06823164E-05 -6.90559420E-06
 -1.86364038E-06  1.99728446E-06  9.18032453E-08  1.58230204E-05 -1.05908242E-05
 -7.38817866E-07  7.33653971E-06 -1.98275811E-05 -1.47176082E-06 -5.64826615E-07
 -3.43042429E-08 -2.27322083E-08  2.45785757E-07 -1.20247372E-06 -1.24565755E-05
 -3.17176148E-06 -6.49515282E-08  8.07253938E-06  3.80520231E-06  3.36512861E-07
  2.17936220E-06  3.90291685E-07 -1.13768642E-05  1.83526462E-05 -3.21435819E-07
 -7.97526146E-08  3.65782095E-07  1.18953710E-06  2.11579656E-07 -1.67113260E-06
  2.46495674E-05  1.32716752E-05  1.18227630E-05  6.50325267E-06  3.90894443E-06
  1.05779532E-05 -2.07701937E-07  2.49494629E-07  2.30075358E-07  1.67859603E-07
  2.40103464E-07  1.98058372E-06 -8.09170248E-07 -7.78634136E-07 -1.99264457E-06
 -2.36573935E-06  1.01428441E-05 -2.88722647E-06 -3.86472107E-07 -1.01164657E-05
 -5.37708704E-06 -1.09968603E-07  3.92166783E-10 -1.89707364E-08 -1.45498213E-09
 -1.97486363E-07 -4.57057709E-08  1.55111178E-07  4.89345618E-08 -2.50513708E-06
 -1.06096389E-06  2.42425635E-07  8.47874004E-07  1.26294246E-06  2.22025223E-06
  6.92771945E-08  1.45865235E-06  3.40977593E-06 -1.49522339E-06  2.61047155E-06
 -1.14541148E-05 -2.61456185E-07  1.61638262E-08 -5.67122397E-08 -4.01403949E-06
  4.75649293E-07 -5.07452394E-07  9.47630332E-07 -8.54876731E-09  2.26627218E-07
  1.17383013E-05  3.36897364E-06  1.67769491E-06  1.53965556E-06 -2.88405062E-06
 -2.18209093E-06  7.16322561E-08 -1.27356116E-07  6.39007294E-08  2.53801142E-07
 -3.32706349E-07 -9.96399304E-07  4.23462168E-07 -1.53680881E-07 -5.49188150E-07
  7.20139513E-07  4.27773125E-06 -7.12720037E-07  5.77026560E-07 -7.15611014E-06
 -9.08881300E-07 -2.16000356E-07  4.89016043E-07 -3.93515781E-08  1.04578891E-08
  1.98650883E-07 -7.90343107E-07 -6.10722037E-08  4.87229860E-07 -1.43439037E-06
 -1.27852991E-07 -2.27582846E-07 -2.98871086E-07  2.15201732E-06 -5.61598279E-07
  9.99531892E-01  1.98031317E-03  2.08426255E-04 -4.21726768E-04 -1.60980185E-04
 -2.17212165E-05  7.98184821E-06  2.97526380E-06  2.64673268E-06  1.96938707E-05
  6.76250255E-06  3.14825481E-06 -8.92691462E-06 -3.17396882E-06 -2.15831260E-06
 -7.25349332E-05 -2.47109778E-05 -8.31341355E-06 -3.65118109E-06 -1.52230194E-06
 -1.19606568E-06 -8.23604970E-07  2.40383913E-07  1.45800653E-07  1.01634217E-06
  7.51684987E-07  7.98907658E-07  4.83618666E-07 -3.22614941E-09 -6.13131561E-07
 -3.78408911E-07  1.26062321E-05 -5.40721628E-06 -1.70169104E-06 -1.80823718E-05
 -1.43563632E-05 -4.98624460E-07 -1.43727463E-06 -5.95284505E-07  4.29465171E-07
  3.74321166E-07  1.17296417E-06  1.86304176E-06  1.41814160E-06  4.32980481E-06
  1.70192979E-06 -1.26137231E-06 -1.13994491E-06 -3.30356842E-06 -5.45480644E-06
 -1.14252250E-06  3.39487784E-05  7.84336385E-05 -1.00572740E-06  1.68916354E-06
  9.84592489E-07  6.89751371E-07 -4.15111921E-06 -9.01353867E-07 -1.43456188E-05
 -7.70681780E-05 -3.98801302E-05 -2.14836405E-05  1.94456708E-07 -1.49493860E-06
 -8.59872669E-07  6.35262347E-07  6.97507769E-07 -5.70511497E-07 -1.99366244E-06
 -1.04009996E-07  6.62405186E-07 -1.64707268E-06  9.76817392E-01 -9.20708645E-03
  4.33776995E-02  1.55533102E-03  5.12527869E-04 -1.53592472E-04 -1.80067077E-03
  4.35780121E-04  4.71026585E-04  1.53085829E-03 -4.53576698E-04  2.65153568E-04
 -3.39467835E-04 -1.94339219E-04  2.38426257E-04 -1.21293562E-04 -3.41621980E-05
  4.49543476E-05 -1.50703876E-05 -2.63760383E-06  3.61930659E-05  1.00762169E-04
  4.13332582E-04  2.25319642E-04  1.22561277E-04 -1.05147728E-04  1.12220130E-04
 -1.88508589E-04  1.41493631E-05  2.44206671E-05  2.94845858E-05 -1.53836392E-04
  9.44374303E-06  4.66714785E-07 -1.91605316E-05  2.15692768E-06 -6.84020741E-06
  1.05791496E-05  4.82958485E-06  3.51698549E-05 -1.33481398E-06 -1.44355611E-05
 -3.13025808E-05 -6.14023800E-05 -1.79049000E-05  1.16896586E-04  4.25565131E-06
  7.07884735E-05  7.76623626E-05 -2.85505474E-04  1.72401561E-04 -6.03041673E-04
 -2.16513220E-06  1.15063847E-05 -1.84882318E-06 -3.07588942E-04  5.49088816E-04
 -3.47208914E-05  1.45896318E-04 -2.27562939E-04  1.08420716E-05 -1.39596155E-05
 -3.20858199E-04  7.85040286E-05  6.45596117E-05 -1.15212786E-04 -1.22987486E-06
  1.58242921E-05  4.05684332E-06  3.24600026E-06 -8.91643217E-07  9.98184650E-06
 -3.22981550E-04  3.70473890E-06 -3.22772330E-05 -1.81665724E-04 -4.74826549E-04
  1.05705321E-04 -3.61350165E-05  4.74785435E-05  2.00803279E-04  1.55700583E-04
  1.40251557E-05  8.93067021E-05 -1.37041251E-04 -1.02833096E-06  1.24302880E-05
  2.19272284E-04  6.03226681E-05 -1.35925600E-05  8.63528664E-05 -7.64221110E-05
  1.72025251E-05  5.22719582E-07  7.66860578E-05  4.68810952E-05  3.56757580E-06
  4.87960868E-05  1.42826078E-04  1.70785410E-05 -7.78057431E-04 -4.80979348E-04
 -9.81302915E-06 -2.76770436E-06 -1.06677380E-06 -1.83847172E-04 -5.77911702E-05
  1.12468378E-06  4.90692065E-05  1.42164432E-05  7.83153534E-06 -6.04200178E-04
 -2.37666300E-04 -2.89273448E-04 -7.55959946E-05 -1.89406479E-05 -3.03512910E-05
  3.08189646E-06  1.52636200E-05  4.66759289E-06  1.04046872E-06  1.61336008E-06
  5.05061149E-05 -6.96559041E-05 -2.21083937E-05 -8.35565677E-05 -6.72450231E-05
  4.50959825E-05 -2.06153924E-04 -7.92584715E-05 -1.15732295E-04 -9.55392840E-05
 -1.48067078E-05  2.45069783E-05  9.74026006E-06  1.80510138E-05  1.61669519E-05
 -5.30864954E-06 -5.47211268E-06  7.21426488E-05 -4.71799089E-05 -2.02212655E-05
 -8.07057650E-05 -6.74151287E-05 -9.18521169E-06 -1.03402128E-05  3.26602911E-04
  1.25787704E-03  1.06103672E-03  1.36894486E-04  2.42191644E-04  5.92123369E-05
 -7.02127756E-05  1.17662885E-03  4.67121707E-04 -2.12448551E-04 -7.98239063E-04
 -1.36313283E-04  1.74473561E-04 -8.80622873E-06 -3.29924174E-06  1.91246005E-05
  5.32963441E-05 -4.04988143E-05 -4.87981713E-04 -2.78190005E-04 -1.05252423E-04
  7.14405691E-04  7.17062363E-04 -7.01868474E-05 -6.34485847E-05 -1.05883155E-04
  2.73067385E-03  2.40753256E-03  3.84061662E-05 -2.51788346E-05 -5.74473709E-06
  2.73492978E-04 -5.07206373E-04  4.43517556E-05  1.54179866E-03 -2.00163112E-03
  9.44042520E-05  5.98986674E-04 -7.26072688E-04 -1.64207504E-05 -2.39477383E-05
  3.37411610E-06  4.61099439E-06 -4.15261471E-06 -5.55227455E-05 -1.99933622E-04
 -1.55553768E-05 -4.76115462E-05 -1.34703568E-04 -2.16514034E-04 -2.61720342E-04
  5.91854949E-05 -5.37156397E-05 -5.75405889E-04 -5.09579423E-04 -2.82271651E-06
 -1.32362009E-05  1.91047401E-05  8.59132343E-06  3.09219640E-06 -5.33805153E-05