 Entering Gaussian System, Link 0=g16
 Input=clhocl-_tz.gjf
 Output=clhocl-_tz.log
 Initial command:
 /sw/contrib/gaussian/g16/B01/g16/l1.exe "/scr/Gau-13281.inp" -scrdir="/scr/"
 Entering Link 1 = /sw/contrib/gaussian/g16/B01/g16/l1.exe PID=     13282.
  
 Copyright (c) 1988-2017, Gaussian, Inc.  All Rights Reserved.
  
 This is part of the Gaussian(R) 16 program.  It is based on
 the Gaussian(R) 09 system (copyright 2009, Gaussian, Inc.),
 the Gaussian(R) 03 system (copyright 2003, Gaussian, Inc.),
 the Gaussian(R) 98 system (copyright 1998, Gaussian, Inc.),
 the Gaussian(R) 94 system (copyright 1995, Gaussian, Inc.),
 the Gaussian 92(TM) system (copyright 1992, Gaussian, Inc.),
 the Gaussian 90(TM) system (copyright 1990, Gaussian, Inc.),
 the Gaussian 88(TM) system (copyright 1988, Gaussian, Inc.),
 the Gaussian 86(TM) system (copyright 1986, Carnegie Mellon
 University), and the Gaussian 82(TM) system (copyright 1983,
 Carnegie Mellon University). Gaussian is a federally registered
 trademark of Gaussian, Inc.
  
 This software contains proprietary and confidential information,
 including trade secrets, belonging to Gaussian, Inc.
  
 This software is provided under written license and may be
 used, copied, transmitted, or stored only in accord with that
 written license.
  
 The following legend is applicable only to US Government
 contracts under FAR:
  
                    RESTRICTED RIGHTS LEGEND
  
 Use, reproduction and disclosure by the US Government is
 subject to restrictions as set forth in subparagraphs (a)
 and (c) of the Commercial Computer Software - Restricted
 Rights clause in FAR 52.227-19.
  
 Gaussian, Inc.
 340 Quinnipiac St., Bldg. 40, Wallingford CT 06492
  
  
 ---------------------------------------------------------------
 Warning -- This program may not be used in any manner that
 competes with the business of Gaussian, Inc. or will provide
 assistance to any competitor of Gaussian, Inc.  The licensee
 of this program is prohibited from giving any competitor of
 Gaussian, Inc. access to this program.  By using this program,
 the user acknowledges that Gaussian, Inc. is engaged in the
 business of creating and licensing software in the field of
 computational chemistry and represents and warrants to the
 licensee that it is not a competitor of Gaussian, Inc. and that
 it will not use this program in any manner prohibited above.
 ---------------------------------------------------------------
  

 Cite this work as:
 Gaussian 16, Revision B.01,
 M. J. Frisch, G. W. Trucks, H. B. Schlegel, G. E. Scuseria, 
 M. A. Robb, J. R. Cheeseman, G. Scalmani, V. Barone, 
 G. A. Petersson, H. Nakatsuji, X. Li, M. Caricato, A. V. Marenich, 
 J. Bloino, B. G. Janesko, R. Gomperts, B. Mennucci, H. P. Hratchian, 
 J. V. Ortiz, A. F. Izmaylov, J. L. Sonnenberg, D. Williams-Young, 
 F. Ding, F. Lipparini, F. Egidi, J. Goings, B. Peng, A. Petrone, 
 T. Henderson, D. Ranasinghe, V. G. Zakrzewski, J. Gao, N. Rega, 
 G. Zheng, W. Liang, M. Hada, M. Ehara, K. Toyota, R. Fukuda, 
 J. Hasegawa, M. Ishida, T. Nakajima, Y. Honda, O. Kitao, H. Nakai, 
 T. Vreven, K. Throssell, J. A. Montgomery, Jr., J. E. Peralta, 
 F. Ogliaro, M. J. Bearpark, J. J. Heyd, E. N. Brothers, K. N. Kudin, 
 V. N. Staroverov, T. A. Keith, R. Kobayashi, J. Normand, 
 K. Raghavachari, A. P. Rendell, J. C. Burant, S. S. Iyengar, 
 J. Tomasi, M. Cossi, J. M. Millam, M. Klene, C. Adamo, R. Cammi, 
 J. W. Ochterski, R. L. Martin, K. Morokuma, O. Farkas, 
 J. B. Foresman, and D. J. Fox, Gaussian, Inc., Wallingford CT, 2016.
 
 ******************************************
 Gaussian 16:  ES64L-G16RevB.01 20-Dec-2017
                22-Jun-2021 
 ******************************************
 %nproc=28
 Will use up to   28 processors via shared memory.
 %mem=120GB
 %chk=/gscratch/ilahie/abmccoy/hocl/cl_hocl_tz.chk
 -----------------------------------------------
 # opt=(z-matrix,tight) mp2/aug-cc-pvtz freq=anh
 -----------------------------------------------
 1/7=10,10=7,18=40,38=1,80=1/1,3;
 2/12=2,17=6,18=5,29=3,40=1/2;
 3/5=16,6=1,7=10,11=9,25=1,30=1,71=1/1,2,3;
 4//1;
 5/5=2,38=5/2;
 8/6=4,10=1/1;
 9/15=2,16=-3/6;
 10/5=1/2;
 6/7=2,8=2,9=2,10=2/1;
 7/12=2,29=1/1,2,3,16;
 1/7=10,10=7,18=40,80=1/3(2);
 2/29=3/2;
 99//99;
 2/29=3/2;
 3/5=16,6=1,7=10,11=9,25=1,30=1,71=1/1,2,3;
 4/5=5,16=3,69=1/1;
 5/5=2,38=5/2;
 8/6=4,10=1/1;
 9/15=2,16=-3/6;
 10/5=1/2;
 7/12=2/1,2,3,16;
 1/7=10,18=40,80=1/3(-8);
 2/29=3/2;
 6/7=2,8=2,9=2,10=2/1;
 99/9=10/99;
 -----
 title
 -----
 Symbolic Z-matrix:
 Charge = -1 Multiplicity = 1
 O
 H                    1    r1
 Cl                   1    r2       2    a1
 Cl                   1    r3       3    a2       2    d1       0
       Variables:
  r1                    1.0295                   
  r2                    1.7206                   
  r3                    2.9283                   
  a1                  103.2872                   
  a2                  106.5389                   
  d1                   -0.0017                   
 

 GradGradGradGradGradGradGradGradGradGradGradGradGradGradGradGradGradGrad
 Berny optimization.
 Initialization pass.
                       ----------------------------
                       !    Initial Parameters    !
                       ! (Angstroms and Degrees)  !
 ----------------------                            ----------------------
 !      Name          Value   Derivative information (Atomic Units)     !
 ------------------------------------------------------------------------
 !       r1          1.0295   estimate D2E/DX2                          !
 !       r2          1.7206   estimate D2E/DX2                          !
 !       r3          2.9283   estimate D2E/DX2                          !
 !       a1        103.2872   estimate D2E/DX2                          !
 !       a2        106.5389   estimate D2E/DX2                          !
 !       d1         -0.0017   estimate D2E/DX2                          !
 ------------------------------------------------------------------------
 Trust Radius=3.00D-01 FncErr=1.00D-07 GrdErr=1.00D-07 EigMax=2.50D+02 EigMin=1.00D-04
 Number of steps in this run=     20 maximum allowed number of steps=    100.
 GradGradGradGradGradGradGradGradGradGradGradGradGradGradGradGradGradGrad

 ---------------------------------------------------------------------------------------------------
                            Z-MATRIX (ANGSTROMS AND DEGREES)
   CD    Cent   Atom    N1       Length/X        N2       Alpha/Y        N3        Beta/Z          J
 ---------------------------------------------------------------------------------------------------
      1      1  O 
      2      2  H        1   1.029500(     1)
      3      3  Cl       1   1.720600(     2)      2  103.287(     4)
      4      4  Cl       1   2.928300(     3)      3  106.539(     5)      2   -0.002(     6)      0
 ---------------------------------------------------------------------------------------------------
                         Z-Matrix orientation:                         
 ---------------------------------------------------------------------
 Center     Atomic      Atomic             Coordinates (Angstroms)
 Number     Number       Type             X           Y           Z
 ---------------------------------------------------------------------
      1          8           0        0.000000    0.000000    0.000000
      2          1           0        0.000000    0.000000    1.029500
      3         17           0        1.674540    0.000000   -0.395449
      4         17           0       -0.166100   -0.000083    2.923585
 ---------------------------------------------------------------------
                    Distance matrix (angstroms):
                    1          2          3          4
     1  O    0.000000
     2  H    1.029500   0.000000
     3  Cl   1.720600   2.198764   0.000000
     4  Cl   2.928300   1.901354   3.795253   0.000000
 Stoichiometry    Cl2HO(1-)
 Framework group  C1[X(Cl2HO)]
 Deg. of freedom     6
 Full point group                 C1      NOp   1
 Largest Abelian subgroup         C1      NOp   1
 Largest concise Abelian subgroup C1      NOp   1
                         Standard orientation:                         
 ---------------------------------------------------------------------
 Center     Atomic      Atomic             Coordinates (Angstroms)
 Number     Number       Type             X           Y           Z
 ---------------------------------------------------------------------
      1          8           0        0.657226    0.985456   -0.000002
      2          1           0       -0.267529    0.533020    0.000028
      3         17           0        1.748354   -0.344921   -0.000000
      4         17           0       -2.041900   -0.150177   -0.000001
 ---------------------------------------------------------------------
 Rotational constants (GHZ):          24.3481216           1.9462397           1.8021842
 Standard basis: Aug-CC-pVTZ (5D, 7F)
 There are   198 symmetry adapted cartesian basis functions of A   symmetry.
 There are   169 symmetry adapted basis functions of A   symmetry.
   169 basis functions,   327 primitive gaussians,   198 cartesian basis functions
    22 alpha electrons       22 beta electrons
       nuclear repulsion energy       119.6346069386 Hartrees.
 NAtoms=    4 NActive=    4 NUniq=    4 SFac= 1.00D+00 NAtFMM=   60 NAOKFM=F Big=F
 Integral buffers will be    131072 words long.
 Raffenetti 1 integral format.
 Two-electron integral symmetry is turned on.
 One-electron integrals computed using PRISM.
 NBasis=   169 RedAO= T EigKep=  2.48D-04  NBF=   169
 NBsUse=   169 1.00D-06 EigRej= -1.00D+00 NBFU=   169
 ExpMin= 2.53D-02 ExpMax= 4.56D+05 ExpMxC= 1.44D+03 IAcc=3 IRadAn=         5 AccDes= 0.00D+00
 Harris functional with IExCor=  205 and IRadAn=       5 diagonalized for initial guess.
 HarFok:  IExCor=  205 AccDes= 0.00D+00 IRadAn=         5 IDoV= 1 UseB2=F ITyADJ=14
 ICtDFT=  3500011 ScaDFX=  1.000000  1.000000  1.000000  1.000000
 FoFCou: FMM=F IPFlag=           0 FMFlag=      100000 FMFlg1=           0
         NFxFlg=           0 DoJE=T BraDBF=F KetDBF=T FulRan=T
         wScrn=  0.000000 ICntrl=       500 IOpCl=  0 I1Cent=   200000004 NGrid=           0
         NMat0=    1 NMatS0=      1 NMatT0=    0 NMatD0=    1 NMtDS0=    0 NMtDT0=    0
 Petite list used in FoFCou.
 Keep R1 ints in memory in canonical form, NReq=117119067.
 Requested convergence on RMS density matrix=1.00D-08 within 128 cycles.
 Requested convergence on MAX density matrix=1.00D-06.
 Requested convergence on             energy=1.00D-06.
 No special actions if energy rises.
 SCF Done:  E(RHF) =  -994.522425408     A.U. after   13 cycles
            NFock= 13  Conv=0.45D-08     -V/T= 2.0002
 ExpMin= 2.53D-02 ExpMax= 4.56D+05 ExpMxC= 1.44D+03 IAcc=3 IRadAn=         5 AccDes= 0.00D+00
 HarFok:  IExCor=  205 AccDes= 0.00D+00 IRadAn=         5 IDoV=-2 UseB2=F ITyADJ=14
 ICtDFT= 12500011 ScaDFX=  1.000000  1.000000  1.000000  1.000000
 Range of M.O.s used for correlation:    12   169
 NBasis=   169 NAE=    22 NBE=    22 NFC=    11 NFV=     0
 NROrb=    158 NOA=    11 NOB=    11 NVA=   147 NVB=   147

 **** Warning!!: The largest alpha MO coefficient is  0.19311367D+02

 Fully direct method using O(ONN) memory.
 JobTyp=1 Pass  1:  I=  12 to  22 NPSUse= 28 ParTrn=T ParDer=T DoDerP=T.
 Spin components of T(2) and E(2):
     alpha-alpha T2 =       0.2959943874D-01 E2=     -0.8436406265D-01
     alpha-beta  T2 =       0.1616650946D+00 E2=     -0.5004190545D+00
     beta-beta   T2 =       0.2959943874D-01 E2=     -0.8436406265D-01
 ANorm=    0.1104927134D+01
 E2 =    -0.6691471798D+00 EUMP2 =    -0.99519157258814D+03
          IDoAtm=1111
          Differentiating once with respect to electric field.
                with respect to dipole field.
          Differentiating once with respect to nuclear coordinates.
 Keep R1 ints in memory in canonical form, NReq=117122831.
          There are     1 degrees of freedom in the 1st order CPHF.  IDoFFX=0 NUNeed=     1.
 LinEq1:  Iter=  0 NonCon=     1 RMS=3.18D-03 Max=4.52D-02 NDo=     1
 AX will form     1 AO Fock derivatives at one time.
 LinEq1:  Iter=  1 NonCon=     1 RMS=4.16D-04 Max=5.65D-03 NDo=     1
 LinEq1:  Iter=  2 NonCon=     1 RMS=2.10D-04 Max=5.71D-03 NDo=     1
 LinEq1:  Iter=  3 NonCon=     1 RMS=8.45D-05 Max=1.21D-03 NDo=     1
 LinEq1:  Iter=  4 NonCon=     1 RMS=3.19D-05 Max=7.24D-04 NDo=     1
 LinEq1:  Iter=  5 NonCon=     1 RMS=6.50D-06 Max=7.74D-05 NDo=     1
 LinEq1:  Iter=  6 NonCon=     1 RMS=1.68D-06 Max=1.92D-05 NDo=     1
 LinEq1:  Iter=  7 NonCon=     1 RMS=3.67D-07 Max=4.44D-06 NDo=     1
 LinEq1:  Iter=  8 NonCon=     1 RMS=6.96D-08 Max=1.05D-06 NDo=     1
 LinEq1:  Iter=  9 NonCon=     1 RMS=1.91D-08 Max=3.29D-07 NDo=     1
 LinEq1:  Iter= 10 NonCon=     1 RMS=6.39D-09 Max=1.35D-07 NDo=     1
 LinEq1:  Iter= 11 NonCon=     1 RMS=1.82D-09 Max=2.95D-08 NDo=     1
 LinEq1:  Iter= 12 NonCon=     1 RMS=3.35D-10 Max=4.93D-09 NDo=     1
 LinEq1:  Iter= 13 NonCon=     0 RMS=5.88D-11 Max=8.98D-10 NDo=     1
 Linear equations converged to 1.000D-10 1.000D-09 after    13 iterations.
 End of Minotr F.D. properties file   721 does not exist.
 End of Minotr F.D. properties file   722 does not exist.
 End of Minotr F.D. properties file   788 does not exist.

 **********************************************************************

            Population analysis using the SCF Density.

 **********************************************************************

 Orbital symmetries:
       Occupied  (A) (A) (A) (A) (A) (A) (A) (A) (A) (A) (A) (A)
                 (A) (A) (A) (A) (A) (A) (A) (A) (A) (A)
       Virtual   (A) (A) (A) (A) (A) (A) (A) (A) (A) (A) (A) (A)
                 (A) (A) (A) (A) (A) (A) (A) (A) (A) (A) (A) (A)
                 (A) (A) (A) (A) (A) (A) (A) (A) (A) (A) (A) (A)
                 (A) (A) (A) (A) (A) (A) (A) (A) (A) (A) (A) (A)
                 (A) (A) (A) (A) (A) (A) (A) (A) (A) (A) (A) (A)
                 (A) (A) (A) (A) (A) (A) (A) (A) (A) (A) (A) (A)
                 (A) (A) (A) (A) (A) (A) (A) (A) (A) (A) (A) (A)
                 (A) (A) (A) (A) (A) (A) (A) (A) (A) (A) (A) (A)
                 (A) (A) (A) (A) (A) (A) (A) (A) (A) (A) (A) (A)
                 (A) (A) (A) (A) (A) (A) (A) (A) (A) (A) (A) (A)
                 (A) (A) (A) (A) (A) (A) (A) (A) (A) (A) (A) (A)
                 (A) (A) (A) (A) (A) (A) (A) (A) (A) (A) (A) (A)
                 (A) (A) (A)
 The electronic state is 1-A.
 Alpha  occ. eigenvalues -- -104.72514-104.54999 -20.45634 -10.44441 -10.27478
 Alpha  occ. eigenvalues --   -7.91147  -7.90900  -7.90892  -7.74094  -7.74077
 Alpha  occ. eigenvalues --   -7.74077  -1.20654  -0.89122  -0.78911  -0.52431
 Alpha  occ. eigenvalues --   -0.42835  -0.41711  -0.30545  -0.27869  -0.20582
 Alpha  occ. eigenvalues --   -0.19750  -0.19742
 Alpha virt. eigenvalues --    0.16062   0.18476   0.22654   0.23392   0.25613
 Alpha virt. eigenvalues --    0.27142   0.27466   0.28549   0.31037   0.32794
 Alpha virt. eigenvalues --    0.33617   0.34951   0.38542   0.44932   0.46005
 Alpha virt. eigenvalues --    0.50664   0.52712   0.54082   0.56314   0.56462
 Alpha virt. eigenvalues --    0.58103   0.59427   0.60295   0.64700   0.65611
 Alpha virt. eigenvalues --    0.68367   0.68752   0.75590   0.77996   0.78629
 Alpha virt. eigenvalues --    0.83711   0.87710   0.88193   0.90405   0.91220
 Alpha virt. eigenvalues --    0.92012   0.96779   1.00432   1.04307   1.06011
 Alpha virt. eigenvalues --    1.07081   1.08715   1.09414   1.09831   1.13064
 Alpha virt. eigenvalues --    1.13518   1.16740   1.18282   1.18304   1.21208
 Alpha virt. eigenvalues --    1.21475   1.23962   1.29474   1.31769   1.33031
 Alpha virt. eigenvalues --    1.36580   1.39676   1.42527   1.42778   1.45173
 Alpha virt. eigenvalues --    1.47211   1.49633   1.54400   1.60308   1.64958
 Alpha virt. eigenvalues --    1.67242   1.68334   1.71946   1.74136   1.79355
 Alpha virt. eigenvalues --    1.80689   1.83809   1.85041   1.91251   1.94911
 Alpha virt. eigenvalues --    1.99440   2.29132   2.38488   2.49479   2.50496
 Alpha virt. eigenvalues --    2.53171   2.59144   2.59963   2.61495   2.66609
 Alpha virt. eigenvalues --    2.68591   2.71206   2.72385   2.73583   2.76349
 Alpha virt. eigenvalues --    2.76681   2.79757   2.80084   2.82001   2.89620
 Alpha virt. eigenvalues --    2.91660   2.97764   2.98401   3.05419   3.08394
 Alpha virt. eigenvalues --    3.13816   3.14810   3.18985   3.20911   3.22138
 Alpha virt. eigenvalues --    3.26676   3.29935   3.32404   3.33059   3.33429
 Alpha virt. eigenvalues --    3.40057   3.40101   3.41050   3.47516   3.50407
 Alpha virt. eigenvalues --    3.51554   3.53484   3.56445   3.69040   3.98310
 Alpha virt. eigenvalues --    4.25959   4.30454   4.45606   4.53749   4.59148
 Alpha virt. eigenvalues --    4.78141   4.95826   5.15010   5.34868   5.36765
 Alpha virt. eigenvalues --    5.62149   6.37517   6.52228   6.68921   6.85818
 Alpha virt. eigenvalues --    6.90775   6.91995   6.99554   7.25812   7.30909
 Alpha virt. eigenvalues --    7.33519   7.44224   7.56393   7.76206   7.80659
 Alpha virt. eigenvalues --    8.33301  14.38429
          Condensed to atoms (all electrons):
               1          2          3          4
     1  O    8.381020   0.212641   0.005590  -0.080889
     2  H    0.212641   0.376740  -0.012314   0.065320
     3  Cl   0.005590  -0.012314  16.973060   0.003536
     4  Cl  -0.080889   0.065320   0.003536  17.881412
 Mulliken charges:
               1
     1  O   -0.518362
     2  H    0.357612
     3  Cl   0.030128
     4  Cl  -0.869378
 Sum of Mulliken charges =  -1.00000
 Mulliken charges with hydrogens summed into heavy atoms:
               1
     1  O   -0.160750
     3  Cl   0.030128
     4  Cl  -0.869378
 Electronic spatial extent (au):  <R**2>=            584.0224
 Charge=             -1.0000 electrons
 Dipole moment (field-independent basis, Debye):
    X=              5.4661    Y=             -0.2070    Z=              0.0000  Tot=              5.4700
 Quadrupole moment (field-independent basis, Debye-Ang):
   XX=            -55.2492   YY=            -36.9602   ZZ=            -36.0992
   XY=             -2.6931   XZ=             -0.0000   YZ=              0.0000
 Traceless Quadrupole moment (field-independent basis, Debye-Ang):
   XX=            -12.4797   YY=              5.8093   ZZ=              6.6703
   XY=             -2.6931   XZ=             -0.0000   YZ=              0.0000
 Octapole moment (field-independent basis, Debye-Ang**2):
  XXX=             47.1542  YYY=              0.7291  ZZZ=             -0.0000  XYY=              6.0243
  XXY=              0.9597  XXZ=             -0.0001  XZZ=              5.4526  YZZ=              1.1951
  YYZ=             -0.0000  XYZ=             -0.0000
 Hexadecapole moment (field-independent basis, Debye-Ang**3):
 XXXX=           -777.8223 YYYY=            -92.2505 ZZZZ=            -46.4392 XXXY=            -10.6819
 XXXZ=              0.0002 YYYX=             -6.1423 YYYZ=             -0.0000 ZZZX=              0.0000
 ZZZY=              0.0000 XXYY=           -129.3472 XXZZ=           -128.1293 YYZZ=            -23.5886
 XXYZ=              0.0000 YYXZ=             -0.0000 ZZXY=             -0.0047
 N-N= 1.196346069386D+02 E-N=-2.616923394369D+03  KE= 9.942974228287D+02
 Calling FoFJK, ICntrl=  10002127 FMM=F ISym2X=0 I1Cent= 0 IOpClX= 0 NMat=1 NMatS=1 NMatT=0.
 ***** Axes restored to original set *****
 -------------------------------------------------------------------
 Center     Atomic                   Forces (Hartrees/Bohr)
 Number     Number              X              Y              Z
 -------------------------------------------------------------------
      1        8           0.014877515    0.000000852   -0.001695572
      2        1           0.000676183   -0.000001462   -0.001122316
      3       17          -0.015789327    0.000000044    0.004399003
      4       17           0.000235630    0.000000566   -0.001581115
 -------------------------------------------------------------------
 Cartesian Forces:  Max     0.015789327 RMS     0.006436496
 -----------------------------------------------------------------------------------------------
                       Internal Coordinate Forces (Hartree/Bohr or radian)
  Cent   Atom   N1       Length/X         N2         Alpha/Y        N3         Beta/Z          J
 -----------------------------------------------------------------------------------------------
      1  O 
      2  H        1  -0.001122(     1)
      3  Cl       1  -0.016378(     2)      2  -0.001316(     4)
      4  Cl       1  -0.001592(     3)      3  -0.000806(     5)      2   0.000003(     6)     0
 -----------------------------------------------------------------------------------------------
 Internal  Forces:  Max     0.016377684 RMS     0.006762666

 GradGradGradGradGradGradGradGradGradGradGradGradGradGradGradGradGradGrad
 Berny optimization.
 Search for a local minimum.
 Step number   1 out of a maximum of   20
 All quantities printed in internal units (Hartrees-Bohrs-Radians)
 Second derivative matrix not updated -- first step.
 The second derivative matrix:
                          r1        r2        r3        a1        a2
           r1           0.42856
           r2          -0.00000   0.33521
           r3           0.00000  -0.00000   0.02686
           a1           0.00000  -0.00000  -0.00000   0.32000
           a2          -0.00000   0.00000   0.00000  -0.16000   0.41000
           d1           0.00000  -0.00000  -0.00000   0.00008  -0.00008
                          d1
           d1           0.04135
 ITU=  0
     Eigenvalues ---    0.02686   0.04135   0.19879   0.33521   0.42856
     Eigenvalues ---    0.53121
 RFO step:  Lambda=-9.04093413D-04 EMin= 2.68576875D-02
 Linear search not attempted -- first point.
 Variable       Old X    -DE/DX   Delta X   Delta X   Delta X     New X
                                 (Linear)    (Quad)   (Total)
    r1        1.94547  -0.00112   0.00000  -0.00261  -0.00261   1.94286
    r2        3.25146  -0.01638   0.00000  -0.04873  -0.04873   3.20274
    r3        5.53369  -0.00159   0.00000  -0.05734  -0.05734   5.47634
    a1        1.80270  -0.00132   0.00000  -0.00630  -0.00630   1.79640
    a2        1.85945  -0.00081   0.00000  -0.00441  -0.00441   1.85504
    d1       -0.00003   0.00000   0.00000   0.00007   0.00007   0.00004
         Item               Value     Threshold  Converged?
 Maximum Force            0.016378     0.000015     NO 
 RMS     Force            0.006763     0.000010     NO 
 Maximum Displacement     0.057343     0.000060     NO 
 RMS     Displacement     0.030899     0.000040     NO 
 Predicted change in Energy=-4.546362D-04
 GradGradGradGradGradGradGradGradGradGradGradGradGradGradGradGradGradGrad

 ---------------------------------------------------------------------------------------------------
                            Z-MATRIX (ANGSTROMS AND DEGREES)
   CD    Cent   Atom    N1       Length/X        N2       Alpha/Y        N3        Beta/Z          J
 ---------------------------------------------------------------------------------------------------
      1      1  O 
      2      2  H        1   1.028117(     1)
      3      3  Cl       1   1.694815(     2)      2  102.926(     4)
      4      4  Cl       1   2.897956(     3)      3  106.286(     5)      2    0.002(     6)      0
 ---------------------------------------------------------------------------------------------------
                         Z-Matrix orientation:                         
 ---------------------------------------------------------------------
 Center     Atomic      Atomic             Coordinates (Angstroms)
 Number     Number       Type             X           Y           Z
 ---------------------------------------------------------------------
      1          8           0        0.000000    0.000000    0.000000
      2          1           0        0.000000    0.000000    1.028117
      3         17           0        1.651866    0.000000   -0.379124
      4         17           0       -0.169837    0.000109    2.892975
 ---------------------------------------------------------------------
                    Distance matrix (angstroms):
                    1          2          3          4
     1  O    0.000000
     2  H    1.028117   0.000000
     3  Cl   1.694815   2.170021   0.000000
     4  Cl   2.897956   1.872575   3.745028   0.000000
 Stoichiometry    Cl2HO(1-)
 Framework group  C1[X(Cl2HO)]
 Deg. of freedom     6
 Full point group                 C1      NOp   1
 Largest Abelian subgroup         C1      NOp   1
 Largest concise Abelian subgroup C1      NOp   1
                         Standard orientation:                         
 ---------------------------------------------------------------------
 Center     Atomic      Atomic             Coordinates (Angstroms)
 Number     Number       Type             X           Y           Z
 ---------------------------------------------------------------------
      1          8           0        0.655756    0.974226    0.000003
      2          1           0       -0.267313    0.521490   -0.000037
      3         17           0        1.723549   -0.341911    0.000000
      4         17           0       -2.016415   -0.147224    0.000001
 ---------------------------------------------------------------------
 Rotational constants (GHZ):          24.9083914           1.9974646           1.8491747
 Standard basis: Aug-CC-pVTZ (5D, 7F)
 There are   198 symmetry adapted cartesian basis functions of A   symmetry.
 There are   169 symmetry adapted basis functions of A   symmetry.
   169 basis functions,   327 primitive gaussians,   198 cartesian basis functions
    22 alpha electrons       22 beta electrons
       nuclear repulsion energy       121.2011730115 Hartrees.
 NAtoms=    4 NActive=    4 NUniq=    4 SFac= 1.00D+00 NAtFMM=   60 NAOKFM=F Big=F
 Integral buffers will be    131072 words long.
 Raffenetti 1 integral format.
 Two-electron integral symmetry is turned on.
 One-electron integrals computed using PRISM.
 NBasis=   169 RedAO= T EigKep=  2.42D-04  NBF=   169
 NBsUse=   169 1.00D-06 EigRej= -1.00D+00 NBFU=   169
 Initial guess from the checkpoint file:  "/gscratch/ilahie/abmccoy/hocl/cl_hocl_tz.chk"
 B after Tr=    -0.000000   -0.000000    0.000000
         Rot=    1.000000    0.000000   -0.000000    0.000511 Ang=   0.06 deg.
 ExpMin= 2.53D-02 ExpMax= 4.56D+05 ExpMxC= 1.44D+03 IAcc=3 IRadAn=         5 AccDes= 0.00D+00
 Harris functional with IExCor=  205 and IRadAn=       5 diagonalized for initial guess.
 HarFok:  IExCor=  205 AccDes= 0.00D+00 IRadAn=         5 IDoV= 1 UseB2=F ITyADJ=14
 ICtDFT=  3500011 ScaDFX=  1.000000  1.000000  1.000000  1.000000
 FoFCou: FMM=F IPFlag=           0 FMFlag=      100000 FMFlg1=           0
         NFxFlg=           0 DoJE=T BraDBF=F KetDBF=T FulRan=T
         wScrn=  0.000000 ICntrl=       500 IOpCl=  0 I1Cent=   200000004 NGrid=           0
         NMat0=    1 NMatS0=      1 NMatT0=    0 NMatD0=    1 NMtDS0=    0 NMtDT0=    0
 Petite list used in FoFCou.
 Keep R1 ints in memory in canonical form, NReq=117119551.
 Requested convergence on RMS density matrix=1.00D-08 within 128 cycles.
 Requested convergence on MAX density matrix=1.00D-06.
 Requested convergence on             energy=1.00D-06.
 No special actions if energy rises.
 SCF Done:  E(RHF) =  -994.523445810     A.U. after   11 cycles
            NFock= 11  Conv=0.39D-08     -V/T= 2.0002
 ExpMin= 2.53D-02 ExpMax= 4.56D+05 ExpMxC= 1.44D+03 IAcc=3 IRadAn=         5 AccDes= 0.00D+00
 HarFok:  IExCor=  205 AccDes= 0.00D+00 IRadAn=         5 IDoV=-2 UseB2=F ITyADJ=14
 ICtDFT= 12500011 ScaDFX=  1.000000  1.000000  1.000000  1.000000
 Range of M.O.s used for correlation:    12   169
 NBasis=   169 NAE=    22 NBE=    22 NFC=    11 NFV=     0
 NROrb=    158 NOA=    11 NOB=    11 NVA=   147 NVB=   147

 **** Warning!!: The largest alpha MO coefficient is  0.20031400D+02

 Fully direct method using O(ONN) memory.
 JobTyp=1 Pass  1:  I=  12 to  22 NPSUse= 28 ParTrn=T ParDer=T DoDerP=T.
 Spin components of T(2) and E(2):
     alpha-alpha T2 =       0.2948407414D-01 E2=     -0.8447174681D-01
     alpha-beta  T2 =       0.1603464312D+00 E2=     -0.4997427644D+00
     beta-beta   T2 =       0.2948407414D-01 E2=     -0.8447174681D-01
 ANorm=    0.1104225783D+01
 E2 =    -0.6686862580D+00 EUMP2 =    -0.99519213206804D+03
          IDoAtm=1111
          Differentiating once with respect to electric field.
                with respect to dipole field.
          Differentiating once with respect to nuclear coordinates.
 Keep R1 ints in memory in canonical form, NReq=117123403.
          There are     1 degrees of freedom in the 1st order CPHF.  IDoFFX=0 NUNeed=     1.
 LinEq1:  Iter=  0 NonCon=     1 RMS=3.13D-03 Max=4.39D-02 NDo=     1
 AX will form     1 AO Fock derivatives at one time.
 LinEq1:  Iter=  1 NonCon=     1 RMS=3.99D-04 Max=5.59D-03 NDo=     1
 LinEq1:  Iter=  2 NonCon=     1 RMS=1.78D-04 Max=4.24D-03 NDo=     1
 LinEq1:  Iter=  3 NonCon=     1 RMS=7.09D-05 Max=1.06D-03 NDo=     1
 LinEq1:  Iter=  4 NonCon=     1 RMS=2.88D-05 Max=7.11D-04 NDo=     1
 LinEq1:  Iter=  5 NonCon=     1 RMS=6.12D-06 Max=7.25D-05 NDo=     1
 LinEq1:  Iter=  6 NonCon=     1 RMS=1.58D-06 Max=1.92D-05 NDo=     1
 LinEq1:  Iter=  7 NonCon=     1 RMS=3.35D-07 Max=3.92D-06 NDo=     1
 LinEq1:  Iter=  8 NonCon=     1 RMS=5.85D-08 Max=7.81D-07 NDo=     1
 LinEq1:  Iter=  9 NonCon=     1 RMS=1.51D-08 Max=2.17D-07 NDo=     1
 LinEq1:  Iter= 10 NonCon=     1 RMS=4.60D-09 Max=8.71D-08 NDo=     1
 LinEq1:  Iter= 11 NonCon=     1 RMS=1.45D-09 Max=3.47D-08 NDo=     1
 LinEq1:  Iter= 12 NonCon=     1 RMS=2.97D-10 Max=4.56D-09 NDo=     1
 LinEq1:  Iter= 13 NonCon=     0 RMS=5.50D-11 Max=6.63D-10 NDo=     1
 Linear equations converged to 1.000D-10 1.000D-09 after    13 iterations.
 End of Minotr F.D. properties file   721 does not exist.
 End of Minotr F.D. properties file   722 does not exist.
 End of Minotr F.D. properties file   788 does not exist.
 Calling FoFJK, ICntrl=  10002127 FMM=F ISym2X=0 I1Cent= 0 IOpClX= 0 NMat=1 NMatS=1 NMatT=0.
 ***** Axes restored to original set *****
 -------------------------------------------------------------------
 Center     Atomic                   Forces (Hartrees/Bohr)
 Number     Number              X              Y              Z
 -------------------------------------------------------------------
      1        8           0.005881952   -0.000001192   -0.001175034
      2        1          -0.001396006    0.000001927    0.000206043
      3       17          -0.004704376   -0.000000055    0.000628379
      4       17           0.000218429   -0.000000679    0.000340611
 -------------------------------------------------------------------
 Cartesian Forces:  Max     0.005881952 RMS     0.002248316
 -----------------------------------------------------------------------------------------------
                       Internal Coordinate Forces (Hartree/Bohr or radian)
  Cent   Atom   N1       Length/X         N2         Alpha/Y        N3         Beta/Z          J
 -----------------------------------------------------------------------------------------------
      1  O 
      2  H        1   0.000206(     1)
      3  Cl       1  -0.004726(     2)      2   0.002712(     4)
      4  Cl       1   0.000327(     3)      3  -0.001303(     5)      2  -0.000004(     6)     0
 -----------------------------------------------------------------------------------------------
 Internal  Forces:  Max     0.004725728 RMS     0.002292661

 GradGradGradGradGradGradGradGradGradGradGradGradGradGradGradGradGradGrad
 Berny optimization.
 Search for a local minimum.
 Step number   2 out of a maximum of   20
 All quantities printed in internal units (Hartrees-Bohrs-Radians)
 Update second derivatives using D2CorN and points    1    2
 DE= -5.59D-04 DEPred=-4.55D-04 R= 1.23D+00
 TightC=F SS=  1.41D+00  RLast= 7.57D-02 DXNew= 5.0454D-01 2.2706D-01
 Trust test= 1.23D+00 RLast= 7.57D-02 DXMaxT set to 3.00D-01
 The second derivative matrix:
                          r1        r2        r3        a1        a2
           r1           0.42866
           r2          -0.00018   0.29539
           r3           0.00113  -0.02182   0.03065
           a1           0.00073   0.00899   0.01381   0.32299
           a2          -0.00022  -0.00733  -0.00636  -0.15967   0.40900
           d1          -0.00000   0.00001  -0.00002   0.00006  -0.00007
                          d1
           d1           0.04135
 ITU=  1  0
     Eigenvalues ---    0.02815   0.04135   0.20090   0.29678   0.42866
     Eigenvalues ---    0.53220
 RFO step:  Lambda=-7.17914254D-05 EMin= 2.81464838D-02
 Quartic linear search produced a step of  0.26161.
 Variable       Old X    -DE/DX   Delta X   Delta X   Delta X     New X
                                 (Linear)    (Quad)   (Total)
    r1        1.94286   0.00021  -0.00068   0.00122   0.00054   1.94340
    r2        3.20274  -0.00473  -0.01275  -0.00375  -0.01649   3.18624
    r3        5.47634   0.00033  -0.01500   0.02442   0.00942   5.48576
    a1        1.79640   0.00271  -0.00165   0.01140   0.00976   1.80616
    a2        1.85504  -0.00130  -0.00115   0.00129   0.00013   1.85517
    d1        0.00004  -0.00000   0.00002  -0.00013  -0.00012  -0.00008
         Item               Value     Threshold  Converged?
 Maximum Force            0.004726     0.000015     NO 
 RMS     Force            0.002293     0.000010     NO 
 Maximum Displacement     0.016494     0.000060     NO 
 RMS     Displacement     0.008721     0.000040     NO 
 Predicted change in Energy=-4.742507D-05
 GradGradGradGradGradGradGradGradGradGradGradGradGradGradGradGradGradGrad

 ---------------------------------------------------------------------------------------------------
                            Z-MATRIX (ANGSTROMS AND DEGREES)
   CD    Cent   Atom    N1       Length/X        N2       Alpha/Y        N3        Beta/Z          J
 ---------------------------------------------------------------------------------------------------
      1      1  O 
      2      2  H        1   1.028402(     1)
      3      3  Cl       1   1.686087(     2)      2  103.485(     4)
      4      4  Cl       1   2.902941(     3)      3  106.294(     5)      2   -0.004(     6)      0
 ---------------------------------------------------------------------------------------------------
                         Z-Matrix orientation:                         
 ---------------------------------------------------------------------
 Center     Atomic      Atomic             Coordinates (Angstroms)
 Number     Number       Type             X           Y           Z
 ---------------------------------------------------------------------
      1          8           0        0.000000    0.000000    0.000000
      2          1           0        0.000000    0.000000    1.028402
      3         17           0        1.639602    0.000000   -0.393185
      4         17           0       -0.142238   -0.000213    2.899454
 ---------------------------------------------------------------------
                    Distance matrix (angstroms):
                    1          2          3          4
     1  O    0.000000
     2  H    1.028402   0.000000
     3  Cl   1.686087   2.170070   0.000000
     4  Cl   2.902941   1.876450   3.743851   0.000000
 Stoichiometry    Cl2HO(1-)
 Framework group  C1[X(Cl2HO)]
 Deg. of freedom     6
 Full point group                 C1      NOp   1
 Largest Abelian subgroup         C1      NOp   1
 Largest concise Abelian subgroup C1      NOp   1
                         Standard orientation:                         
 ---------------------------------------------------------------------
 Center     Atomic      Atomic             Coordinates (Angstroms)
 Number     Number       Type             X           Y           Z
 ---------------------------------------------------------------------
      1          8           0        0.662419    0.970255   -0.000006
      2          1           0       -0.266421    0.528817    0.000073
      3         17           0        1.721332   -0.341839   -0.000000
      4         17           0       -2.017387   -0.145858   -0.000002
 ---------------------------------------------------------------------
 Rotational constants (GHZ):          25.0709906           1.9973858           1.8499979
 Standard basis: Aug-CC-pVTZ (5D, 7F)
 There are   198 symmetry adapted cartesian basis functions of A   symmetry.
 There are   169 symmetry adapted basis functions of A   symmetry.
   169 basis functions,   327 primitive gaussians,   198 cartesian basis functions
    22 alpha electrons       22 beta electrons
       nuclear repulsion energy       121.3800163336 Hartrees.
 NAtoms=    4 NActive=    4 NUniq=    4 SFac= 1.00D+00 NAtFMM=   60 NAOKFM=F Big=F
 Integral buffers will be    131072 words long.
 Raffenetti 1 integral format.
 Two-electron integral symmetry is turned on.
 One-electron integrals computed using PRISM.
 NBasis=   169 RedAO= T EigKep=  2.41D-04  NBF=   169
 NBsUse=   169 1.00D-06 EigRej= -1.00D+00 NBFU=   169
 Initial guess from the checkpoint file:  "/gscratch/ilahie/abmccoy/hocl/cl_hocl_tz.chk"
 B after Tr=     0.000000    0.000000   -0.000000
         Rot=    1.000000    0.000000    0.000000    0.000507 Ang=   0.06 deg.
 Keep R1 ints in memory in canonical form, NReq=117119463.
 Requested convergence on RMS density matrix=1.00D-08 within 128 cycles.
 Requested convergence on MAX density matrix=1.00D-06.
 Requested convergence on             energy=1.00D-06.
 No special actions if energy rises.
 SCF Done:  E(RHF) =  -994.523919954     A.U. after    9 cycles
            NFock=  9  Conv=0.73D-08     -V/T= 2.0002
 ExpMin= 2.53D-02 ExpMax= 4.56D+05 ExpMxC= 1.44D+03 IAcc=3 IRadAn=         5 AccDes= 0.00D+00
 HarFok:  IExCor=  205 AccDes= 0.00D+00 IRadAn=         5 IDoV=-2 UseB2=F ITyADJ=14
 ICtDFT= 12500011 ScaDFX=  1.000000  1.000000  1.000000  1.000000
 Range of M.O.s used for correlation:    12   169
 NBasis=   169 NAE=    22 NBE=    22 NFC=    11 NFV=     0
 NROrb=    158 NOA=    11 NOB=    11 NVA=   147 NVB=   147

 **** Warning!!: The largest alpha MO coefficient is  0.20100629D+02

 Fully direct method using O(ONN) memory.
 JobTyp=1 Pass  1:  I=  12 to  22 NPSUse= 28 ParTrn=T ParDer=T DoDerP=T.
 Spin components of T(2) and E(2):
     alpha-alpha T2 =       0.2942454262D-01 E2=     -0.8444324851D-01
     alpha-beta  T2 =       0.1599044230D+00 E2=     -0.4993925135D+00
     beta-beta   T2 =       0.2942454262D-01 E2=     -0.8444324851D-01
 ANorm=    0.1103971697D+01
 E2 =    -0.6682790105D+00 EUMP2 =    -0.99519219896453D+03
          IDoAtm=1111
          Differentiating once with respect to electric field.
                with respect to dipole field.
          Differentiating once with respect to nuclear coordinates.
 Keep R1 ints in memory in canonical form, NReq=117123359.
          There are     1 degrees of freedom in the 1st order CPHF.  IDoFFX=0 NUNeed=     1.
 LinEq1:  Iter=  0 NonCon=     1 RMS=3.11D-03 Max=4.35D-02 NDo=     1
 AX will form     1 AO Fock derivatives at one time.
 LinEq1:  Iter=  1 NonCon=     1 RMS=3.92D-04 Max=5.35D-03 NDo=     1
 LinEq1:  Iter=  2 NonCon=     1 RMS=1.67D-04 Max=3.67D-03 NDo=     1
 LinEq1:  Iter=  3 NonCon=     1 RMS=6.54D-05 Max=9.95D-04 NDo=     1
 LinEq1:  Iter=  4 NonCon=     1 RMS=2.72D-05 Max=6.88D-04 NDo=     1
 LinEq1:  Iter=  5 NonCon=     1 RMS=5.93D-06 Max=7.16D-05 NDo=     1
 LinEq1:  Iter=  6 NonCon=     1 RMS=1.54D-06 Max=1.84D-05 NDo=     1
 LinEq1:  Iter=  7 NonCon=     1 RMS=3.25D-07 Max=3.94D-06 NDo=     1
 LinEq1:  Iter=  8 NonCon=     1 RMS=5.57D-08 Max=7.39D-07 NDo=     1
 LinEq1:  Iter=  9 NonCon=     1 RMS=1.36D-08 Max=1.69D-07 NDo=     1
 LinEq1:  Iter= 10 NonCon=     1 RMS=3.62D-09 Max=5.26D-08 NDo=     1
 LinEq1:  Iter= 11 NonCon=     1 RMS=1.00D-09 Max=2.06D-08 NDo=     1
 LinEq1:  Iter= 12 NonCon=     1 RMS=2.43D-10 Max=5.08D-09 NDo=     1
 LinEq1:  Iter= 13 NonCon=     0 RMS=5.07D-11 Max=8.16D-10 NDo=     1
 Linear equations converged to 1.000D-10 1.000D-09 after    13 iterations.
 End of Minotr F.D. properties file   721 does not exist.
 End of Minotr F.D. properties file   722 does not exist.
 End of Minotr F.D. properties file   788 does not exist.
 Calling FoFJK, ICntrl=  10002127 FMM=F ISym2X=0 I1Cent= 0 IOpClX= 0 NMat=1 NMatS=1 NMatT=0.
 ***** Axes restored to original set *****
 -------------------------------------------------------------------
 Center     Atomic                   Forces (Hartrees/Bohr)
 Number     Number              X              Y              Z
 -------------------------------------------------------------------
      1        8           0.001411360    0.000002324   -0.000036387
      2        1          -0.000489678   -0.000003787   -0.000060910
      3       17          -0.001037743    0.000000102    0.000143066
      4       17           0.000116061    0.000001361   -0.000045770
 -------------------------------------------------------------------
 Cartesian Forces:  Max     0.001411360 RMS     0.000528340
 -----------------------------------------------------------------------------------------------
                       Internal Coordinate Forces (Hartree/Bohr or radian)
  Cent   Atom   N1       Length/X         N2         Alpha/Y        N3         Beta/Z          J
 -----------------------------------------------------------------------------------------------
      1  O 
      2  H        1  -0.000061(     1)
      3  Cl       1  -0.001042(     2)      2   0.000951(     4)
      4  Cl       1  -0.000051(     3)      3  -0.000624(     5)      2   0.000007(     6)     0
 -----------------------------------------------------------------------------------------------
 Internal  Forces:  Max     0.001042495 RMS     0.000630773

 GradGradGradGradGradGradGradGradGradGradGradGradGradGradGradGradGradGrad
 Berny optimization.
 Search for a local minimum.
 Step number   3 out of a maximum of   20
 All quantities printed in internal units (Hartrees-Bohrs-Radians)
 Update second derivatives using D2CorN and points    1    2    3
 DE= -6.69D-05 DEPred=-4.74D-05 R= 1.41D+00
 TightC=F SS=  1.41D+00  RLast= 2.14D-02 DXNew= 5.0454D-01 6.4083D-02
 Trust test= 1.41D+00 RLast= 2.14D-02 DXMaxT set to 3.00D-01
 The second derivative matrix:
                          r1        r2        r3        a1        a2
           r1           0.42871
           r2           0.00032   0.24112
           r3           0.00156  -0.00508   0.02866
           a1           0.00053   0.05292   0.00446   0.29613
           a2           0.00001  -0.02681  -0.00393  -0.15145   0.40832
           d1          -0.00001   0.00004   0.00001   0.00015  -0.00016
                          d1
           d1           0.04136
 ITU=  1  1  0
     Eigenvalues ---    0.02840   0.04136   0.17679   0.24551   0.42872
     Eigenvalues ---    0.52352
 RFO step:  Lambda=-1.94114717D-06 EMin= 2.83952245D-02
 Quartic linear search produced a step of  0.30990.
 Variable       Old X    -DE/DX   Delta X   Delta X   Delta X     New X
                                 (Linear)    (Quad)   (Total)
    r1        1.94340  -0.00006   0.00017  -0.00031  -0.00015   1.94325
    r2        3.18624  -0.00104  -0.00511   0.00005  -0.00506   3.18118
    r3        5.48576  -0.00005   0.00292  -0.00655  -0.00363   5.48213
    a1        1.80616   0.00095   0.00302   0.00107   0.00409   1.81025
    a2        1.85517  -0.00062   0.00004  -0.00067  -0.00063   1.85454
    d1       -0.00008   0.00001  -0.00004   0.00025   0.00022   0.00014
         Item               Value     Threshold  Converged?
 Maximum Force            0.001042     0.000015     NO 
 RMS     Force            0.000631     0.000010     NO 
 Maximum Displacement     0.005059     0.000060     NO 
 RMS     Displacement     0.003056     0.000040     NO 
 Predicted change in Energy=-4.874387D-06
 GradGradGradGradGradGradGradGradGradGradGradGradGradGradGradGradGradGrad

 ---------------------------------------------------------------------------------------------------
                            Z-MATRIX (ANGSTROMS AND DEGREES)
   CD    Cent   Atom    N1       Length/X        N2       Alpha/Y        N3        Beta/Z          J
 ---------------------------------------------------------------------------------------------------
      1      1  O 
      2      2  H        1   1.028324(     1)
      3      3  Cl       1   1.683410(     2)      2  103.720(     4)
      4      4  Cl       1   2.901017(     3)      3  106.257(     5)      2    0.008(     6)      0
 ---------------------------------------------------------------------------------------------------
                         Z-Matrix orientation:                         
 ---------------------------------------------------------------------
 Center     Atomic      Atomic             Coordinates (Angstroms)
 Number     Number       Type             X           Y           Z
 ---------------------------------------------------------------------
      1          8           0        0.000000    0.000000    0.000000
      2          1           0        0.000000    0.000000    1.028324
      3         17           0        1.635378    0.000000   -0.399260
      4         17           0       -0.128445    0.000392    2.898172
 ---------------------------------------------------------------------
                    Distance matrix (angstroms):
                    1          2          3          4
     1  O    0.000000
     2  H    1.028324   0.000000
     3  Cl   1.683410   2.170820   0.000000
     4  Cl   2.901017   1.874254   3.739537   0.000000
 Stoichiometry    Cl2HO(1-)
 Framework group  C1[X(Cl2HO)]
 Deg. of freedom     6
 Full point group                 C1      NOp   1
 Largest Abelian subgroup         C1      NOp   1
 Largest concise Abelian subgroup C1      NOp   1
                         Standard orientation:                         
 ---------------------------------------------------------------------
 Center     Atomic      Atomic             Coordinates (Angstroms)
 Number     Number       Type             X           Y           Z
 ---------------------------------------------------------------------
      1          8           0        0.662962    0.969159    0.000010
      2          1           0       -0.267977    0.532348   -0.000133
      3         17           0        1.719086   -0.341744    0.000000
      4         17           0       -2.015305   -0.145645    0.000003
 ---------------------------------------------------------------------
 Rotational constants (GHZ):          25.1142466           2.0017475           1.8539752
 Standard basis: Aug-CC-pVTZ (5D, 7F)
 There are   198 symmetry adapted cartesian basis functions of A   symmetry.
 There are   169 symmetry adapted basis functions of A   symmetry.
   169 basis functions,   327 primitive gaussians,   198 cartesian basis functions
    22 alpha electrons       22 beta electrons
       nuclear repulsion energy       121.5159563073 Hartrees.
 NAtoms=    4 NActive=    4 NUniq=    4 SFac= 1.00D+00 NAtFMM=   60 NAOKFM=F Big=F
 Integral buffers will be    131072 words long.
 Raffenetti 1 integral format.
 Two-electron integral symmetry is turned on.
 One-electron integrals computed using PRISM.
 NBasis=   169 RedAO= T EigKep=  2.40D-04  NBF=   169
 NBsUse=   169 1.00D-06 EigRej= -1.00D+00 NBFU=   169
 Initial guess from the checkpoint file:  "/gscratch/ilahie/abmccoy/hocl/cl_hocl_tz.chk"
 B after Tr=    -0.000000   -0.000000   -0.000000
         Rot=    1.000000   -0.000000   -0.000000    0.000085 Ang=  -0.01 deg.
 Keep R1 ints in memory in canonical form, NReq=117119463.
 Requested convergence on RMS density matrix=1.00D-08 within 128 cycles.
 Requested convergence on MAX density matrix=1.00D-06.
 Requested convergence on             energy=1.00D-06.
 No special actions if energy rises.
 SCF Done:  E(RHF) =  -994.524015015     A.U. after    9 cycles
            NFock=  9  Conv=0.44D-08     -V/T= 2.0002
 ExpMin= 2.53D-02 ExpMax= 4.56D+05 ExpMxC= 1.44D+03 IAcc=3 IRadAn=         5 AccDes= 0.00D+00
 HarFok:  IExCor=  205 AccDes= 0.00D+00 IRadAn=         5 IDoV=-2 UseB2=F ITyADJ=14
 ICtDFT= 12500011 ScaDFX=  1.000000  1.000000  1.000000  1.000000
 Range of M.O.s used for correlation:    12   169
 NBasis=   169 NAE=    22 NBE=    22 NFC=    11 NFV=     0
 NROrb=    158 NOA=    11 NOB=    11 NVA=   147 NVB=   147

 **** Warning!!: The largest alpha MO coefficient is  0.20162731D+02

 Fully direct method using O(ONN) memory.
 JobTyp=1 Pass  1:  I=  12 to  22 NPSUse= 28 ParTrn=T ParDer=T DoDerP=T.
 Spin components of T(2) and E(2):
     alpha-alpha T2 =       0.2940820699D-01 E2=     -0.8444484938D-01
     alpha-beta  T2 =       0.1597602401D+00 E2=     -0.4992990168D+00
     beta-beta   T2 =       0.2940820699D-01 E2=     -0.8444484938D-01
 ANorm=    0.1103891595D+01
 E2 =    -0.6681887156D+00 EUMP2 =    -0.99519220373066D+03
          IDoAtm=1111
          Differentiating once with respect to electric field.
                with respect to dipole field.
          Differentiating once with respect to nuclear coordinates.
 Keep R1 ints in memory in canonical form, NReq=117123491.
          There are     1 degrees of freedom in the 1st order CPHF.  IDoFFX=0 NUNeed=     1.
 LinEq1:  Iter=  0 NonCon=     1 RMS=3.11D-03 Max=4.34D-02 NDo=     1
 AX will form     1 AO Fock derivatives at one time.
 LinEq1:  Iter=  1 NonCon=     1 RMS=3.90D-04 Max=5.26D-03 NDo=     1
 LinEq1:  Iter=  2 NonCon=     1 RMS=1.64D-04 Max=3.49D-03 NDo=     1
 LinEq1:  Iter=  3 NonCon=     1 RMS=6.37D-05 Max=9.76D-04 NDo=     1
 LinEq1:  Iter=  4 NonCon=     1 RMS=2.68D-05 Max=6.79D-04 NDo=     1
 LinEq1:  Iter=  5 NonCon=     1 RMS=5.87D-06 Max=7.09D-05 NDo=     1
 LinEq1:  Iter=  6 NonCon=     1 RMS=1.53D-06 Max=1.81D-05 NDo=     1
 LinEq1:  Iter=  7 NonCon=     1 RMS=3.22D-07 Max=3.94D-06 NDo=     1
 LinEq1:  Iter=  8 NonCon=     1 RMS=5.52D-08 Max=7.33D-07 NDo=     1
 LinEq1:  Iter=  9 NonCon=     1 RMS=1.35D-08 Max=1.67D-07 NDo=     1
 LinEq1:  Iter= 10 NonCon=     1 RMS=3.56D-09 Max=5.17D-08 NDo=     1
 LinEq1:  Iter= 11 NonCon=     1 RMS=9.67D-10 Max=1.90D-08 NDo=     1
 LinEq1:  Iter= 12 NonCon=     1 RMS=2.35D-10 Max=4.94D-09 NDo=     1
 LinEq1:  Iter= 13 NonCon=     0 RMS=5.03D-11 Max=8.15D-10 NDo=     1
 Linear equations converged to 1.000D-10 1.000D-09 after    13 iterations.
 End of Minotr F.D. properties file   721 does not exist.
 End of Minotr F.D. properties file   722 does not exist.
 End of Minotr F.D. properties file   788 does not exist.
 Calling FoFJK, ICntrl=  10002127 FMM=F ISym2X=0 I1Cent= 0 IOpClX= 0 NMat=1 NMatS=1 NMatT=0.
 ***** Axes restored to original set *****
 -------------------------------------------------------------------
 Center     Atomic                   Forces (Hartrees/Bohr)
 Number     Number              X              Y              Z
 -------------------------------------------------------------------
      1        8          -0.000067487   -0.000004296   -0.000172925
      2        1          -0.000008574    0.000006971    0.000040853
      3       17           0.000041802   -0.000000186    0.000051469
      4       17           0.000034259   -0.000002488    0.000080603
 -------------------------------------------------------------------
 Cartesian Forces:  Max     0.000172925 RMS     0.000063469
 -----------------------------------------------------------------------------------------------
                       Internal Coordinate Forces (Hartree/Bohr or radian)
  Cent   Atom   N1       Length/X         N2         Alpha/Y        N3         Beta/Z          J
 -----------------------------------------------------------------------------------------------
      1  O 
      2  H        1   0.000041(     1)
      3  Cl       1   0.000028(     2)      2   0.000017(     4)
      4  Cl       1   0.000079(     3)      3  -0.000207(     5)      2  -0.000013(     6)     0
 -----------------------------------------------------------------------------------------------
 Internal  Forces:  Max     0.000207190 RMS     0.000093179

 GradGradGradGradGradGradGradGradGradGradGradGradGradGradGradGradGradGrad
 Berny optimization.
 Search for a local minimum.
 Step number   4 out of a maximum of   20
 All quantities printed in internal units (Hartrees-Bohrs-Radians)
 Update second derivatives using D2CorN and points    1    2    3    4
 DE= -4.77D-06 DEPred=-4.87D-06 R= 9.78D-01
 TightC=F SS=  1.41D+00  RLast= 7.49D-03 DXNew= 5.0454D-01 2.2457D-02
 Trust test= 9.78D-01 RLast= 7.49D-03 DXMaxT set to 3.00D-01
 The second derivative matrix:
                          r1        r2        r3        a1        a2
           r1           0.42882
           r2           0.00222   0.25731
           r3           0.00297   0.00188   0.03472
           a1          -0.00060   0.05653   0.00336   0.28617
           a2           0.00001  -0.04835  -0.01000  -0.13621   0.40498
           d1          -0.00008  -0.00065  -0.00042   0.00045   0.00027
                          d1
           d1           0.04140
 ITU=  1  1  1  0
     Eigenvalues ---    0.03440   0.04141   0.18868   0.24567   0.42886
     Eigenvalues ---    0.51436
 RFO step:  Lambda=-2.72503673D-07 EMin= 3.43999490D-02
 Quartic linear search produced a step of -0.02399.
 Variable       Old X    -DE/DX   Delta X   Delta X   Delta X     New X
                                 (Linear)    (Quad)   (Total)
    r1        1.94325   0.00004   0.00000   0.00008   0.00008   1.94333
    r2        3.18118   0.00003   0.00012  -0.00008   0.00004   3.18123
    r3        5.48213   0.00008   0.00009   0.00204   0.00212   5.48425
    a1        1.81025   0.00002  -0.00010  -0.00013  -0.00023   1.81003
    a2        1.85454  -0.00021   0.00002  -0.00054  -0.00052   1.85402
    d1        0.00014  -0.00001  -0.00001  -0.00028  -0.00029  -0.00015
         Item               Value     Threshold  Converged?
 Maximum Force            0.000207     0.000015     NO 
 RMS     Force            0.000093     0.000010     NO 
 Maximum Displacement     0.002123     0.000060     NO 
 RMS     Displacement     0.000906     0.000040     NO 
 Predicted change in Energy=-1.413942D-07
 GradGradGradGradGradGradGradGradGradGradGradGradGradGradGradGradGradGrad

 ---------------------------------------------------------------------------------------------------
                            Z-MATRIX (ANGSTROMS AND DEGREES)
   CD    Cent   Atom    N1       Length/X        N2       Alpha/Y        N3        Beta/Z          J
 ---------------------------------------------------------------------------------------------------
      1      1  O 
      2      2  H        1   1.028366(     1)
      3      3  Cl       1   1.683432(     2)      2  103.707(     4)
      4      4  Cl       1   2.902141(     3)      3  106.227(     5)      2   -0.008(     6)      0
 ---------------------------------------------------------------------------------------------------
                         Z-Matrix orientation:                         
 ---------------------------------------------------------------------
 Center     Atomic      Atomic             Coordinates (Angstroms)
 Number     Number       Type             X           Y           Z
 ---------------------------------------------------------------------
      1          8           0        0.000000    0.000000    0.000000
      2          1           0        0.000000    0.000000    1.028366
      3         17           0        1.635489    0.000000   -0.398897
      4         17           0       -0.127633   -0.000407    2.899333
 ---------------------------------------------------------------------
                    Distance matrix (angstroms):
                    1          2          3          4
     1  O    0.000000
     2  H    1.028366   0.000000
     3  Cl   1.683432   2.170692   0.000000
     4  Cl   2.902141   1.875315   3.739909   0.000000
 Stoichiometry    Cl2HO(1-)
 Framework group  C1[X(Cl2HO)]
 Deg. of freedom     6
 Full point group                 C1      NOp   1
 Largest Abelian subgroup         C1      NOp   1
 Largest concise Abelian subgroup C1      NOp   1
                         Standard orientation:                         
 ---------------------------------------------------------------------
 Center     Atomic      Atomic             Coordinates (Angstroms)
 Number     Number       Type             X           Y           Z
 ---------------------------------------------------------------------
      1          8           0        0.663679    0.969523   -0.000011
      2          1           0       -0.267444    0.533007    0.000138
      3         17           0        1.719081   -0.341992   -0.000000
      4         17           0       -2.015668   -0.145607   -0.000003
 ---------------------------------------------------------------------
 Rotational constants (GHZ):          25.0924287           2.0012284           1.8534110
 Standard basis: Aug-CC-pVTZ (5D, 7F)
 There are   198 symmetry adapted cartesian basis functions of A   symmetry.
 There are   169 symmetry adapted basis functions of A   symmetry.
   169 basis functions,   327 primitive gaussians,   198 cartesian basis functions
    22 alpha electrons       22 beta electrons
       nuclear repulsion energy       121.4990783365 Hartrees.
 NAtoms=    4 NActive=    4 NUniq=    4 SFac= 1.00D+00 NAtFMM=   60 NAOKFM=F Big=F
 Integral buffers will be    131072 words long.
 Raffenetti 1 integral format.
 Two-electron integral symmetry is turned on.
 One-electron integrals computed using PRISM.
 NBasis=   169 RedAO= T EigKep=  2.40D-04  NBF=   169
 NBsUse=   169 1.00D-06 EigRej= -1.00D+00 NBFU=   169
 Initial guess from the checkpoint file:  "/gscratch/ilahie/abmccoy/hocl/cl_hocl_tz.chk"
 B after Tr=     0.000000    0.000000    0.000000
         Rot=    1.000000    0.000000   -0.000000    0.000051 Ang=   0.01 deg.
 Keep R1 ints in memory in canonical form, NReq=117119463.
 Requested convergence on RMS density matrix=1.00D-08 within 128 cycles.
 Requested convergence on MAX density matrix=1.00D-06.
 Requested convergence on             energy=1.00D-06.
 No special actions if energy rises.
 SCF Done:  E(RHF) =  -994.524025861     A.U. after    7 cycles
            NFock=  7  Conv=0.85D-08     -V/T= 2.0002
 ExpMin= 2.53D-02 ExpMax= 4.56D+05 ExpMxC= 1.44D+03 IAcc=3 IRadAn=         5 AccDes= 0.00D+00
 HarFok:  IExCor=  205 AccDes= 0.00D+00 IRadAn=         5 IDoV=-2 UseB2=F ITyADJ=14
 ICtDFT= 12500011 ScaDFX=  1.000000  1.000000  1.000000  1.000000
 Range of M.O.s used for correlation:    12   169
 NBasis=   169 NAE=    22 NBE=    22 NFC=    11 NFV=     0
 NROrb=    158 NOA=    11 NOB=    11 NVA=   147 NVB=   147

 **** Warning!!: The largest alpha MO coefficient is  0.20161684D+02

 Fully direct method using O(ONN) memory.
 JobTyp=1 Pass  1:  I=  12 to  22 NPSUse= 28 ParTrn=T ParDer=T DoDerP=T.
 Spin components of T(2) and E(2):
     alpha-alpha T2 =       0.2940755655D-01 E2=     -0.8444154003D-01
     alpha-beta  T2 =       0.1597633056D+00 E2=     -0.4992949782D+00
     beta-beta   T2 =       0.2940755655D-01 E2=     -0.8444154003D-01
 ANorm=    0.1103892395D+01
 E2 =    -0.6681780582D+00 EUMP2 =    -0.99519220391967D+03
          IDoAtm=1111
          Differentiating once with respect to electric field.
                with respect to dipole field.
          Differentiating once with respect to nuclear coordinates.
 Keep R1 ints in memory in canonical form, NReq=117123447.
          There are     1 degrees of freedom in the 1st order CPHF.  IDoFFX=0 NUNeed=     1.
 LinEq1:  Iter=  0 NonCon=     1 RMS=3.11D-03 Max=4.34D-02 NDo=     1
 AX will form     1 AO Fock derivatives at one time.
 LinEq1:  Iter=  1 NonCon=     1 RMS=3.90D-04 Max=5.26D-03 NDo=     1
 LinEq1:  Iter=  2 NonCon=     1 RMS=1.64D-04 Max=3.49D-03 NDo=     1
 LinEq1:  Iter=  3 NonCon=     1 RMS=6.37D-05 Max=9.77D-04 NDo=     1
 LinEq1:  Iter=  4 NonCon=     1 RMS=2.68D-05 Max=6.79D-04 NDo=     1
 LinEq1:  Iter=  5 NonCon=     1 RMS=5.87D-06 Max=7.10D-05 NDo=     1
 LinEq1:  Iter=  6 NonCon=     1 RMS=1.53D-06 Max=1.81D-05 NDo=     1
 LinEq1:  Iter=  7 NonCon=     1 RMS=3.22D-07 Max=3.95D-06 NDo=     1
 LinEq1:  Iter=  8 NonCon=     1 RMS=5.51D-08 Max=7.30D-07 NDo=     1
 LinEq1:  Iter=  9 NonCon=     1 RMS=1.34D-08 Max=1.67D-07 NDo=     1
 LinEq1:  Iter= 10 NonCon=     1 RMS=3.51D-09 Max=5.13D-08 NDo=     1
 LinEq1:  Iter= 11 NonCon=     1 RMS=9.29D-10 Max=1.68D-08 NDo=     1
 LinEq1:  Iter= 12 NonCon=     1 RMS=2.26D-10 Max=4.74D-09 NDo=     1
 LinEq1:  Iter= 13 NonCon=     0 RMS=4.94D-11 Max=8.47D-10 NDo=     1
 Linear equations converged to 1.000D-10 1.000D-09 after    13 iterations.
 End of Minotr F.D. properties file   721 does not exist.
 End of Minotr F.D. properties file   722 does not exist.
 End of Minotr F.D. properties file   788 does not exist.
 Calling FoFJK, ICntrl=  10002127 FMM=F ISym2X=0 I1Cent= 0 IOpClX= 0 NMat=1 NMatS=1 NMatT=0.
 ***** Axes restored to original set *****
 -------------------------------------------------------------------
 Center     Atomic                   Forces (Hartrees/Bohr)
 Number     Number              X              Y              Z
 -------------------------------------------------------------------
      1        8          -0.000060609    0.000004447   -0.000038332
      2        1          -0.000015901   -0.000007225   -0.000008846
      3       17           0.000041418    0.000000189    0.000042467
      4       17           0.000035091    0.000002589    0.000004711
 -------------------------------------------------------------------
 Cartesian Forces:  Max     0.000060609 RMS     0.000029333
 -----------------------------------------------------------------------------------------------
                       Internal Coordinate Forces (Hartree/Bohr or radian)
  Cent   Atom   N1       Length/X         N2         Alpha/Y        N3         Beta/Z          J
 -----------------------------------------------------------------------------------------------
      1  O 
      2  H        1  -0.000009(     1)
      3  Cl       1   0.000030(     2)      2   0.000031(     4)
      4  Cl       1   0.000003(     3)      3  -0.000193(     5)      2   0.000014(     6)     0
 -----------------------------------------------------------------------------------------------
 Internal  Forces:  Max     0.000193400 RMS     0.000081184

 GradGradGradGradGradGradGradGradGradGradGradGradGradGradGradGradGradGrad
 Berny optimization.
 Search for a local minimum.
 Step number   5 out of a maximum of   20
 All quantities printed in internal units (Hartrees-Bohrs-Radians)
 Update second derivatives using D2CorN and points    1    2    3    4    5

 DE= -1.89D-07 DEPred=-1.41D-07 R= 1.34D+00
 Trust test= 1.34D+00 RLast= 2.22D-03 DXMaxT set to 3.00D-01
 The second derivative matrix:
                          r1        r2        r3        a1        a2
           r1           0.42897
           r2           0.00150   0.26297
           r3           0.00496  -0.00721   0.03356
           a1          -0.00117   0.05683  -0.00264   0.28060
           a2           0.00119  -0.06135   0.03176  -0.12275   0.37712
           d1          -0.00045   0.00127  -0.00327   0.00096  -0.00463
                          d1
           d1           0.04225
 ITU=  0  1  1  1  0
     Eigenvalues ---    0.02958   0.04279   0.19478   0.23664   0.42903
     Eigenvalues ---    0.49266
 RFO step:  Lambda=-1.23714888D-07 EMin= 2.95808882D-02
 Quartic linear search produced a step of  0.53361.
 Variable       Old X    -DE/DX   Delta X   Delta X   Delta X     New X
                                 (Linear)    (Quad)   (Total)
    r1        1.94333  -0.00001   0.00004  -0.00007  -0.00003   1.94330
    r2        3.18123   0.00003   0.00002   0.00001   0.00003   3.18126
    r3        5.48425   0.00000   0.00113  -0.00062   0.00052   5.48477
    a1        1.81003   0.00003  -0.00012  -0.00007  -0.00019   1.80983
    a2        1.85402  -0.00019  -0.00028  -0.00046  -0.00074   1.85328
    d1       -0.00015   0.00001  -0.00015   0.00056   0.00041   0.00027
         Item               Value     Threshold  Converged?
 Maximum Force            0.000193     0.000015     NO 
 RMS     Force            0.000081     0.000010     NO 
 Maximum Displacement     0.000735     0.000060     NO 
 RMS     Displacement     0.000411     0.000040     NO 
 Predicted change in Energy=-5.681233D-08
 GradGradGradGradGradGradGradGradGradGradGradGradGradGradGradGradGradGrad

 ---------------------------------------------------------------------------------------------------
                            Z-MATRIX (ANGSTROMS AND DEGREES)
   CD    Cent   Atom    N1       Length/X        N2       Alpha/Y        N3        Beta/Z          J
 ---------------------------------------------------------------------------------------------------
      1      1  O 
      2      2  H        1   1.028350(     1)
      3      3  Cl       1   1.683448(     2)      2  103.696(     4)
      4      4  Cl       1   2.902414(     3)      3  106.185(     5)      2    0.015(     6)      0
 ---------------------------------------------------------------------------------------------------
                         Z-Matrix orientation:                         
 ---------------------------------------------------------------------
 Center     Atomic      Atomic             Coordinates (Angstroms)
 Number     Number       Type             X           Y           Z
 ---------------------------------------------------------------------
      1          8           0        0.000000    0.000000    0.000000
      2          1           0        0.000000    0.000000    1.028350
      3         17           0        1.635582    0.000000   -0.398587
      4         17           0       -0.126070    0.000739    2.899675
 ---------------------------------------------------------------------
                    Distance matrix (angstroms):
                    1          2          3          4
     1  O    0.000000
     2  H    1.028350   0.000000
     3  Cl   1.683448   2.170547   0.000000
     4  Cl   2.902414   1.875567   3.739244   0.000000
 Stoichiometry    Cl2HO(1-)
 Framework group  C1[X(Cl2HO)]
 Deg. of freedom     6
 Full point group                 C1      NOp   1
 Largest Abelian subgroup         C1      NOp   1
 Largest concise Abelian subgroup C1      NOp   1
                         Standard orientation:                         
 ---------------------------------------------------------------------
 Center     Atomic      Atomic             Coordinates (Angstroms)
 Number     Number       Type             X           Y           Z
 ---------------------------------------------------------------------
      1          8           0        0.664045    0.969944    0.000019
      2          1           0       -0.267248    0.533829   -0.000251
      3         17           0        1.718650   -0.342233    0.000000
      4         17           0       -2.015421   -0.145613    0.000005
 ---------------------------------------------------------------------
 Rotational constants (GHZ):          25.0678606           2.0018551           1.8538142
 Standard basis: Aug-CC-pVTZ (5D, 7F)
 There are   198 symmetry adapted cartesian basis functions of A   symmetry.
 There are   169 symmetry adapted basis functions of A   symmetry.
   169 basis functions,   327 primitive gaussians,   198 cartesian basis functions
    22 alpha electrons       22 beta electrons
       nuclear repulsion energy       121.5033059434 Hartrees.
 NAtoms=    4 NActive=    4 NUniq=    4 SFac= 1.00D+00 NAtFMM=   60 NAOKFM=F Big=F
 Integral buffers will be    131072 words long.
 Raffenetti 1 integral format.
 Two-electron integral symmetry is turned on.
 One-electron integrals computed using PRISM.
 NBasis=   169 RedAO= T EigKep=  2.40D-04  NBF=   169
 NBsUse=   169 1.00D-06 EigRej= -1.00D+00 NBFU=   169
 Initial guess from the checkpoint file:  "/gscratch/ilahie/abmccoy/hocl/cl_hocl_tz.chk"
 B after Tr=    -0.000000    0.000000   -0.000000
         Rot=    1.000000   -0.000000   -0.000000    0.000036 Ang=   0.00 deg.
 Keep R1 ints in memory in canonical form, NReq=117119463.
 Requested convergence on RMS density matrix=1.00D-08 within 128 cycles.
 Requested convergence on MAX density matrix=1.00D-06.
 Requested convergence on             energy=1.00D-06.
 No special actions if energy rises.
 SCF Done:  E(RHF) =  -994.524027571     A.U. after    8 cycles
            NFock=  8  Conv=0.64D-08     -V/T= 2.0002
 ExpMin= 2.53D-02 ExpMax= 4.56D+05 ExpMxC= 1.44D+03 IAcc=3 IRadAn=         5 AccDes= 0.00D+00
 HarFok:  IExCor=  205 AccDes= 0.00D+00 IRadAn=         5 IDoV=-2 UseB2=F ITyADJ=14
 ICtDFT= 12500011 ScaDFX=  1.000000  1.000000  1.000000  1.000000
 Range of M.O.s used for correlation:    12   169
 NBasis=   169 NAE=    22 NBE=    22 NFC=    11 NFV=     0
 NROrb=    158 NOA=    11 NOB=    11 NVA=   147 NVB=   147

 **** Warning!!: The largest alpha MO coefficient is  0.20170948D+02

 Fully direct method using O(ONN) memory.
 JobTyp=1 Pass  1:  I=  12 to  22 NPSUse= 28 ParTrn=T ParDer=T DoDerP=T.
 Spin components of T(2) and E(2):
     alpha-alpha T2 =       0.2940740671D-01 E2=     -0.8444093969D-01
     alpha-beta  T2 =       0.1597638851D+00 E2=     -0.4992945847D+00
     beta-beta   T2 =       0.2940740671D-01 E2=     -0.8444093969D-01
 ANorm=    0.1103892521D+01
 E2 =    -0.6681764640D+00 EUMP2 =    -0.99519220403514D+03
          IDoAtm=1111
          Differentiating once with respect to electric field.
                with respect to dipole field.
          Differentiating once with respect to nuclear coordinates.
 Keep R1 ints in memory in canonical form, NReq=117123447.
          There are     1 degrees of freedom in the 1st order CPHF.  IDoFFX=0 NUNeed=     1.
 LinEq1:  Iter=  0 NonCon=     1 RMS=3.11D-03 Max=4.34D-02 NDo=     1
 AX will form     1 AO Fock derivatives at one time.
 LinEq1:  Iter=  1 NonCon=     1 RMS=3.90D-04 Max=5.26D-03 NDo=     1
 LinEq1:  Iter=  2 NonCon=     1 RMS=1.64D-04 Max=3.49D-03 NDo=     1
 LinEq1:  Iter=  3 NonCon=     1 RMS=6.37D-05 Max=9.79D-04 NDo=     1
 LinEq1:  Iter=  4 NonCon=     1 RMS=2.68D-05 Max=6.79D-04 NDo=     1
 LinEq1:  Iter=  5 NonCon=     1 RMS=5.87D-06 Max=7.11D-05 NDo=     1
 LinEq1:  Iter=  6 NonCon=     1 RMS=1.53D-06 Max=1.81D-05 NDo=     1
 LinEq1:  Iter=  7 NonCon=     1 RMS=3.22D-07 Max=3.95D-06 NDo=     1
 LinEq1:  Iter=  8 NonCon=     1 RMS=5.51D-08 Max=7.29D-07 NDo=     1
 LinEq1:  Iter=  9 NonCon=     1 RMS=1.34D-08 Max=1.67D-07 NDo=     1
 LinEq1:  Iter= 10 NonCon=     1 RMS=3.50D-09 Max=5.12D-08 NDo=     1
 LinEq1:  Iter= 11 NonCon=     1 RMS=9.17D-10 Max=1.59D-08 NDo=     1
 LinEq1:  Iter= 12 NonCon=     1 RMS=2.22D-10 Max=4.62D-09 NDo=     1
 LinEq1:  Iter= 13 NonCon=     0 RMS=4.92D-11 Max=8.48D-10 NDo=     1
 Linear equations converged to 1.000D-10 1.000D-09 after    13 iterations.
 End of Minotr F.D. properties file   721 does not exist.
 End of Minotr F.D. properties file   722 does not exist.
 End of Minotr F.D. properties file   788 does not exist.
 Calling FoFJK, ICntrl=  10002127 FMM=F ISym2X=0 I1Cent= 0 IOpClX= 0 NMat=1 NMatS=1 NMatT=0.
 ***** Axes restored to original set *****
 -------------------------------------------------------------------
 Center     Atomic                   Forces (Hartrees/Bohr)
 Number     Number              X              Y              Z
 -------------------------------------------------------------------
      1        8          -0.000056274   -0.000008090   -0.000020360
      2        1          -0.000006212    0.000013151   -0.000004865
      3       17           0.000034993   -0.000000348    0.000035522
      4       17           0.000027493   -0.000004713   -0.000010296
 -------------------------------------------------------------------
 Cartesian Forces:  Max     0.000056274 RMS     0.000024584
 -----------------------------------------------------------------------------------------------
                       Internal Coordinate Forces (Hartree/Bohr or radian)
  Cent   Atom   N1       Length/X         N2         Alpha/Y        N3         Beta/Z          J
 -----------------------------------------------------------------------------------------------
      1  O 
      2  H        1  -0.000005(     1)
      3  Cl       1   0.000026(     2)      2   0.000012(     4)
      4  Cl       1  -0.000011(     3)      3  -0.000148(     5)      2  -0.000025(     6)     0
 -----------------------------------------------------------------------------------------------
 Internal  Forces:  Max     0.000148197 RMS     0.000062628

 GradGradGradGradGradGradGradGradGradGradGradGradGradGradGradGradGradGrad
 Berny optimization.
 Search for a local minimum.
 Step number   6 out of a maximum of   20
 All quantities printed in internal units (Hartrees-Bohrs-Radians)
 Update second derivatives using D2CorN and points    1    2    3    4    5
                                                          6
 DE= -1.15D-07 DEPred=-5.68D-08 R= 2.03D+00
 Trust test= 2.03D+00 RLast= 1.01D-03 DXMaxT set to 3.00D-01
 The second derivative matrix:
                          r1        r2        r3        a1        a2
           r1           0.42882
           r2           0.00106   0.26820
           r3           0.00755  -0.02765   0.06421
           a1          -0.00176   0.06052  -0.01066   0.27874
           a2          -0.00402  -0.05754   0.08516  -0.12078   0.21852
           d1           0.00063  -0.00729   0.01258  -0.00287   0.01825
                          d1
           d1           0.05073
 ITU=  0  0  1  1  1  0
     Eigenvalues ---    0.01829   0.04805   0.15838   0.22288   0.42900
     Eigenvalues ---    0.43262
 RFO step:  Lambda=-2.06140047D-07 EMin= 1.82892940D-02
 Quartic linear search produced a step of  2.00000.
 Variable       Old X    -DE/DX   Delta X   Delta X   Delta X     New X
                                 (Linear)    (Quad)   (Total)
    r1        1.94330  -0.00000  -0.00006  -0.00001  -0.00007   1.94323
    r2        3.18126   0.00003   0.00006   0.00003   0.00009   3.18135
    r3        5.48477  -0.00001   0.00103   0.00053   0.00156   5.48633
    a1        1.80983   0.00001  -0.00038  -0.00035  -0.00073   1.80910
    a2        1.85328  -0.00015  -0.00147  -0.00055  -0.00202   1.85126
    d1        0.00027  -0.00002   0.00082  -0.00183  -0.00101  -0.00075
         Item               Value     Threshold  Converged?
 Maximum Force            0.000148     0.000015     NO 
 RMS     Force            0.000063     0.000010     NO 
 Maximum Displacement     0.002024     0.000060     NO 
 RMS     Displacement     0.001163     0.000040     NO 
 Predicted change in Energy=-9.128477D-08
 GradGradGradGradGradGradGradGradGradGradGradGradGradGradGradGradGradGrad

 ---------------------------------------------------------------------------------------------------
                            Z-MATRIX (ANGSTROMS AND DEGREES)
   CD    Cent   Atom    N1       Length/X        N2       Alpha/Y        N3        Beta/Z          J
 ---------------------------------------------------------------------------------------------------
      1      1  O 
      2      2  H        1   1.028313(     1)
      3      3  Cl       1   1.683495(     2)      2  103.654(     4)
      4      4  Cl       1   2.903242(     3)      3  106.069(     5)      2   -0.043(     6)      0
 ---------------------------------------------------------------------------------------------------
                         Z-Matrix orientation:                         
 ---------------------------------------------------------------------
 Center     Atomic      Atomic             Coordinates (Angstroms)
 Number     Number       Type             X           Y           Z
 ---------------------------------------------------------------------
      1          8           0        0.000000    0.000000    0.000000
      2          1           0        0.000000    0.000000    1.028313
      3         17           0        1.635918    0.000000   -0.397402
      4         17           0       -0.122356   -0.002083    2.900662
 ---------------------------------------------------------------------
                    Distance matrix (angstroms):
                    1          2          3          4
     1  O    0.000000
     2  H    1.028313   0.000000
     3  Cl   1.683495   2.169998   0.000000
     4  Cl   2.903242   1.876344   3.737480   0.000000
 Stoichiometry    Cl2HO(1-)
 Framework group  C1[X(Cl2HO)]
 Deg. of freedom     6
 Full point group                 C1      NOp   1
 Largest Abelian subgroup         C1      NOp   1
 Largest concise Abelian subgroup C1      NOp   1
                         Standard orientation:                         
 ---------------------------------------------------------------------
 Center     Atomic      Atomic             Coordinates (Angstroms)
 Number     Number       Type             X           Y           Z
 ---------------------------------------------------------------------
      1          8           0        0.665090    0.971110   -0.000054
      2          1           0       -0.266594    0.535919    0.000707
      3         17           0        1.717484   -0.342900   -0.000001
      4         17           0       -2.014786   -0.145618   -0.000015
 ---------------------------------------------------------------------
 Rotational constants (GHZ):          25.0003612           2.0035035           1.8548572
 Standard basis: Aug-CC-pVTZ (5D, 7F)
 There are   198 symmetry adapted cartesian basis functions of A   symmetry.
 There are   169 symmetry adapted basis functions of A   symmetry.
   169 basis functions,   327 primitive gaussians,   198 cartesian basis functions
    22 alpha electrons       22 beta electrons
       nuclear repulsion energy       121.5135452514 Hartrees.
 NAtoms=    4 NActive=    4 NUniq=    4 SFac= 1.00D+00 NAtFMM=   60 NAOKFM=F Big=F
 Integral buffers will be    131072 words long.
 Raffenetti 1 integral format.
 Two-electron integral symmetry is turned on.
 One-electron integrals computed using PRISM.
 NBasis=   169 RedAO= T EigKep=  2.40D-04  NBF=   169
 NBsUse=   169 1.00D-06 EigRej= -1.00D+00 NBFU=   169
 Initial guess from the checkpoint file:  "/gscratch/ilahie/abmccoy/hocl/cl_hocl_tz.chk"
 B after Tr=    -0.000000   -0.000000    0.000000
         Rot=    1.000000    0.000000    0.000000    0.000103 Ang=   0.01 deg.
 Keep R1 ints in memory in canonical form, NReq=117119463.
 Requested convergence on RMS density matrix=1.00D-08 within 128 cycles.
 Requested convergence on MAX density matrix=1.00D-06.
 Requested convergence on             energy=1.00D-06.
 No special actions if energy rises.
 SCF Done:  E(RHF) =  -994.524031344     A.U. after    9 cycles
            NFock=  9  Conv=0.37D-08     -V/T= 2.0002
 ExpMin= 2.53D-02 ExpMax= 4.56D+05 ExpMxC= 1.44D+03 IAcc=3 IRadAn=         5 AccDes= 0.00D+00
 HarFok:  IExCor=  205 AccDes= 0.00D+00 IRadAn=         5 IDoV=-2 UseB2=F ITyADJ=14
 ICtDFT= 12500011 ScaDFX=  1.000000  1.000000  1.000000  1.000000
 Range of M.O.s used for correlation:    12   169
 NBasis=   169 NAE=    22 NBE=    22 NFC=    11 NFV=     0
 NROrb=    158 NOA=    11 NOB=    11 NVA=   147 NVB=   147

 **** Warning!!: The largest alpha MO coefficient is  0.20194504D+02

 Fully direct method using O(ONN) memory.
 JobTyp=1 Pass  1:  I=  12 to  22 NPSUse= 28 ParTrn=T ParDer=T DoDerP=T.
 Spin components of T(2) and E(2):
     alpha-alpha T2 =       0.2940711866D-01 E2=     -0.8443932358D-01
     alpha-beta  T2 =       0.1597664183D+00 E2=     -0.4992941526D+00
     beta-beta   T2 =       0.2940711866D-01 E2=     -0.8443932358D-01
 ANorm=    0.1103893408D+01
[...]

 Combination Bands
 -----------------
   Mode(n)     Mode(n)      E(harm)   E(anharm)                     DS(anharm)
      2(1)        1(1)      4150.823   3616.241                      0.11696233
      3(1)        1(1)      3550.220   3212.724                      0.03735662
      3(1)        2(1)      2282.720   2234.855                      0.05300502
      4(1)        1(1)      3488.853   3060.193                      1.61726341
      4(1)        2(1)      2221.354   2161.865                     15.16154174
      4(1)        3(1)      1620.751   1607.575                      0.08002661
      5(1)        1(1)      2990.719   2601.363                    163.62111629
      5(1)        2(1)      1723.220   1673.688                     12.74279499
      5(1)        3(1)      1122.617   1109.182                      0.40558001
      5(1)        4(1)      1061.250   1052.907                      0.11454758
      6(1)        1(1)      2812.634   2399.413                    156.77916180
      6(1)        2(1)      1545.135   1498.214                     14.36262930
      6(1)        3(1)       944.532    938.678                      0.23962905
      6(1)        4(1)       883.165    873.772                      0.30733772
      6(1)        5(1)       385.031    383.800                      8.51179374


 GradGradGradGradGradGradGradGradGradGradGradGradGradGradGradGradGradGrad
 Berny optimization.
 Search for a local minimum.
 Step number   1 out of a maximum of    2
 All quantities printed in internal units (Hartrees-Bohrs-Radians)
 Second derivative matrix not updated -- analytic derivatives used.
 The second derivative matrix:
                          r1        r2        r3        a1        a2
           r1           0.26103
           r2          -0.00350   0.26571
           r3           0.01465  -0.00269   0.03627
           a1          -0.00495   0.06047  -0.00155   0.28652
           a2           0.00554  -0.01252   0.00521  -0.09865   0.09033
           d1          -0.00000   0.00000  -0.00000   0.00000   0.00000
                          d1
           d1           0.09364
 ITU=  0
     Eigenvalues ---    0.03411   0.04974   0.09364   0.22909   0.26147
     Eigenvalues ---    0.36544
 Angle between quadratic step and forces=  48.39 degrees.
 Linear search not attempted -- first point.
 Variable       Old X    -DE/DX   Delta X   Delta X   Delta X     New X
                                 (Linear)    (Quad)   (Total)
    r1        1.94331   0.00000   0.00000   0.00001   0.00001   1.94332
    r2        3.18143   0.00000   0.00000   0.00000   0.00000   3.18143
    r3        5.48482  -0.00000   0.00000  -0.00003  -0.00003   5.48479
    a1        1.80895   0.00000   0.00000  -0.00000  -0.00000   1.80895
    a2        1.85070  -0.00000   0.00000  -0.00001  -0.00001   1.85070
    d1       -0.00001   0.00000   0.00000   0.00001   0.00001   0.00000
         Item               Value     Threshold  Converged?
 Maximum Force            0.000003     0.000015     YES
 RMS     Force            0.000001     0.000010     YES
 Maximum Displacement     0.000028     0.000060     YES
 RMS     Displacement     0.000013     0.000040     YES
 Predicted change in Energy=-3.467691D-11
 Optimization completed.
    -- Stationary point found.
                       ----------------------------
                       !   Optimized Parameters   !
                       ! (Angstroms and Degrees)  !
 ----------------------                            ----------------------
 !      Name          Value   Derivative information (Atomic Units)     !
 ------------------------------------------------------------------------
 !       r1          1.0284   -DE/DX =    0.0                           !
 !       r2          1.6835   -DE/DX =    0.0                           !
 !       r3          2.9024   -DE/DX =    0.0                           !
 !       a1        103.6451   -DE/DX =    0.0                           !
 !       a2        106.0374   -DE/DX =    0.0                           !
 !       d1         -0.0003   -DE/DX =    0.0                           !
 ------------------------------------------------------------------------
 GradGradGradGradGradGradGradGradGradGradGradGradGradGradGradGradGradGrad


 ----------------------------------------------------------------------

 Electric dipole moment (input orientation):
 (Debye = 10**-18 statcoulomb cm , SI units = C m)
                  (au)            (Debye)         (10**-30 SI)
   Tot        0.207622D+01      0.527724D+01      0.176030D+02
   x          0.992281D+00      0.252213D+01      0.841291D+01
   y          0.113526D-04      0.288554D-04      0.962514D-04
   z         -0.182376D+01     -0.463553D+01     -0.154625D+02

 Dipole polarizability, Alpha (input orientation).
 (esu units = cm**3 , SI units = C**2 m**2 J**-1)
 Alpha(0;0):
               (au)            (10**-24 esu)      (10**-40 SI)
   iso        0.520897D+02      0.771890D+01      0.858843D+01
   aniso      0.201046D+02      0.297919D+01      0.331480D+01
   xx         0.523898D+02      0.776337D+01      0.863792D+01
   yx         0.301724D-04      0.447108D-05      0.497475D-05
   yy         0.432376D+02      0.640715D+01      0.712892D+01
   zx        -0.767714D+01     -0.113763D+01     -0.126579D+01
   zy        -0.103534D-03     -0.153422D-04     -0.170705D-04
   zz         0.606417D+02      0.898617D+01      0.999846D+01

 ----------------------------------------------------------------------

 Dipole orientation:
     8         -0.00000000         -0.00000000         -0.00000000
     1          0.92875640         -0.00001063         -1.70700255
    17          2.35699907          0.00000837          2.13683092
    17          2.41794823          0.00000180         -4.92308378

 Electric dipole moment (dipole orientation):
 (Debye = 10**-18 statcoulomb cm , SI units = C m)
                  (au)            (Debye)         (10**-30 SI)
   Tot        0.207622D+01      0.527724D+01      0.176030D+02
   x          0.000000D+00      0.000000D+00      0.000000D+00
   y          0.000000D+00      0.000000D+00      0.000000D+00
   z          0.207622D+01      0.527724D+01      0.176030D+02

 Dipole polarizability, Alpha (dipole orientation).
 (esu units = cm**3 , SI units = C**2 m**2 J**-1)
 Alpha(0;0):
               (au)            (10**-24 esu)      (10**-40 SI)
   iso        0.520897D+02      0.771890D+01      0.858843D+01
   aniso      0.201046D+02      0.297919D+01      0.331480D+01
   xx         0.478288D+02      0.708750D+01      0.788590D+01
   yx         0.204503D-04      0.303043D-05      0.337180D-05
   yy         0.432376D+02      0.640715D+01      0.712892D+01
   zx         0.705828D+00      0.104593D+00      0.116375D+00
   zy         0.137566D-04      0.203852D-05      0.226816D-05
   zz         0.652027D+02      0.966205D+01      0.107505D+02

 ----------------------------------------------------------------------
 1\1\GINC-N2207\Freq\RMP2-FC\Aug-CC-pVTZ\Cl2H1O1(1-)\ABMCCOY\22-Jun-202
 1\1\\#N Geom=AllCheck Guess=TCheck SCRF=Check GenChk RMP2(FC)/Aug-CC-p
 VTZ Freq\\title\\-1,1\O\H,1,r1\Cl,1,r2,2,a1\Cl,1,r3,3,a2,2,d1,0\\r1=1.
 02835433\r2=1.68353977\r3=2.90244065\a1=103.64512775\a2=106.03739167\d
 1=-0.00034866\\Version=ES64L-G16RevB.01\State=1-A\HF=-994.5240139\MP2=
 -995.1922042\RMSD=2.001e-09\RMSF=1.052e-06\ZeroPoint=0.0140258\Thermal
 =0.0181881\Dipole=0.9922807,0.0000114,-1.8237567\DipoleDeriv=-0.460178
 4,0.,0.1132161,0.0000001,-0.3003954,0.0000013,0.3713252,0.0000051,-1.2
 071442,0.0785922,0.0000004,-0.0926309,0.0000015,0.1503453,-0.000007,-0
 .4499834,-0.0000089,1.615476,0.1334386,-0.0000001,-0.0719914,0.,-0.100
 6061,-0.0000001,-0.0936084,0.,-0.0922062,-0.7518524,-0.0000003,0.05140
 61,-0.0000015,-0.7493438,0.0000058,0.1722666,0.0000039,-1.3161256\Pola
 r=52.3898493,0.0000302,43.2375982,-7.6771378,-0.0001035,60.6416721\Qua
 drupole=3.2871133,4.6537808,-7.9408941,-0.0000228,3.6580679,0.0000685\
 PG=C01 [X(Cl2H1O1)]\NImag=0\\0.26375154,0.,0.00993672,-0.04158405,-0.0
 0000012,0.36503890,-0.04351798,0.00000001,-0.03982612,0.07586898,0.000
 00004,-0.01615247,-0.00000030,-0.00000001,0.02625542,0.00251681,-0.000
 00007,-0.27626862,0.00254701,0.00000033,0.26102517,-0.22414963,0.00000
 001,0.07647285,-0.02307023,-0.00000003,-0.00344231,0.24499517,0.,0.000
 42878,-0.00000002,0.,-0.00069647,0.,-0.00000001,0.00001819,0.03435047,
 -0.00000001,-0.03856403,0.03687011,0.,0.00064368,-0.07023953,0.,0.0384
 4840,0.00391607,-0.00000002,0.00493732,-0.00928077,0.,-0.00162151,0.00
 222468,0.,-0.00098104,0.00314002,-0.00000004,0.00578696,0.00000043,0.,
 -0.00940648,-0.00000026,0.00000002,0.00024950,0.,0.00000001,0.00337001
 ,0.00471678,0.00000020,-0.05020625,0.00040900,-0.00000004,0.01459977,-
 0.00279101,0.00000001,-0.00052805,-0.00233477,-0.00000018,0.03613453\\
 0.00000073,-0.00000019,0.00000172,0.00000032,0.00000030,-0.00000282,-0
 .00000090,0.,0.00000025,-0.00000016,-0.00000011,0.00000085\\-0.0048714
 0,0.00000010,-0.00164794,-0.00048882,0.00000003,0.00942970,-0.00150460
 ,-0.00000001,-0.01145188,-0.00140752,-0.00000001,0.00126147,-0.0000000
 2,0.00000001,-0.00044667,-0.00937326,-0.00000001,-0.00560328,0.0113558
 4,0.00000002,0.00452828,0.00667711,-0.00000008,0.00946654,0.00286961,0
 .,-0.00045789,-0.00971213,-0.00000009,0.00067791,0.00000002,0.,-0.0008
 7709,0.,0.00000009,0.00015634,0.01012765,0.,-0.00666094,0.00014797,0.0
 0000001,0.00063524,-0.00983280,-0.00000002,0.00624057,-0.00030111,0.,0
 .00247416,0.00004251,0.,-0.00152469,0.00016541,0.,-0.00044282,0.000093
 19,0.,-0.00029145,-0.00000003,0.,0.00006229,0.,0.,0.00004284,0.,0.,0.0
 0018632,-0.00026557,-0.00000001,0.00283452,-0.00005193,0.,0.00043975,0
 .00082415,0.,-0.00021488,-0.00050665,0.00000002,-0.00305940,-0.0016652
 2,0.00000011,-0.00439534,-0.00017900,-0.00000008,-0.01388916,-0.000079
 79,0.,-0.01439406,-0.00201068,0.,0.00142036,-0.00000009,0.00000003,-0.
 00018062,-0.01435750,0.,0.03753059,0.01332787,-0.00000003,-0.03233464,
 0.00029479,-0.00000009,0.01083749,0.00293116,-0.00000002,0.00200165,-0
 .00401250,-0.00000010,0.00124162,0.00000002,0.,-0.00072268,0.,0.000000
 10,-0.00065610,0.01379395,0.,-0.00577885,-0.00017417,0.00000002,-0.000
 06241,-0.01291736,-0.00000002,0.00652581,0.00145022,-0.00000001,0.0037
 3557,-0.00084068,0.,-0.00097202,0.00078655,0.,-0.00070242,-0.00139609,
 0.,0.00173336,0.00000015,0.,-0.00051706,0.00000003,0.,0.00013715,0.,0.
 00000001,-0.00135345,0.00074256,0.00000007,-0.01786258,0.00124036,0.00
 000011,-0.00513355,0.00007821,0.,-0.00068456,-0.00206113,-0.00000018,0
 .02368068,0.18277068,0.,-0.02189457,-0.07293120,-0.00000008,0.01397917
 ,0.00305606,0.,0.01058762,0.00705315,0.00000002,-0.00114962,0.00000010
 ,-0.00000002,0.00030718,0.01937968,0.00000007,-0.01690630,-0.01837893,
 -0.00000006,0.01380624,-0.18498610,0.,0.06172878,-0.00994360,0.,-0.000
 60637,0.19466244,0.00000001,0.02326059,0.,0.,0.00093727,0.,0.,-0.02399
 756,0.05034246,0.00000001,0.00029697,0.00944460,0.,0.00040815,-0.05975
 401,0.,-0.00186323,-0.00084064,0.,0.00061480,-0.00016561,0.,-0.0003943
 9,0.00026726,0.,-0.00003306,0.00073898,-0.00000002,-0.00021640,-0.0000
 0003,0.00000002,-0.00009483,-0.00000001,0.,-0.00020030,0.,0.,0.0005115
 2,0.00320905,0.,0.00263016,-0.00165329,-0.00000004,0.00269191,-0.00136
 841,0.,0.00115810,-0.00018735,0.00000005,-0.00648017,0.00000004,0.0122
 1690,-0.00000009,0.00000001,0.17050586,0.00000181,0.00000004,-0.023745
 06,-0.00000009,-0.00000005,0.00082141,0.00000001,-0.16803708,0.0072367
 7,-0.00000004,0.00000004,-0.14231296,-0.00000220,0.00000003,0.15255246
 ,0.00000222,-0.00000006,0.01093822,0.00000011,-0.00000005,-0.00754678,
 -0.00000007,0.00000012,-0.01185095,0.00000002,-0.01150935,0.01613715,0
 .,0.00002413,-0.00433967,-0.00000002,0.,-0.01733882,-0.00000004,0.0000
 0007,0.00616454,0.,-0.00000008,0.01130493,0.00000004,-0.00000002,0.000
 58994,-0.00000003,0.00000006,-0.00051140,0.,0.,0.00005347,0.,-0.000000
 04,-0.00118737,0.00000006,0.00904057,0.00037114,0.00000002,-0.01026364
 ,0.00094824,0.,-0.00013065,-0.00013201,-0.00000008,-0.00000005,-0.0108
 5408,0.00000043,0.,0.00932008,-0.00000004,0.00000004,0.00018028,0.,0.0
 0000002,0.00135372,-0.00000038,-0.01581362,-0.00000002,0.03148203,0.10
 160057,-0.00000003,-0.01912976,0.01267720,0.00000004,-0.11804939,0.017
 11778,-0.00000011,-0.01994741,0.00000010,0.00000006,0.00274331,-0.0977
 8567,0.00000002,-0.00633463,0.08719074,-0.00000009,0.04341019,0.005504
 53,0.,0.00708907,-0.03134717,0.,0.02287651,0.02461500,0.00000001,-0.01
 097291,0.,-0.00000002,0.01650575,0.00000003,0.,-0.00556176,0.00850258,
 0.00000002,0.01784652,0.02094779,0.00000001,-0.03351095,-0.03002460,-0
 .00000002,0.01396829,-0.00236812,-0.00000002,0.00935975,0.00155218,0.0
 0000005,-0.01228159,0.00122764,0.,0.00057423,-0.00041171,0.00000011,-0
 .00056170,-0.00000007,-0.00000008,0.00069835,0.00000004,0.,0.00002892,
 -0.00000002,-0.00000003,-0.00016557,-0.01231748,0.,0.00761786,0.009910
 86,-0.00000003,-0.00356461,0.00005902,0.,0.00169614,0.00234760,0.00000
 004,-0.00574939,0.12746186,0.00000006,0.14236198,-0.01087660,0.0000001
 5,-1.30750848,-0.10035136,-0.00000007,0.02899618,0.09246321,0.00000006
 ,-0.14593483,-0.00000063,0.,0.15514213,-0.02255303,-0.00000013,1.33596
 662,0.00604618,0.00000060,-1.36625736,-0.03010198,0.00000002,-0.024135
 80,0.02051966,-0.00000006,0.02106873,0.00853137,-0.00000003,0.00174036
 ,-0.00000004,0.00000005,0.00125961,0.00000001,-0.00000001,-0.00302723,
 0.02514316,-0.00000005,0.02301161,-0.03212018,0.00000002,-0.00575908,0
 .00852165,0.00000003,-0.01728411,0.00299148,0.,0.00601622,-0.01263152,
 0.,-0.00456188,0.00105095,0.,-0.00154464,0.00858910,-0.00000008,0.0018
 3249,0.00000051,0.00000003,-0.01046691,-0.00000048,0.00000006,0.000027
 26,0.,0.,0.00860716,0.00828646,0.00000002,-0.05146976,-0.00292218,0.,0
 .03604982,-0.00545458,0.,0.00003157,0.00009030,-0.00000003,0.01538836,
 -0.00624364,-0.00003297,0.00064251,0.00327587,0.00000068,-0.00154270,-
 0.00094723,-0.00001181,0.00010504,0.00055801,0.00000868,0.00005700,-0.
 00000151,0.00000949,0.00003338,-0.00064170,0.00002980,0.00201060,0.000
 66919,-0.00002543,-0.00231814,0.00723440,0.00004441,-0.00303094,0.0003
 3882,-0.00001797,-0.00000748,-0.00742092,0.00002769,-0.00063157,-0.000
 00292,0.00000218,-0.00010493,-0.00000404,-0.00002984,0.00070149,-0.002
 65901,-0.00003423,-0.00106793,-0.00059453,0.00002881,0.00019516,0.0029
 6540,0.00000768,0.00124694,-0.00004354,0.00000037,-0.00034998,0.000050
 40,-0.00000020,-0.00002001,-0.00015208,-0.00000003,0.00028815,0.000145
 66,-0.00000340,-0.00006796,0.00000376,0.00000014,0.00001455,-0.0000003
 3,0.00000340,0.00003536,-0.00000227,-0.00000014,0.00001845,0.00002483,
 0.00000376,0.00060003,-0.00017970,-0.00000187,0.00011238,0.00007303,-0
 .00000072,-0.00037396,0.00008177,-0.00000116,-0.00033789,-0.01054902,-
 0.00003293,-0.00100413,0.00002814,0.00000062,0.00137980,0.00032565,-0.
 00001179,0.00146916,-0.00146254,0.00000868,0.00127230,-0.00000151,0.00
 000949,-0.00208522,0.00136941,0.00002979,0.00560832,-0.00207324,-0.000
 02549,0.00024512,0.00954949,0.00004437,-0.00354730,0.00050243,-0.00001
 796,0.00018059,-0.01020909,0.00002765,-0.00088273,-0.00000292,0.000002
 18,-0.00011091,-0.00000403,-0.00002980,0.00090629,-0.00165157,-0.00003
 419,-0.00077617,-0.00122853,0.00002878,0.00051818,0.00307882,0.0000076
 7,0.00093382,0.00067388,0.00000036,0.00204999,0.00063447,-0.00000021,0
 .00052324,0.00015780,-0.00000002,-0.00019883,-0.00146559,-0.00000340,0
 .00061456,0.00000381,0.00000012,0.00092383,-0.00000026,0.00000340,0.00
 008816,-0.00000226,-0.00000012,-0.00162624,0.00025402,0.00000378,-0.00
 621194,0.00183260,-0.00000177,-0.00637162,0.00028779,-0.00000072,-0.00
 067504,-0.00237441,-0.00000129,0.01325916,0.15063740,-0.00003289,-0.02
 005792,-0.04148362,0.00000060,-0.02790232,-0.00207163,-0.00001178,0.00
 194648,0.00350771,0.00000868,-0.00283206,-0.00000144,0.00000947,0.0018
 0283,-0.00362019,0.00002978,0.01598375,-0.00325744,-0.00002543,-0.0132
 9989,-0.14889658,0.00004430,0.03947906,-0.00142738,-0.00001795,0.00737
 440,0.15067670,0.00002761,0.02286625,-0.00000291,0.00000217,0.00109875
 ,-0.00000403,-0.00002975,-0.02392402,0.04359560,-0.00003414,0.01240912
 ,0.00118260,0.00002874,-0.00215322,-0.04479702,0.00000766,-0.01108049,
 0.00033082,0.00000036,0.00005809,-0.00000869,-0.00000020,-0.00049677,-
 0.00035242,-0.00000002,0.00001882,0.00003098,-0.00000340,0.00002372,0.
 00000376,0.00000013,-0.00006953,-0.00000032,0.00000341,-0.00004058,-0.
 00000227,-0.00000014,0.00008696,0.00150821,0.00000376,-0.00049055,0.00
 012836,-0.00000187,-0.00053064,-0.00205644,-0.00000073,0.00082490,0.00
 041985,-0.00000116,0.00019701,0.06906382,-0.00003311,0.26913841,-0.023
 46187,0.00000323,-0.86186421,-0.05669845,-0.00001203,0.03595629,0.0533
 6928,0.00000871,-0.25976317,-0.00000376,0.00000958,0.25836818,-0.00096
 649,0.00002731,0.82905176,-0.01030780,-0.00002279,-0.84019354,-0.01220
 348,0.00004480,-0.01314306,0.00578193,-0.00001813,0.01311364,0.0061375
 9,0.00002783,-0.01478845,-0.00000301,0.00000227,0.00675469,-0.00000408
 ,-0.00003008,0.00794745,0.02259903,-0.00003454,0.02757745,-0.02267156,
 0.00002900,-0.00887779,0.00054378,0.00000781,-0.01792120,-0.00016189,0
 .00000034,0.00064864,-0.00245276,-0.00000016,-0.00183935,0.00028453,-0
 .00000002,-0.00047113,0.00233056,-0.00000343,0.00541318,0.00000355,0.0
 0000018,-0.00535970,-0.00000043,0.00000342,0.00008691,-0.00000227,-0.0
 0000016,-0.00014039,0.00182933,0.00000401,0.00523501,-0.00297693,-0.00
 000244,0.02001957,-0.00051424,-0.00000072,-0.00077810,0.00166184,-0.00
 000085,-0.02447605,0.09289347,-0.00003295,0.03352262,-0.01230408,0.000
 00071,-0.79749484,-0.09580797,-0.00001181,0.04009899,0.10495171,0.0000
 0882,-0.05096850,-0.00000149,0.00000938,0.05059433,-0.05696932,0.00002
 984,0.75259766,0.00643323,-0.00002527,-0.74680626,-0.00469365,0.000044
 40,-0.02689845,-0.00115948,-0.00001802,0.05025503,0.00527586,0.0000276
 4,0.01837615,-0.00000295,0.00000220,0.00253088,-0.00000402,-0.00002981
 ,-0.02130351,0.05730143,-0.00003425,0.04154966,-0.03534475,0.00002881,
 -0.02978897,-0.02121371,0.00000768,-0.00880643,0.00760815,0.00000036,-
 0.00089645,-0.00798426,-0.00000019,0.00028106,0.00057781,-0.00000002,-
 0.00074291,-0.00020098,-0.00000351,-0.00093027,0.00000373,0.00000023,-
 0.00215671,-0.00000055,0.00000343,0.00039715,-0.00000224,-0.00000015,0
 .00269025,0.01197198,0.00000370,0.00334751,-0.01118748,-0.00000205,0.0
 2399757,-0.00214280,-0.00000071,-0.00295384,0.00135838,-0.00000094,-0.
 02439065,-0.82044855,-0.00003275,-0.85518888,-0.00815704,-0.00000219,4
 .53704758,0.79977047,-0.00001158,0.01928010,-0.77477735,0.00000866,0.8
 6263470,0.00000169,0.00000945,-0.84864324,0.03034065,0.00003254,-4.592
 93693,-0.03994981,-0.00002894,4.68003989,0.02435493,0.00004393,-0.0068
 6520,-0.01388450,-0.00001786,0.00487929,-0.00961167,0.00002746,-0.0053
 3609,-0.00000282,0.00000208,-0.00138216,-0.00000401,-0.00002951,0.0070
 8027,-0.02037505,-0.00003381,0.00090732,0.01173265,0.00002853,0.003042
 10,0.00798693,0.00000756,-0.00704701,-0.00367687,0.00000040,-0.0042578
 5,-0.01110862,-0.00000025,0.00472987,-0.00085831,-0.00000003,0.0006554
 8,0.01564411,-0.00000338,-0.00210974,0.00000331,0.00000005,-0.01260930
 ,0.00000041,0.00000344,-0.00036175,-0.00000228,-0.00000012,0.01508072,
 -0.00180856,0.00000346,0.05498202,0.00893706,-0.00000128,-0.09014507,-
 0.00600100,-0.00000074,0.00309802,-0.00112750,-0.00000144,0.03206534\\
 @


 GARLIC THEN HAVE POWER TO SAVE FROM DEATH
 BEAR WITH IT THOUGH IT MAKETH UNSAVORY BREATH,
 AND SCORN NOT GARLIC LIKE SOME THAT THINK
 IT ONLY MAKETH MEN WINK AND DRINK AND STINK.
   --  SIR JOHN HARRINGTON,
       "THE ENGLISHMAN'S DOCTOR", 1609
 Job cpu time:       0 days 14 hours 21 minutes 12.4 seconds.
 Elapsed time:       0 days  0 hours 31 minutes 18.1 seconds.
 File lengths (MBytes):  RWF=   5670 Int=      0 D2E=      0 Chk=     48 Scr=      1
 Normal termination of Gaussian 16 at Tue Jun 22 19:47:26 2021.
