 Entering Gaussian System, Link 0=g16
 Input=clhod_fully_relaxed.gjf
 Output=clhod_fully_relaxed.log
 Initial command:
 /sw/contrib/gaussian/g16/B01/g16/l1.exe "/scr/Gau-15651.inp" -scrdir="/scr/"
 Entering Link 1 = /sw/contrib/gaussian/g16/B01/g16/l1.exe PID=     15652.
  
 Copyright (c) 1988-2017, Gaussian, Inc.  All Rights Reserved.
  
 This is part of the Gaussian(R) 16 program.  It is based on
 the Gaussian(R) 09 system (copyright 2009, Gaussian, Inc.),
 the Gaussian(R) 03 system (copyright 2003, Gaussian, Inc.),
 the Gaussian(R) 98 system (copyright 1998, Gaussian, Inc.),
 the Gaussian(R) 94 system (copyright 1995, Gaussian, Inc.),
 the Gaussian 92(TM) system (copyright 1992, Gaussian, Inc.),
 the Gaussian 90(TM) system (copyright 1990, Gaussian, Inc.),
 the Gaussian 88(TM) system (copyright 1988, Gaussian, Inc.),
 the Gaussian 86(TM) system (copyright 1986, Carnegie Mellon
 University), and the Gaussian 82(TM) system (copyright 1983,
 Carnegie Mellon University). Gaussian is a federally registered
 trademark of Gaussian, Inc.
  
 This software contains proprietary and confidential information,
 including trade secrets, belonging to Gaussian, Inc.
  
 This software is provided under written license and may be
 used, copied, transmitted, or stored only in accord with that
 written license.
  
 The following legend is applicable only to US Government
 contracts under FAR:
  
                    RESTRICTED RIGHTS LEGEND
  
 Use, reproduction and disclosure by the US Government is
 subject to restrictions as set forth in subparagraphs (a)
 and (c) of the Commercial Computer Software - Restricted
 Rights clause in FAR 52.227-19.
  
 Gaussian, Inc.
 340 Quinnipiac St., Bldg. 40, Wallingford CT 06492
  
  
 ---------------------------------------------------------------
 Warning -- This program may not be used in any manner that
 competes with the business of Gaussian, Inc. or will provide
 assistance to any competitor of Gaussian, Inc.  The licensee
 of this program is prohibited from giving any competitor of
 Gaussian, Inc. access to this program.  By using this program,
 the user acknowledges that Gaussian, Inc. is engaged in the
 business of creating and licensing software in the field of
 computational chemistry and represents and warrants to the
 licensee that it is not a competitor of Gaussian, Inc. and that
 it will not use this program in any manner prohibited above.
 ---------------------------------------------------------------
  

 Cite this work as:
 Gaussian 16, Revision B.01,
 M. J. Frisch, G. W. Trucks, H. B. Schlegel, G. E. Scuseria, 
 M. A. Robb, J. R. Cheeseman, G. Scalmani, V. Barone, 
 G. A. Petersson, H. Nakatsuji, X. Li, M. Caricato, A. V. Marenich, 
 J. Bloino, B. G. Janesko, R. Gomperts, B. Mennucci, H. P. Hratchian, 
 J. V. Ortiz, A. F. Izmaylov, J. L. Sonnenberg, D. Williams-Young, 
 F. Ding, F. Lipparini, F. Egidi, J. Goings, B. Peng, A. Petrone, 
 T. Henderson, D. Ranasinghe, V. G. Zakrzewski, J. Gao, N. Rega, 
 G. Zheng, W. Liang, M. Hada, M. Ehara, K. Toyota, R. Fukuda, 
 J. Hasegawa, M. Ishida, T. Nakajima, Y. Honda, O. Kitao, H. Nakai, 
 T. Vreven, K. Throssell, J. A. Montgomery, Jr., J. E. Peralta, 
 F. Ogliaro, M. J. Bearpark, J. J. Heyd, E. N. Brothers, K. N. Kudin, 
 V. N. Staroverov, T. A. Keith, R. Kobayashi, J. Normand, 
 K. Raghavachari, A. P. Rendell, J. C. Burant, S. S. Iyengar, 
 J. Tomasi, M. Cossi, J. M. Millam, M. Klene, C. Adamo, R. Cammi, 
 J. W. Ochterski, R. L. Martin, K. Morokuma, O. Farkas, 
 J. B. Foresman, and D. J. Fox, Gaussian, Inc., Wallingford CT, 2016.
 
 ******************************************
 Gaussian 16:  ES64L-G16RevB.01 20-Dec-2017
                20-Dec-2021 
 ******************************************
 %nproc=28
 Will use up to   28 processors via shared memory.
 %mem=120GB
 %chk=/gscratch/ilahie/mccoygrp/coire_hocl/clhod_fully_relaxed.chk
 -------------------------------------------------
 #p opt=(z-matrix) mp2/aug-cc-pvtz density=current
 -------------------------------------------------
 1/10=7,18=40,38=1/1,3;
 2/12=2,17=6,18=5,29=3,40=1/2;
 3/5=16,6=1,7=10,11=9,25=1,30=1,71=1/1,2,3;
 4//1;
 5/5=2,38=5/2;
 8/6=4,10=1/1;
 9/15=2,16=-3/6;
 10/5=1/2;
 6/7=2,8=2,9=2,10=2,22=-1/1;
 7/12=2,29=1/1,2,3,16;
 1/10=7,18=40/3(2);
 2/29=3/2;
 99//99;
 2/29=3/2;
 3/5=16,6=1,7=10,11=9,25=1,30=1,71=1/1,2,3;
 4/5=5,16=3,69=1/1;
 5/5=2,38=5/2;
 8/6=4,10=1/1;
 9/15=2,16=-3/6;
 10/5=1/2;
 7/12=2/1,2,3,16;
 1/18=40/3(-8);
 2/29=3/2;
 6/7=2,8=2,9=2,10=2,22=-1/1;
 99/9=10/99;
 Leave Link    1 at Mon Dec 20 16:21:42 2021, MaxMem= 16106127360 cpu:               2.8 elap:               0.1
 (Enter /sw/contrib/gaussian/g16/B01/g16/l101.exe)
 -----
 title
 -----
 Symbolic Z-matrix:
 Charge = -1 Multiplicity = 1
 O
 X                    1     10. 
 H(iso=2)             1    r1       2    a1
 Cl                   1    r2       2    a2       3    d1       0
 H                    1    r3       2    oop      3    d2       0
       Variables:
  r1                    1.2                      
  r2                    3.07067                  
  r3                    1.01773                  
  a1                   90.                       
  a2                   90.                       
  d1                  103.50791                  
  d2                  103.50791                  
  OOP                  90.                       
 
 ITRead=  0  0  0  0
 MicOpt= -1 -1 -1 -1
 NAtoms=      4 NQM=        4 NQMF=       0 NMMI=      0 NMMIF=      0
                NMic=       0 NMicF=      0.
                    Isotopes and Nuclear Properties:
 (Nuclear quadrupole moments (NQMom) in fm**2, nuclear magnetic moments (NMagM)
  in nuclear magnetons)

  Atom         1           2           3           4
 IAtWgt=          16           2          35           1
 AtmWgt=  15.9949146   2.0141018  34.9688527   1.0078250
 NucSpn=           0           2           3           1
 AtZEff=  -0.0000000  -0.0000000  -0.0000000  -0.0000000
 NQMom=    0.0000000   0.2860000  -8.1650000   0.0000000
 NMagM=    0.0000000   0.8574380   0.8218740   2.7928460
 AtZNuc=   8.0000000   1.0000000  17.0000000   1.0000000
 Leave Link  101 at Mon Dec 20 16:21:42 2021, MaxMem= 16106127360 cpu:               4.4 elap:               0.2
 (Enter /sw/contrib/gaussian/g16/B01/g16/l103.exe)

 GradGradGradGradGradGradGradGradGradGradGradGradGradGradGradGradGradGrad
 Berny optimization.
 Initialization pass.
                       ----------------------------
                       !    Initial Parameters    !
                       ! (Angstroms and Degrees)  !
 ----------------------                            ----------------------
 !      Name          Value   Derivative information (Atomic Units)     !
 ------------------------------------------------------------------------
 !       r1          1.2      estimate D2E/DX2                          !
 !       r2          3.0707   estimate D2E/DX2                          !
 !       r3          1.0177   estimate D2E/DX2                          !
 !       a1         90.0      estimate D2E/DX2                          !
 !       a2         90.0      estimate D2E/DX2                          !
 !       d1        103.5079   estimate D2E/DX2                          !
 !       d2        103.5079   estimate D2E/DX2                          !
 !       OOP        90.0      estimate D2E/DX2                          !
 ------------------------------------------------------------------------
 Trust Radius=3.00D-01 FncErr=1.00D-07 GrdErr=1.00D-07 EigMax=2.50D+02 EigMin=1.00D-04
 Number of steps in this run=     20 maximum allowed number of steps=    100.
 GradGradGradGradGradGradGradGradGradGradGradGradGradGradGradGradGradGrad

 Leave Link  103 at Mon Dec 20 16:21:42 2021, MaxMem= 16106127360 cpu:               0.9 elap:               0.1
 (Enter /sw/contrib/gaussian/g16/B01/g16/l202.exe)
 ---------------------------------------------------------------------------------------------------
                            Z-MATRIX (ANGSTROMS AND DEGREES)
   CD    Cent   Atom    N1       Length/X        N2       Alpha/Y        N3        Beta/Z          J
 ---------------------------------------------------------------------------------------------------
      1      1  O 
      2         X        1  10.000000(     1)
      3      2  H        1   1.200000(     2)      2   90.000(     5)
      4      3  Cl       1   3.070672(     3)      2   90.000(     6)      3  103.508(     8)      0
      5      4  H        1   1.017728(     4)      2   90.000(     7)      3  103.508(     9)      0
 ---------------------------------------------------------------------------------------------------
                         Z-Matrix orientation:                         
 ---------------------------------------------------------------------
 Center     Atomic      Atomic             Coordinates (Angstroms)
 Number     Number       Type             X           Y           Z
 ---------------------------------------------------------------------
      1          8           0        0.000000    0.000000    0.000000
      2         -1           0        0.000000    0.000000   10.000000
      3          1           0        1.200000    0.000000    0.000000
      4         17           0       -0.717246   -2.985731    0.000000
      5          1           0       -0.237720   -0.989575    0.000000
 ---------------------------------------------------------------------
                    Distance matrix (angstroms):
                    1          2          3          4          5
     1  O    0.000000
     2  X   10.000000   0.000000
     3  H    1.200000  10.071743   0.000000
     4  Cl   3.070672  10.460833   3.548298   0.000000
     5  H    1.017728  10.051655   1.745365   2.052945   0.000000
 Stoichiometry    ClH2O(1-)
 Framework group  CS[SG(ClH2O)]
 Deg. of freedom     5
 Full point group                 CS      NOp   2
 Largest Abelian subgroup         CS      NOp   2
 Largest concise Abelian subgroup C1      NOp   1
                         Standard orientation:                         
 ---------------------------------------------------------------------
 Center     Atomic      Atomic             Coordinates (Angstroms)
 Number     Number       Type             X           Y           Z
 ---------------------------------------------------------------------
      1          8           0        0.043215    1.960699    0.000000
      2          1           0       -1.123590    2.240994   -0.000000
      3         17           0        0.043215   -1.109974    0.000000
      4          1           0        0.043215    0.942971    0.000000
 ---------------------------------------------------------------------
 Rotational constants (GHZ):         211.7696102           4.3655955           4.2774173
 Leave Link  202 at Mon Dec 20 16:21:42 2021, MaxMem= 16106127360 cpu:               1.9 elap:               0.1
 (Enter /sw/contrib/gaussian/g16/B01/g16/l301.exe)
 Standard basis: Aug-CC-pVTZ (5D, 7F)
 Ernie: Thresh=  0.10000D-02 Tol=  0.10000D-05 Strict=F.
 Ernie:  16 primitive shells out of 116 were deleted.
 There are   113 symmetry adapted cartesian basis functions of A'  symmetry.
 There are    51 symmetry adapted cartesian basis functions of A"  symmetry.
 There are    95 symmetry adapted basis functions of A'  symmetry.
 There are    47 symmetry adapted basis functions of A"  symmetry.
   142 basis functions,   240 primitive gaussians,   164 cartesian basis functions
    14 alpha electrons       14 beta electrons
       nuclear repulsion energy        38.3452671042 Hartrees.
 IExCor=    0 DFT=F Ex=HF Corr=None ExCW=0 ScaHFX=  1.000000
 ScaDFX=  1.000000  1.000000  1.000000  1.000000 ScalE2=  1.000000  1.000000
 IRadAn=      5 IRanWt=     -1 IRanGd=            0 ICorTp=0 IEmpDi=  4
 NAtoms=    4 NActive=    4 NUniq=    4 SFac= 1.00D+00 NAtFMM=   60 NAOKFM=F Big=F
 Integral buffers will be    131072 words long.
 Raffenetti 1 integral format.
 Two-electron integral symmetry is turned on.
 Leave Link  301 at Mon Dec 20 16:21:42 2021, MaxMem= 16106127360 cpu:               2.8 elap:               0.1
 (Enter /sw/contrib/gaussian/g16/B01/g16/l302.exe)
 NPDir=0 NMtPBC=     1 NCelOv=     1 NCel=       1 NClECP=     1 NCelD=      1
         NCelK=      1 NCelE2=     1 NClLst=     1 CellRange=     0.0.
 One-electron integrals computed using PRISM.
 One-electron integral symmetry used in STVInt
 NBasis=   142 RedAO= T EigKep=  3.10D-04  NBF=    95    47
 NBsUse=   142 1.00D-06 EigRej= -1.00D+00 NBFU=    95    47
 Leave Link  302 at Mon Dec 20 16:21:43 2021, MaxMem= 16106127360 cpu:               6.3 elap:               0.3
 (Enter /sw/contrib/gaussian/g16/B01/g16/l303.exe)
 DipDrv:  MaxL=1.
 Leave Link  303 at Mon Dec 20 16:21:43 2021, MaxMem= 16106127360 cpu:               5.3 elap:               0.3
 (Enter /sw/contrib/gaussian/g16/B01/g16/l401.exe)
 ExpMin= 2.53D-02 ExpMax= 4.56D+05 ExpMxC= 1.44D+03 IAcc=3 IRadAn=         5 AccDes= 0.00D+00
 Harris functional with IExCor=  205 and IRadAn=       5 diagonalized for initial guess.
 HarFok:  IExCor=  205 AccDes= 0.00D+00 IRadAn=         5 IDoV= 1 UseB2=F ITyADJ=14
 ICtDFT=  3500011 ScaDFX=  1.000000  1.000000  1.000000  1.000000
 FoFCou: FMM=F IPFlag=           0 FMFlag=      100000 FMFlg1=           0
         NFxFlg=           0 DoJE=T BraDBF=F KetDBF=T FulRan=T
         wScrn=  0.000000 ICntrl=       500 IOpCl=  0 I1Cent=   200000004 NGrid=           0
         NMat0=    1 NMatS0=      1 NMatT0=    0 NMatD0=    1 NMtDS0=    0 NMtDT0=    0
 Petite list used in FoFCou.
 Harris En= -535.411283597640    
 JPrj=0 DoOrth=F DoCkMO=F.
 Initial guess orbital symmetries:
       Occupied  (A') (A') (A') (A') (A') (A") (A') (A') (A') (A')
                 (A") (A') (A') (A")
       Virtual   (A') (A') (A') (A') (A") (A') (A') (A') (A") (A')
                 (A') (A') (A") (A") (A') (A') (A") (A') (A') (A')
                 (A") (A') (A') (A') (A") (A') (A') (A') (A") (A")
                 (A') (A") (A') (A") (A') (A') (A') (A") (A') (A')
                 (A') (A") (A") (A') (A') (A") (A') (A") (A') (A")
                 (A') (A') (A') (A') (A") (A') (A") (A') (A") (A')
                 (A") (A') (A') (A') (A') (A") (A') (A') (A") (A")
                 (A') (A') (A") (A') (A') (A") (A') (A') (A") (A")
                 (A') (A') (A') (A") (A") (A') (A') (A") (A') (A')
                 (A") (A') (A') (A') (A") (A') (A") (A') (A') (A')
                 (A") (A") (A") (A') (A') (A") (A') (A') (A') (A')
                 (A") (A') (A') (A') (A') (A") (A') (A") (A') (A")
                 (A") (A') (A") (A') (A') (A') (A') (A')
 The electronic state of the initial guess is 1-A'.
 Leave Link  401 at Mon Dec 20 16:21:44 2021, MaxMem= 16106127360 cpu:               8.8 elap:               0.4
 (Enter /sw/contrib/gaussian/g16/B01/g16/l502.exe)
 Keep R1 ints in memory in symmetry-blocked form, NReq=77719999.
 FoFCou: FMM=F IPFlag=           0 FMFlag=           0 FMFlg1=           0
         NFxFlg=           0 DoJE=F BraDBF=F KetDBF=F FulRan=T
         wScrn=  0.000000 ICntrl=       600 IOpCl=  0 I1Cent=           0 NGrid=           0
         NMat0=    1 NMatS0=  10153 NMatT0=    0 NMatD0=    1 NMtDS0=    0 NMtDT0=    0
 Petite list used in FoFCou.
 Closed shell SCF:
 Using DIIS extrapolation, IDIIS=  1040.
 NGot= 16106127360 LenX= 16079895165 LenY= 16079867828
 Requested convergence on RMS density matrix=1.00D-08 within 128 cycles.
 Requested convergence on MAX density matrix=1.00D-06.
 Requested convergence on             energy=1.00D-06.
 No special actions if energy rises.

 Cycle   1  Pass 1  IDiag  1:
 E= -535.463123946008    
 DIIS: error= 4.03D-02 at cycle   1 NSaved=   1.
 NSaved= 1 IEnMin= 1 EnMin= -535.463123946008     IErMin= 1 ErrMin= 4.03D-02
 ErrMax= 4.03D-02  0.00D+00 EMaxC= 1.00D-01 BMatC= 3.34D-01 BMatP= 3.34D-01
 IDIUse=3 WtCom= 5.97D-01 WtEn= 4.03D-01
 Coeff-Com:  0.100D+01
 Coeff-En:   0.100D+01
 Coeff:      0.100D+01
 Gap=     0.400 Goal=   None    Shift=    0.000
 GapD=    0.400 DampG=1.000 DampE=0.500 DampFc=0.5000 IDamp=-1.
 Damping current iteration by 5.00D-01
 RMSDP=2.33D-03 MaxDP=5.77D-02              OVMax= 1.50D-01

 Cycle   2  Pass 1  IDiag  1:
 E= -535.536201962729     Delta-E=       -0.073078016721 Rises=F Damp=T
 DIIS: error= 1.56D-02 at cycle   2 NSaved=   2.
 NSaved= 2 IEnMin= 2 EnMin= -535.536201962729     IErMin= 2 ErrMin= 1.56D-02
 ErrMax= 1.56D-02  0.00D+00 EMaxC= 1.00D-01 BMatC= 6.15D-02 BMatP= 3.34D-01
 IDIUse=3 WtCom= 8.44D-01 WtEn= 1.56D-01
 Coeff-Com: -0.417D+00 0.142D+01
 Coeff-En:   0.000D+00 0.100D+01
 Coeff:     -0.352D+00 0.135D+01
 Gap=     0.316 Goal=   None    Shift=    0.000
 RMSDP=9.58D-04 MaxDP=3.73D-02 DE=-7.31D-02 OVMax= 8.05D-02

 Cycle   3  Pass 1  IDiag  1:
 E= -535.601466927688     Delta-E=       -0.065264964959 Rises=F Damp=F
 DIIS: error= 6.72D-03 at cycle   3 NSaved=   3.
 NSaved= 3 IEnMin= 3 EnMin= -535.601466927688     IErMin= 3 ErrMin= 6.72D-03
 ErrMax= 6.72D-03  0.00D+00 EMaxC= 1.00D-01 BMatC= 3.98D-03 BMatP= 6.15D-02
 IDIUse=3 WtCom= 9.33D-01 WtEn= 6.72D-02
 Coeff-Com: -0.172D+00 0.314D+00 0.859D+00
 Coeff-En:   0.000D+00 0.000D+00 0.100D+01
 Coeff:     -0.161D+00 0.293D+00 0.868D+00
 Gap=     0.321 Goal=   None    Shift=    0.000
 RMSDP=2.26D-04 MaxDP=6.70D-03 DE=-6.53D-02 OVMax= 1.95D-02

 Cycle   4  Pass 1  IDiag  1:
 E= -535.604388653302     Delta-E=       -0.002921725614 Rises=F Damp=F
 DIIS: error= 1.30D-03 at cycle   4 NSaved=   4.
 NSaved= 4 IEnMin= 4 EnMin= -535.604388653302     IErMin= 4 ErrMin= 1.30D-03
 ErrMax= 1.30D-03  0.00D+00 EMaxC= 1.00D-01 BMatC= 1.16D-04 BMatP= 3.98D-03
 IDIUse=3 WtCom= 9.87D-01 WtEn= 1.30D-02
 Coeff-Com: -0.187D-01 0.293D-01 0.166D+00 0.824D+00
 Coeff-En:   0.000D+00 0.000D+00 0.000D+00 0.100D+01
 Coeff:     -0.184D-01 0.289D-01 0.163D+00 0.826D+00
 Gap=     0.315 Goal=   None    Shift=    0.000
 RMSDP=5.39D-05 MaxDP=1.28D-03 DE=-2.92D-03 OVMax= 3.55D-03

 Cycle   5  Pass 1  IDiag  1:
 E= -535.604530739362     Delta-E=       -0.000142086060 Rises=F Damp=F
 DIIS: error= 3.73D-04 at cycle   5 NSaved=   5.
 NSaved= 5 IEnMin= 5 EnMin= -535.604530739362     IErMin= 5 ErrMin= 3.73D-04
 ErrMax= 3.73D-04  0.00D+00 EMaxC= 1.00D-01 BMatC= 1.32D-05 BMatP= 1.16D-04
 IDIUse=3 WtCom= 9.96D-01 WtEn= 3.73D-03
 Coeff-Com:  0.277D-01-0.523D-01-0.138D+00-0.124D+00 0.129D+01
 Coeff-En:   0.000D+00 0.000D+00 0.000D+00 0.000D+00 0.100D+01
 Coeff:      0.276D-01-0.521D-01-0.138D+00-0.123D+00 0.129D+01
 Gap=     0.316 Goal=   None    Shift=    0.000
 RMSDP=3.76D-05 MaxDP=1.03D-03 DE=-1.42D-04 OVMax= 3.63D-03

 Cycle   6  Pass 1  IDiag  1:
 E= -535.604572736002     Delta-E=       -0.000041996640 Rises=F Damp=F
 DIIS: error= 1.32D-04 at cycle   6 NSaved=   6.
 NSaved= 6 IEnMin= 6 EnMin= -535.604572736002     IErMin= 6 ErrMin= 1.32D-04
 ErrMax= 1.32D-04  0.00D+00 EMaxC= 1.00D-01 BMatC= 8.04D-07 BMatP= 1.32D-05
 IDIUse=3 WtCom= 9.99D-01 WtEn= 1.32D-03
 Coeff-Com: -0.331D-02 0.718D-02 0.178D-01-0.485D-02-0.347D+00 0.133D+01
 Coeff-En:   0.000D+00 0.000D+00 0.000D+00 0.000D+00 0.000D+00 0.100D+01
 Coeff:     -0.331D-02 0.717D-02 0.178D-01-0.485D-02-0.347D+00 0.133D+01
 Gap=     0.316 Goal=   None    Shift=    0.000
 RMSDP=1.10D-05 MaxDP=3.01D-04 DE=-4.20D-05 OVMax= 1.19D-03

 Cycle   7  Pass 1  IDiag  1:
 E= -535.604575732418     Delta-E=       -0.000002996416 Rises=F Damp=F
 DIIS: error= 2.03D-05 at cycle   7 NSaved=   7.
 NSaved= 7 IEnMin= 7 EnMin= -535.604575732418     IErMin= 7 ErrMin= 2.03D-05
 ErrMax= 2.03D-05  0.00D+00 EMaxC= 1.00D-01 BMatC= 3.25D-08 BMatP= 8.04D-07
 IDIUse=1 WtCom= 1.00D+00 WtEn= 0.00D+00
 Coeff-Com:  0.215D-04-0.358D-03-0.879D-03 0.338D-02 0.605D-01-0.417D+00
 Coeff-Com:  0.135D+01
 Coeff:      0.215D-04-0.358D-03-0.879D-03 0.338D-02 0.605D-01-0.417D+00
 Coeff:      0.135D+01
 Gap=     0.316 Goal=   None    Shift=    0.000
 RMSDP=2.50D-06 MaxDP=6.18D-05 DE=-3.00D-06 OVMax= 2.76D-04

 Cycle   8  Pass 1  IDiag  1:
 E= -535.604575856972     Delta-E=       -0.000000124554 Rises=F Damp=F
 DIIS: error= 3.84D-06 at cycle   8 NSaved=   8.
 NSaved= 8 IEnMin= 8 EnMin= -535.604575856972     IErMin= 8 ErrMin= 3.84D-06
 ErrMax= 3.84D-06  0.00D+00 EMaxC= 1.00D-01 BMatC= 2.28D-09 BMatP= 3.25D-08
 IDIUse=1 WtCom= 1.00D+00 WtEn= 0.00D+00
 Coeff-Com:  0.226D-03-0.433D-03-0.948D-03-0.797D-03 0.123D-01-0.140D-01
 Coeff-Com: -0.192D+00 0.120D+01
 Coeff:      0.226D-03-0.433D-03-0.948D-03-0.797D-03 0.123D-01-0.140D-01
 Coeff:     -0.192D+00 0.120D+01
 Gap=     0.316 Goal=   None    Shift=    0.000
 RMSDP=5.08D-07 MaxDP=9.83D-06 DE=-1.25D-07 OVMax= 4.84D-05

 Cycle   9  Pass 1  IDiag  1:
 E= -535.604575863939     Delta-E=       -0.000000006967 Rises=F Damp=F
 DIIS: error= 1.45D-06 at cycle   9 NSaved=   9.
 NSaved= 9 IEnMin= 9 EnMin= -535.604575863939     IErMin= 9 ErrMin= 1.45D-06
 ErrMax= 1.45D-06  0.00D+00 EMaxC= 1.00D-01 BMatC= 2.41D-10 BMatP= 2.28D-09
 IDIUse=1 WtCom= 1.00D+00 WtEn= 0.00D+00
 Coeff-Com: -0.267D-04 0.905D-04 0.247D-03-0.182D-03-0.942D-02 0.544D-01
 Coeff-Com: -0.131D+00-0.207D+00 0.129D+01
 Coeff:     -0.267D-04 0.905D-04 0.247D-03-0.182D-03-0.942D-02 0.544D-01
 Coeff:     -0.131D+00-0.207D+00 0.129D+01
 Gap=     0.316 Goal=   None    Shift=    0.000
 RMSDP=2.04D-07 MaxDP=4.89D-06 DE=-6.97D-09 OVMax= 1.76D-05

 Cycle  10  Pass 1  IDiag  1:
 E= -535.604575864810     Delta-E=       -0.000000000871 Rises=F Damp=F
 DIIS: error= 3.39D-07 at cycle  10 NSaved=  10.
 NSaved=10 IEnMin=10 EnMin= -535.604575864810     IErMin=10 ErrMin= 3.39D-07
 ErrMax= 3.39D-07  0.00D+00 EMaxC= 1.00D-01 BMatC= 1.37D-11 BMatP= 2.41D-10
 IDIUse=1 WtCom= 1.00D+00 WtEn= 0.00D+00
 Coeff-Com: -0.849D-05 0.128D-04 0.120D-04 0.440D-04 0.271D-03-0.428D-02
 Coeff-Com:  0.235D-01-0.433D-01-0.154D+00 0.118D+01
 Coeff:     -0.849D-05 0.128D-04 0.120D-04 0.440D-04 0.271D-03-0.428D-02
 Coeff:      0.235D-01-0.433D-01-0.154D+00 0.118D+01
 Gap=     0.316 Goal=   None    Shift=    0.000
 RMSDP=5.12D-08 MaxDP=1.13D-06 DE=-8.71D-10 OVMax= 3.64D-06

 Cycle  11  Pass 1  IDiag  1:
 E= -535.604575864851     Delta-E=       -0.000000000042 Rises=F Damp=F
 DIIS: error= 1.15D-07 at cycle  11 NSaved=  11.
 NSaved=11 IEnMin=11 EnMin= -535.604575864851     IErMin=11 ErrMin= 1.15D-07
 ErrMax= 1.15D-07  0.00D+00 EMaxC= 1.00D-01 BMatC= 1.10D-12 BMatP= 1.37D-11
 IDIUse=1 WtCom= 1.00D+00 WtEn= 0.00D+00
 Coeff-Com:  0.323D-05-0.970D-05-0.249D-04 0.143D-04 0.885D-03-0.496D-02
 Coeff-Com:  0.111D-01 0.207D-01-0.121D+00-0.104D-01 0.110D+01
 Coeff:      0.323D-05-0.970D-05-0.249D-04 0.143D-04 0.885D-03-0.496D-02
 Coeff:      0.111D-01 0.207D-01-0.121D+00-0.104D-01 0.110D+01
 Gap=     0.316 Goal=   None    Shift=    0.000
 RMSDP=1.44D-08 MaxDP=3.24D-07 DE=-4.18D-11 OVMax= 1.04D-06

 Cycle  12  Pass 1  IDiag  1:
 E= -535.604575864855     Delta-E=       -0.000000000004 Rises=F Damp=F
 DIIS: error= 1.89D-08 at cycle  12 NSaved=  12.
 NSaved=12 IEnMin=12 EnMin= -535.604575864855     IErMin=12 ErrMin= 1.89D-08
 ErrMax= 1.89D-08  0.00D+00 EMaxC= 1.00D-01 BMatC= 6.18D-14 BMatP= 1.10D-12
 IDIUse=1 WtCom= 1.00D+00 WtEn= 0.00D+00
 Coeff-Com: -0.250D-06 0.141D-05 0.600D-05-0.242D-05-0.220D-03 0.127D-02
 Coeff-Com: -0.313D-02-0.410D-02 0.370D-01-0.487D-01-0.320D+00 0.134D+01
 Coeff:     -0.250D-06 0.141D-05 0.600D-05-0.242D-05-0.220D-03 0.127D-02
 Coeff:     -0.313D-02-0.410D-02 0.370D-01-0.487D-01-0.320D+00 0.134D+01
 Gap=     0.316 Goal=   None    Shift=    0.000
 RMSDP=4.02D-09 MaxDP=9.61D-08 DE=-3.98D-12 OVMax= 3.75D-07

 SCF Done:  E(RHF) =  -535.604575865     A.U. after   12 cycles
            NFock= 12  Conv=0.40D-08     -V/T= 2.0008
 KE= 5.351964825113D+02 PE=-1.359255988963D+03 EE= 2.501096634825D+02
 Leave Link  502 at Mon Dec 20 16:21:45 2021, MaxMem= 16106127360 cpu:              30.8 elap:               1.4
 (Enter /sw/contrib/gaussian/g16/B01/g16/l801.exe)
 ExpMin= 2.53D-02 ExpMax= 4.56D+05 ExpMxC= 1.44D+03 IAcc=3 IRadAn=         5 AccDes= 0.00D+00
 HarFok:  IExCor=  205 AccDes= 0.00D+00 IRadAn=         5 IDoV=-2 UseB2=F ITyADJ=14
 ICtDFT= 12500011 ScaDFX=  1.000000  1.000000  1.000000  1.000000
 DSYEVD-2 returned Info=          93 IAlg= 4 N=    46 NDim=    46 NE2=   322121132 trying  DSYEV.
 Largest valence mixing into a core orbital is  4.53D-04
 Largest core mixing into a valence orbital is  1.83D-04
 Range of M.O.s used for correlation:     7   142
 NBasis=   142 NAE=    14 NBE=    14 NFC=     6 NFV=     0
 NROrb=    136 NOA=     8 NOB=     8 NVA=   128 NVB=   128

 **** Warning!!: The largest alpha MO coefficient is  0.13537528D+02

 Leave Link  801 at Mon Dec 20 16:21:45 2021, MaxMem= 16106127360 cpu:               3.2 elap:               0.2
 (Enter /sw/contrib/gaussian/g16/B01/g16/l906.exe)
 Frozen-core derivative calculation, NFC=   6 NFV=   0.
 FulOut=F Deriv=T AODrv=T NAtomX=     4
   MMem=         252  MDisk=           8 MDiskD=           8
  W3Min=      326032 MinDsk=      657538 NBas6D=         164
 NBas2D=       13905    NTT=       13530    LW2=     3500000
    MDV= 16105837616 MDiskM=      490970 NBas2p=       13822
 Fully direct method using O(ONN) memory.
 IMap=   1   2   3   4   5   6   7   8   9  10  11  12  13  14
 JobTyp=1 Pass  1:  I=   7 to  14 NPSUse= 28 ParTrn=T ParDer=T DoDerP=T.
 Spin components of T(2) and E(2):
     alpha-alpha T2 =       0.2086186452D-01 E2=     -0.6138896269D-01
     alpha-beta  T2 =       0.1162848440D+00 E2=     -0.3719950293D+00
     beta-beta   T2 =       0.2086186452D-01 E2=     -0.6138896269D-01
 The integrals were generated   1 times.
 ANorm=    0.1076108068D+01
 E2 =    -0.4947729547D+00 EUMP2 =    -0.53609934881954D+03
 Leave Link  906 at Mon Dec 20 16:21:50 2021, MaxMem= 16106127360 cpu:             122.4 elap:               4.4
 (Enter /sw/contrib/gaussian/g16/B01/g16/l1002.exe)
 Minotr:  Closed shell wavefunction.
          Computing MP2/KS-MP2 derivatives.
          Using Z-Vector for PSCF gradient.
          Skipping F1 and S1 gradient terms here.
          IDoAtm=1111
          Frozen-core window.
          Direct CPHF calculation.
          Differentiating once with respect to electric field.
                with respect to dipole field.
          Differentiating once with respect to nuclear coordinates.
          Using symmetry in CPHF.
          Requested convergence is 1.0D-10 RMS, and 1.0D-09 maximum.
          NewPWx=F KeepS1=T KeepF1=T KeepIn=T MapXYZ=F SortEE=F KeepMc=T.
 Keep R1 ints in memory in symmetry-blocked form, NReq=77720963.
 FoFCou: FMM=F IPFlag=           0 FMFlag=           0 FMFlg1=           0
         NFxFlg=           0 DoJE=F BraDBF=F KetDBF=F FulRan=T
         wScrn=  0.000000 ICntrl=       600 IOpCl=  0 I1Cent=           0 NGrid=           0
         NMat0=    1 NMatS0=  10153 NMatT0=    0 NMatD0=    1 NMtDS0=    0 NMtDT0=    0
 Petite list used in FoFCou.
          MDV=   16106127360 using IRadAn=       5.
          Solving linear equations separately, MaxMat=       0.
          There are     1 degrees of freedom in the 1st order CPHF.  IDoFFX=0 NUNeed=     1.
 LinEq1:  Iter=  0 NonCon=     1 RMS=3.58D-03 Max=5.43D-02 NDo=     1
 AX will form     1 AO Fock derivatives at one time.
 LinEq1:  Iter=  1 NonCon=     1 RMS=5.52D-04 Max=6.38D-03 NDo=     1
 LinEq1:  Iter=  2 NonCon=     1 RMS=1.85D-04 Max=2.45D-03 NDo=     1
 LinEq1:  Iter=  3 NonCon=     1 RMS=7.60D-05 Max=8.13D-04 NDo=     1
 LinEq1:  Iter=  4 NonCon=     1 RMS=2.08D-05 Max=2.15D-04 NDo=     1
 LinEq1:  Iter=  5 NonCon=     1 RMS=4.89D-06 Max=3.87D-05 NDo=     1
 LinEq1:  Iter=  6 NonCon=     1 RMS=1.40D-06 Max=1.21D-05 NDo=     1
 LinEq1:  Iter=  7 NonCon=     1 RMS=3.47D-07 Max=4.25D-06 NDo=     1
 LinEq1:  Iter=  8 NonCon=     1 RMS=7.99D-08 Max=1.07D-06 NDo=     1
 LinEq1:  Iter=  9 NonCon=     1 RMS=2.06D-08 Max=2.16D-07 NDo=     1
 LinEq1:  Iter= 10 NonCon=     1 RMS=3.32D-09 Max=3.08D-08 NDo=     1
 LinEq1:  Iter= 11 NonCon=     1 RMS=6.02D-10 Max=5.24D-09 NDo=     1
 LinEq1:  Iter= 12 NonCon=     1 RMS=1.52D-10 Max=1.85D-09 NDo=     1
 LinEq1:  Iter= 13 NonCon=     0 RMS=2.77D-11 Max=2.73D-10 NDo=     1
 Linear equations converged to 1.000D-10 1.000D-09 after    13 iterations.
 End of Minotr F.D. properties file   721 does not exist.
 End of Minotr F.D. properties file   722 does not exist.
 End of Minotr F.D. properties file   788 does not exist.
 Leave Link 1002 at Mon Dec 20 16:21:51 2021, MaxMem= 16106127360 cpu:              30.3 elap:               1.5
 (Enter /sw/contrib/gaussian/g16/B01/g16/l601.exe)
 Copying SCF densities to generalized density rwf, IOpCl= 0 IROHF=0.

 **********************************************************************

            Population analysis using the MP2 Density.

 **********************************************************************

 Orbital symmetries:
       Occupied  (A') (A') (A') (A') (A') (A") (A') (A') (A') (A')
                 (A") (A') (A') (A")
       Virtual   (A') (A') (A') (A") (A') (A') (A') (A") (A') (A')
                 (A') (A") (A') (A") (A') (A') (A") (A') (A') (A')
                 (A") (A') (A') (A') (A') (A') (A") (A") (A') (A")
                 (A') (A") (A') (A') (A") (A") (A') (A') (A') (A')
                 (A') (A") (A') (A') (A") (A') (A") (A") (A') (A")
                 (A') (A') (A') (A") (A') (A") (A') (A') (A') (A")
                 (A') (A") (A') (A') (A') (A") (A') (A') (A") (A")
                 (A') (A') (A") (A') (A') (A') (A") (A") (A') (A')
                 (A") (A') (A') (A") (A') (A") (A') (A") (A') (A')
                 (A') (A") (A') (A') (A") (A') (A') (A") (A') (A")
                 (A') (A") (A") (A') (A') (A") (A') (A') (A') (A')
                 (A") (A') (A') (A') (A') (A") (A') (A") (A') (A")
                 (A") (A') (A") (A') (A') (A') (A') (A')
 The electronic state is 1-A'.
 Alpha  occ. eigenvalues -- -104.53156 -20.39747 -10.25608  -7.72219  -7.72210
 Alpha  occ. eigenvalues --   -7.72210  -1.10767  -0.76717  -0.46510  -0.37179
 Alpha  occ. eigenvalues --   -0.31584  -0.18343  -0.17902  -0.17856
 Alpha virt. eigenvalues --    0.13749   0.18152   0.25581   0.26779   0.27099
 Alpha virt. eigenvalues --    0.28299   0.30349   0.31450   0.34406   0.39456
 Alpha virt. eigenvalues --    0.40615   0.41488   0.42651   0.50158   0.51693
 Alpha virt. eigenvalues --    0.55726   0.57882   0.58469   0.59013   0.66292
 Alpha virt. eigenvalues --    0.68678   0.70259   0.72817   0.81720   0.83512
 Alpha virt. eigenvalues --    0.87691   0.88419   0.91137   0.91680   0.92989
 Alpha virt. eigenvalues --    1.01200   1.01642   1.02487   1.04760   1.08162
 Alpha virt. eigenvalues --    1.09587   1.09816   1.10457   1.14672   1.15982
 Alpha virt. eigenvalues --    1.19653   1.19768   1.23259   1.26259   1.27615
 Alpha virt. eigenvalues --    1.28330   1.30472   1.40591   1.41052   1.44384
 Alpha virt. eigenvalues --    1.44681   1.52157   1.55085   1.58304   1.60279
 Alpha virt. eigenvalues --    1.62994   1.70308   1.74013   1.78266   1.79448
 Alpha virt. eigenvalues --    1.87113   1.90411   1.94160   2.00204   2.25811
 Alpha virt. eigenvalues --    2.43097   2.54538   2.54861   2.58676   2.61096
 Alpha virt. eigenvalues --    2.63025   2.65198   2.80273   2.80381   2.80930
 Alpha virt. eigenvalues --    2.84612   2.85843   2.92377   2.93164   2.95707
 Alpha virt. eigenvalues --    2.97955   3.03150   3.07155   3.14386   3.31205
 Alpha virt. eigenvalues --    3.34337   3.34396   3.39521   3.39717   3.41352
 Alpha virt. eigenvalues --    3.48992   3.50041   3.54521   3.61010   4.12594
 Alpha virt. eigenvalues --    4.15732   4.21407   4.27843   4.33232   4.40667
 Alpha virt. eigenvalues --    4.42530   4.48186   4.59883   4.63934   4.68638
 Alpha virt. eigenvalues --    4.87472   4.93610   5.01122   5.21458   5.35743
 Alpha virt. eigenvalues --    5.43763   5.55722   6.17488   6.50315   6.69915
 Alpha virt. eigenvalues --    6.89192   6.97055   7.02348   7.27799   7.32698
 Alpha virt. eigenvalues --    7.42021   7.48937   7.61520   7.66199   7.90670
 Alpha virt. eigenvalues --    8.13889   8.19488  13.95831
          Condensed to atoms (all electrons):
               1          2          3          4
     1  O    8.350910   0.206257  -0.074596   0.119064
     2  H    0.206257   0.559500   0.002579   0.029991
     3  Cl  -0.074596   0.002579  17.925583   0.045776
     4  H    0.119064   0.029991   0.045776   0.505865
 Mulliken charges:
               1
     1  O   -0.601634
     2  H    0.201673
     3  Cl  -0.899343
     4  H    0.299304
 Sum of Mulliken charges =  -1.00000
 Mulliken charges with hydrogens summed into heavy atoms:
               1
     1  O   -0.100657
     3  Cl  -0.899343
 Electronic spatial extent (au):  <R**2>=            272.4695
 Charge=             -1.0000 electrons
 Dipole moment (field-independent basis, Debye):
    X=             -1.5538    Y=              2.4143    Z=             -0.0000  Tot=              2.8711
 Quadrupole moment (field-independent basis, Debye-Ang):
   XX=            -22.5649   YY=            -35.4584   ZZ=            -25.4446
   XY=             -3.5318   XZ=             -0.0000   YZ=              0.0000
 Traceless Quadrupole moment (field-independent basis, Debye-Ang):
   XX=              5.2577   YY=             -7.6357   ZZ=              2.3780
   XY=             -3.5318   XZ=             -0.0000   YZ=              0.0000
 Octapole moment (field-independent basis, Debye-Ang**2):
  XXX=             -2.4899  YYY=              4.7896  ZZZ=             -0.0000  XYY=             -9.2377
  XXY=              8.4868  XXZ=             -0.0000  XZZ=              0.0158  YZZ=              2.0906
  YYZ=             -0.0000  XYZ=              0.0000
 Hexadecapole moment (field-independent basis, Debye-Ang**3):
 XXXX=            -38.4330 YYYY=           -361.4926 ZZZZ=            -38.0558 XXXY=              0.8724
 XXXZ=             -0.0000 YYYX=            -14.9619 YYYZ=              0.0000 ZZZX=             -0.0000
 ZZZY=              0.0000 XXYY=            -52.5378 XXZZ=            -13.3213 YYZZ=            -66.0395
 XXYZ=              0.0000 YYXZ=             -0.0000 ZZXY=              2.2503
 N-N= 3.834526710424D+01 E-N=-1.359246288805D+03  KE= 5.357055795292D+02
 Symmetry A'   KE= 4.859316704480D+02
 Symmetry A"   KE= 4.977390908122D+01
 No NMR shielding tensors so no spin-rotation constants.
 Leave Link  601 at Mon Dec 20 16:21:52 2021, MaxMem= 16106127360 cpu:               7.3 elap:               0.3
 (Enter /sw/contrib/gaussian/g16/B01/g16/l701.exe)
 ... and contract with generalized density number  2.
 Compute integral first derivatives.
 Leave Link  701 at Mon Dec 20 16:21:52 2021, MaxMem= 16106127360 cpu:               7.1 elap:               0.3
 (Enter /sw/contrib/gaussian/g16/B01/g16/l702.exe)
 L702 exits ... SP integral derivatives will be done elsewhere.
 Leave Link  702 at Mon Dec 20 16:21:52 2021, MaxMem= 16106127360 cpu:               0.8 elap:               0.1
 (Enter /sw/contrib/gaussian/g16/B01/g16/l703.exe)
 Integral derivatives from FoFJK, PRISM(SPDF).
 Compute integral first derivatives, UseDBF=F ICtDFT=           0.
 Calling FoFJK, ICntrl=  10002127 FMM=F ISym2X=1 I1Cent= 0 IOpClX= 0 NMat=1 NMatS=1 NMatT=0.
 FoFJK:  IHMeth= 1 ICntrl=10002127 DoSepK=F KAlg= 0 I1Cent=           0 FoldK=F
 IRaf=         0 NMat=       1 IRICut=       1 DoRegI=T DoRafI=F ISym2E= 1 IDoP0=0 IntGTp=1.
 FoFCou: FMM=F IPFlag=           0 FMFlag=      100000 FMFlg1=         800
         NFxFlg=           0 DoJE=F BraDBF=F KetDBF=F FulRan=T
         wScrn=  0.000000 ICntrl=  10002127 IOpCl=  0 I1Cent=           0 NGrid=           0
         NMat0=    1 NMatS0=      1 NMatT0=    0 NMatD0=    1 NMtDS0=    0 NMtDT0=    0
 Petite list used in FoFCou.
 Leave Link  703 at Mon Dec 20 16:21:53 2021, MaxMem= 16106127360 cpu:              25.9 elap:               1.0
 (Enter /sw/contrib/gaussian/g16/B01/g16/l716.exe)
 Dipole        =-6.11296011D-01 9.49854682D-01-6.35618652D-33
 ***** Axes restored to original set *****
 -------------------------------------------------------------------
 Center     Atomic                   Forces (Hartrees/Bohr)
 Number     Number              X              Y              Z
 -------------------------------------------------------------------
      1        8           0.105745784   -0.003727049   -0.000000000
      2        1          -0.116326007   -0.007391424    0.000000000
      3       17           0.000479864   -0.000177258    0.000000000
      4        1           0.010100358    0.011295730   -0.000000000
 -------------------------------------------------------------------
 Cartesian Forces:  Max     0.116326007 RMS     0.045654780
 -----------------------------------------------------------------------------------------------
                       Internal Coordinate Forces (Hartree/Bohr or radian)
  Cent   Atom   N1       Length/X         N2         Alpha/Y        N3         Beta/Z          J
 -----------------------------------------------------------------------------------------------
      1  O 
         X        1   0.000000(     1)
      2  H        1  -0.116326(     2)      2  -0.000000(     5)
      3  Cl       1   0.000060(     3)      2  -0.000000(     6)      3  -0.002948(     8)     0
      4  H        1  -0.013343(     4)      2   0.000000(     7)      3  -0.013814(     9)     0
 -----------------------------------------------------------------------------------------------
 Internal  Forces:  Max     0.116326007 RMS     0.039312523
 Force constants in Cartesian coordinates: 
                1             2             3             4             5 
      1  0.335918D+00
      2  0.437583D-01  0.532258D+00
      3  0.000000D+00  0.000000D+00  0.193351D-01
      4 -0.246653D+00  0.000000D+00  0.000000D+00  0.246653D+00
      5  0.474948D-01 -0.736380D-01  0.000000D+00  0.000000D+00  0.622286D-01
      6  0.000000D+00  0.000000D+00  0.000000D+00  0.000000D+00  0.000000D+00
      7  0.336367D-02  0.570465D-02  0.000000D+00  0.000000D+00 -0.118229D-01
      8 -0.611827D-02 -0.234757D-01  0.000000D+00  0.000000D+00  0.284016D-02
      9  0.000000D+00  0.000000D+00  0.958520D-02  0.000000D+00  0.000000D+00
     10 -0.926291D-01 -0.494630D-01  0.000000D+00  0.000000D+00 -0.356719D-01
     11 -0.851349D-01 -0.435144D+00  0.000000D+00  0.000000D+00  0.856928D-02
     12  0.000000D+00  0.000000D+00 -0.289203D-01  0.000000D+00  0.000000D+00
                6             7             8             9            10 
      6  0.100000D+01
      7  0.000000D+00  0.101911D-01
      8  0.000000D+00  0.286208D-02  0.214177D-01
      9  0.000000D+00  0.000000D+00  0.000000D+00  0.475177D-02
     10  0.000000D+00 -0.135547D-01  0.325619D-02  0.000000D+00  0.106184D+00
     11  0.000000D+00  0.325619D-02 -0.782216D-03  0.000000D+00  0.818787D-01
     12  0.000000D+00  0.000000D+00  0.000000D+00 -0.143370D-01  0.000000D+00
               11            12 
     11  0.427357D+00
     12  0.000000D+00  0.432573D-01
 Force constants in internal coordinates: 
                1             2             3             4             5 
      1  0.000000D+00
      2  0.000000D+00  0.246653D+00
      3  0.000000D+00  0.000000D+00  0.221053D-01
      4  0.000000D+00  0.000000D+00  0.000000D+00  0.447026D+00
      5  0.000000D+00  0.000000D+00  0.000000D+00  0.000000D+00  0.514233D+01
      6  0.000000D+00  0.000000D+00  0.000000D+00  0.000000D+00  0.000000D+00
      7  0.000000D+00  0.000000D+00  0.000000D+00  0.000000D+00  0.000000D+00
      8  0.000000D+00  0.000000D+00  0.000000D+00  0.000000D+00  0.000000D+00
      9  0.000000D+00  0.000000D+00  0.000000D+00  0.000000D+00  0.000000D+00
                6             7             8             9 
      6  0.160000D+00
      7 -0.160000D+00  0.160000D+00
      8  0.000000D+00  0.000000D+00  0.320000D+00
      9  0.000000D+00  0.000000D+00 -0.160000D+00  0.320000D+00
 Leave Link  716 at Mon Dec 20 16:21:53 2021, MaxMem= 16106127360 cpu:               7.8 elap:               0.3
 (Enter /sw/contrib/gaussian/g16/B01/g16/l103.exe)

 GradGradGradGradGradGradGradGradGradGradGradGradGradGradGradGradGradGrad
 Berny optimization.
 Search for a local minimum.
 Step number   1 out of a maximum of   20
 All quantities printed in internal units (Hartrees-Bohrs-Radians)
 Second derivative matrix not updated -- first step.
 The second derivative matrix:
                          r1        r2        r3        a1        a2
           r1           0.24665
           r2           0.00000   0.02211
           r3           0.00000  -0.00000   0.44703
           a1          -0.00000  -0.00000  -0.00000   5.14233
           a2           0.00000  -0.00000  -0.00000  -0.00000   0.16000
           d1          -0.00000   0.00000   0.00000   0.00000  -0.00000
           d2          -0.00000   0.00000   0.00000   0.00000  -0.00000
           OOP          0.00000  -0.00000  -0.00000  -0.00000  -0.16000
                          d1        d2        OOP
           d1           0.32000
           d2          -0.16000   0.32000
           OOP         -0.00000  -0.00000   0.16000
 ITU=  0
     Eigenvalues ---   -0.00000   0.02211   0.16000   0.24665   0.32000
     Eigenvalues ---    0.44703   0.48000   5.14233
 Eigenvalue     1 is  -1.11D-16 should be greater than     0.000000 Eigenvector:
                          a2        OOP       d2        d1        r2
   1                    0.70711   0.70711   0.00000   0.00000   0.00000
                          r3        r1        a1
   1                    0.00000   0.00000  -0.00000
 RFO step:  Lambda=-4.71996188D-02 EMin=-1.11022302D-16
 Linear search not attempted -- first point.
 Maximum step size (   0.300) exceeded in Quadratic search.
    -- Step size scaled by   0.748
 Variable       Old X    -DE/DX   Delta X   Delta X   Delta X     New X
                                 (Linear)    (Quad)   (Total)
    r1        2.26767  -0.11633   0.00000  -0.29605  -0.29605   1.97163
    r2        5.80273   0.00006   0.00000   0.00065   0.00065   5.80338
    r3        1.92323  -0.01334   0.00000  -0.02019  -0.02019   1.90304
    a1        1.57080  -0.00000   0.00000  -0.00000   0.00000   1.57080
    a2        1.57080  -0.00000   0.00000  -0.00000   0.00000   1.57080
    d1        1.80655  -0.00295   0.00000  -0.02254  -0.02254   1.78401
    d2        1.80655  -0.01381   0.00000  -0.03796  -0.03796   1.76860
   OOP        1.57080   0.00000   0.00000  -0.00000   0.00000   1.57080
         Item               Value     Threshold  Converged?
 Maximum Force            0.116326     0.000450     NO 
 RMS     Force            0.041697     0.000300     NO 
 Maximum Displacement     0.296046     0.001800     NO 
 RMS     Displacement     0.106066     0.001200     NO 
 Predicted change in Energy=-2.422327D-02
 Lowest energy point so far.  Saving SCF results.
 GradGradGradGradGradGradGradGradGradGradGradGradGradGradGradGradGradGrad

 Leave Link  103 at Mon Dec 20 16:21:54 2021, MaxMem= 16106127360 cpu:               1.9 elap:               0.1
 (Enter /sw/contrib/gaussian/g16/B01/g16/l202.exe)
 ---------------------------------------------------------------------------------------------------
                            Z-MATRIX (ANGSTROMS AND DEGREES)
   CD    Cent   Atom    N1       Length/X        N2       Alpha/Y        N3        Beta/Z          J
 ---------------------------------------------------------------------------------------------------
      1      1  O 
      2         X        1  10.000000(     1)
      3      2  H        1   1.043339(     2)      2   90.000(     5)
      4      3  Cl       1   3.071017(     3)      2   90.000(     6)      3  102.216(     8)      0
      5      4  H        1   1.007044(     4)      2   90.000(     7)      3  101.333(     9)      0
 ---------------------------------------------------------------------------------------------------
                         Z-Matrix orientation:                         
 ---------------------------------------------------------------------
 Center     Atomic      Atomic             Coordinates (Angstroms)
 Number     Number       Type             X           Y           Z
 ---------------------------------------------------------------------
      1          8           0        0.000000    0.000000    0.000000
      2         -1           0        0.000000    0.000000   10.000000
      3          1           0        1.043339    0.000000    0.000000
      4         17           0       -0.649839   -3.001475    0.000000
      5          1           0       -0.197899   -0.987407    0.000000
 ---------------------------------------------------------------------
                    Distance matrix (angstroms):
                    1          2          3          4          5
     1  O    0.000000
     2  X   10.000000   0.000000
     3  H    1.043339  10.054281   0.000000
     4  Cl   3.071017  10.460934   3.446115   0.000000
     5  H    1.007044  10.050579   1.586079   2.064151   0.000000
 Stoichiometry    ClH2O(1-)
 Framework group  CS[SG(ClH2O)]
 Deg. of freedom     5
 Full point group                 CS      NOp   2
 RotChk:  IX=0 Diff= 3.19D-02
 Largest Abelian subgroup         CS      NOp   2
 Largest concise Abelian subgroup C1      NOp   1
                         Standard orientation:                         
 ---------------------------------------------------------------------
 Center     Atomic      Atomic             Coordinates (Angstroms)
 Number     Number       Type             X           Y           Z
 ---------------------------------------------------------------------
      1          8           0        0.038342    1.962720    0.000000
      2          1           0       -0.981371    2.183494   -0.000000
      3         17           0        0.038342   -1.108297    0.000000
      4          1           0        0.022821    0.955796    0.000000
 ---------------------------------------------------------------------
 Rotational constants (GHZ):         276.1336590           4.3868274           4.3182254
 Leave Link  202 at Mon Dec 20 16:21:54 2021, MaxMem= 16106127360 cpu:               0.5 elap:               0.0
 (Enter /sw/contrib/gaussian/g16/B01/g16/l301.exe)
 Standard basis: Aug-CC-pVTZ (5D, 7F)
 Ernie: Thresh=  0.10000D-02 Tol=  0.10000D-05 Strict=F.
 Ernie:  16 primitive shells out of 116 were deleted.
 There are   113 symmetry adapted cartesian basis functions of A'  symmetry.
 There are    51 symmetry adapted cartesian basis functions of A"  symmetry.
 There are    95 symmetry adapted basis functions of A'  symmetry.
 There are    47 symmetry adapted basis functions of A"  symmetry.
   142 basis functions,   240 primitive gaussians,   164 cartesian basis functions
    14 alpha electrons       14 beta electrons
       nuclear repulsion energy        38.9983249200 Hartrees.
 IExCor=    0 DFT=F Ex=HF Corr=None ExCW=0 ScaHFX=  1.000000
 ScaDFX=  1.000000  1.000000  1.000000  1.000000 ScalE2=  1.000000  1.000000
 IRadAn=      5 IRanWt=     -1 IRanGd=            0 ICorTp=0 IEmpDi=  4
 NAtoms=    4 NActive=    4 NUniq=    4 SFac= 1.00D+00 NAtFMM=   60 NAOKFM=F Big=F
 Integral buffers will be    131072 words long.
 Raffenetti 1 integral format.
 Two-electron integral symmetry is turned on.
 Leave Link  301 at Mon Dec 20 16:21:54 2021, MaxMem= 16106127360 cpu:               1.8 elap:               0.1
 (Enter /sw/contrib/gaussian/g16/B01/g16/l302.exe)
 NPDir=0 NMtPBC=     1 NCelOv=     1 NCel=       1 NClECP=     1 NCelD=      1
         NCelK=      1 NCelE2=     1 NClLst=     1 CellRange=     0.0.
 One-electron integrals computed using PRISM.
 One-electron integral symmetry used in STVInt
 NBasis=   142 RedAO= T EigKep=  2.98D-04  NBF=    95    47
 NBsUse=   142 1.00D-06 EigRej= -1.00D+00 NBFU=    95    47
 Leave Link  302 at Mon Dec 20 16:21:54 2021, MaxMem= 16106127360 cpu:               3.8 elap:               0.2
 (Enter /sw/contrib/gaussian/g16/B01/g16/l303.exe)
 DipDrv:  MaxL=1.
 Leave Link  303 at Mon Dec 20 16:21:54 2021, MaxMem= 16106127360 cpu:               0.7 elap:               0.1
 (Enter /sw/contrib/gaussian/g16/B01/g16/l401.exe)
 Initial guess from the checkpoint file:  "/gscratch/ilahie/mccoygrp/coire_hocl/clhod_fully_relaxed.chk"
 B after Tr=     0.000000    0.000000   -0.000000
         Rot=    0.999998    0.000000    0.000000    0.002114 Ang=   0.24 deg.
 Guess basis will be translated and rotated to current coordinates.
 JPrj=2 DoOrth=T DoCkMO=T.
 Initial guess orbital symmetries:
       Occupied  (A') (A') (A') (A') (A') (A") (A') (A') (A') (A')
                 (A") (A') (A') (A")
       Virtual   (A') (A') (A') (A") (A') (A') (A') (A") (A') (A')
                 (A') (A") (A') (A") (A') (A') (A") (A') (A') (A')
                 (A") (A') (A') (A') (A') (A') (A") (A") (A') (A")
                 (A') (A") (A') (A') (A") (A") (A') (A') (A') (A')
                 (A') (A") (A') (A') (A") (A') (A") (A") (A') (A")
                 (A') (A') (A') (A") (A') (A") (A') (A') (A') (A")
                 (A') (A") (A') (A') (A') (A") (A') (A') (A") (A")
                 (A') (A') (A") (A') (A') (A') (A") (A") (A') (A')
                 (A") (A') (A') (A") (A') (A") (A') (A") (A') (A')
                 (A') (A") (A') (A') (A") (A') (A') (A") (A') (A")
                 (A') (A") (A") (A') (A') (A") (A') (A') (A') (A')
                 (A") (A') (A') (A') (A') (A") (A') (A") (A') (A")
                 (A") (A') (A") (A') (A') (A') (A') (A')
 The electronic state of the initial guess is 1-A'.
 Generating alternative initial guess.
 ExpMin= 2.53D-02 ExpMax= 4.56D+05 ExpMxC= 1.44D+03 IAcc=3 IRadAn=         5 AccDes= 0.00D+00
 Harris functional with IExCor=  205 and IRadAn=       5 diagonalized for initial guess.
 HarFok:  IExCor=  205 AccDes= 0.00D+00 IRadAn=         5 IDoV= 1 UseB2=F ITyADJ=14
 ICtDFT=  3500011 ScaDFX=  1.000000  1.000000  1.000000  1.000000
 FoFCou: FMM=F IPFlag=           0 FMFlag=      100000 FMFlg1=           0
         NFxFlg=           0 DoJE=T BraDBF=F KetDBF=T FulRan=T
         wScrn=  0.000000 ICntrl=       500 IOpCl=  0 I1Cent=   200000004 NGrid=           0
         NMat0=    1 NMatS0=      1 NMatT0=    0 NMatD0=    1 NMtDS0=    0 NMtDT0=    0
 Petite list used in FoFCou.
 Harris En= -535.438814287852    
 Leave Link  401 at Mon Dec 20 16:21:54 2021, MaxMem= 16106127360 cpu:               7.8 elap:               0.3
 (Enter /sw/contrib/gaussian/g16/B01/g16/l502.exe)
 Keep R1 ints in memory in symmetry-blocked form, NReq=77719999.
 FoFCou: FMM=F IPFlag=           0 FMFlag=           0 FMFlg1=           0
         NFxFlg=           0 DoJE=F BraDBF=F KetDBF=F FulRan=T
         wScrn=  0.000000 ICntrl=       600 IOpCl=  0 I1Cent=           0 NGrid=           0
         NMat0=    1 NMatS0=  10153 NMatT0=    0 NMatD0=    1 NMtDS0=    0 NMtDT0=    0
 Petite list used in FoFCou.
 Closed shell SCF:
 Using DIIS extrapolation, IDIIS=  1040.
 NGot= 16106127360 LenX= 16079895165 LenY= 16079867828
 Requested convergence on RMS density matrix=1.00D-08 within 128 cycles.
 Requested convergence on MAX density matrix=1.00D-06.
 Requested convergence on             energy=1.00D-06.
 No special actions if energy rises.

 Cycle   1  Pass 1  IDiag  1:
 E= -535.635047465445    
 DIIS: error= 5.26D-03 at cycle   1 NSaved=   1.
 NSaved= 1 IEnMin= 1 EnMin= -535.635047465445     IErMin= 1 ErrMin= 5.26D-03
 ErrMax= 5.26D-03  0.00D+00 EMaxC= 1.00D-01 BMatC= 5.34D-03 BMatP= 5.34D-03
 IDIUse=3 WtCom= 9.47D-01 WtEn= 5.26D-02
 Coeff-Com:  0.100D+01
 Coeff-En:   0.100D+01
 Coeff:      0.100D+01
 Gap=     0.354 Goal=   None    Shift=    0.000
 GapD=    0.354 DampG=1.000 DampE=1.000 DampFc=1.0000 IDamp=-1.
 RMSDP=4.02D-04 MaxDP=1.11D-02              OVMax= 2.48D-02

 Cycle   2  Pass 1  IDiag  1:
 E= -535.639580284137     Delta-E=       -0.004532818692 Rises=F Damp=F
 DIIS: error= 3.22D-03 at cycle   2 NSaved=   2.
 NSaved= 2 IEnMin= 2 EnMin= -535.639580284137     IErMin= 2 ErrMin= 3.22D-03
 ErrMax= 3.22D-03  0.00D+00 EMaxC= 1.00D-01 BMatC= 6.32D-04 BMatP= 5.34D-03
 IDIUse=3 WtCom= 9.68D-01 WtEn= 3.22D-02
 Coeff-Com:  0.843D-01 0.916D+00
 Coeff-En:   0.000D+00 0.100D+01
 Coeff:      0.816D-01 0.918D+00
 Gap=     0.318 Goal=   None    Shift=    0.000
 RMSDP=1.18D-04 MaxDP=4.08D-03 DE=-4.53D-03 OVMax= 8.45D-03

 Cycle   3  Pass 1  IDiag  1:
 E= -535.640100365087     Delta-E=       -0.000520080950 Rises=F Damp=F
 DIIS: error= 1.38D-03 at cycle   3 NSaved=   3.
 NSaved= 3 IEnMin= 3 EnMin= -535.640100365087     IErMin= 3 ErrMin= 1.38D-03
 ErrMax= 1.38D-03  0.00D+00 EMaxC= 1.00D-01 BMatC= 1.40D-04 BMatP= 6.32D-04
 IDIUse=3 WtCom= 9.86D-01 WtEn= 1.38D-02
 Coeff-Com: -0.665D-01 0.259D+00 0.808D+00
 Coeff-En:   0.000D+00 0.000D+00 0.100D+01
 Coeff:     -0.656D-01 0.255D+00 0.810D+00
 Gap=     0.317 Goal=   None    Shift=    0.000
 RMSDP=5.50D-05 MaxDP=1.89D-03 DE=-5.20D-04 OVMax= 5.10D-03

 Cycle   4  Pass 1  IDiag  1:
 E= -535.640252202711     Delta-E=       -0.000151837625 Rises=F Damp=F
 DIIS: error= 4.00D-04 at cycle   4 NSaved=   4.
 NSaved= 4 IEnMin= 4 EnMin= -535.640252202711     IErMin= 4 ErrMin= 4.00D-04
 ErrMax= 4.00D-04  0.00D+00 EMaxC= 1.00D-01 BMatC= 9.65D-06 BMatP= 1.40D-04
 IDIUse=3 WtCom= 9.96D-01 WtEn= 4.00D-03
 Coeff-Com: -0.262D-02-0.113D+00-0.468D-01 0.116D+01
 Coeff-En:   0.000D+00 0.000D+00 0.000D+00 0.100D+01
 Coeff:     -0.261D-02-0.113D+00-0.466D-01 0.116D+01
 Gap=     0.317 Goal=   None    Shift=    0.000
 RMSDP=2.64D-05 MaxDP=7.93D-04 DE=-1.52D-04 OVMax= 2.37D-03

 Cycle   5  Pass 1  IDiag  1:
 E= -535.640275617343     Delta-E=       -0.000023414632 Rises=F Damp=F
 DIIS: error= 1.17D-04 at cycle   5 NSaved=   5.
 NSaved= 5 IEnMin= 5 EnMin= -535.640275617343     IErMin= 5 ErrMin= 1.17D-04
 ErrMax= 1.17D-04  0.00D+00 EMaxC= 1.00D-01 BMatC= 6.13D-07 BMatP= 9.65D-06
 IDIUse=3 WtCom= 9.99D-01 WtEn= 1.17D-03
 Coeff-Com:  0.586D-02-0.104D-01-0.727D-01-0.150D+00 0.123D+01
 Coeff-En:   0.000D+00 0.000D+00 0.000D+00 0.000D+00 0.100D+01
 Coeff:      0.585D-02-0.104D-01-0.726D-01-0.150D+00 0.123D+01
 Gap=     0.317 Goal=   None    Shift=    0.000
 RMSDP=9.84D-06 MaxDP=2.78D-04 DE=-2.34D-05 OVMax= 9.39D-04

 Cycle   6  Pass 1  IDiag  1:
 E= -535.640277639519     Delta-E=       -0.000002022176 Rises=F Damp=F
 DIIS: error= 1.70D-05 at cycle   6 NSaved=   6.
 NSaved= 6 IEnMin= 6 EnMin= -535.640277639519     IErMin= 6 ErrMin= 1.70D-05
 ErrMax= 1.70D-05  0.00D+00 EMaxC= 1.00D-01 BMatC= 2.34D-08 BMatP= 6.13D-07
 IDIUse=1 WtCom= 1.00D+00 WtEn= 0.00D+00
 Coeff-Com: -0.149D-02 0.804D-02 0.206D-01-0.153D-01-0.299D+00 0.129D+01
 Coeff:     -0.149D-02 0.804D-02 0.206D-01-0.153D-01-0.299D+00 0.129D+01
 Gap=     0.317 Goal=   None    Shift=    0.000
 RMSDP=1.73D-06 MaxDP=3.99D-05 DE=-2.02D-06 OVMax= 1.53D-04

 Cycle   7  Pass 1  IDiag  1:
 E= -535.640277706792     Delta-E=       -0.000000067273 Rises=F Damp=F
 DIIS: error= 3.11D-06 at cycle   7 NSaved=   7.
 NSaved= 7 IEnMin= 7 EnMin= -535.640277706792     IErMin= 7 ErrMin= 3.11D-06
 ErrMax= 3.11D-06  0.00D+00 EMaxC= 1.00D-01 BMatC= 1.30D-09 BMatP= 2.34D-08
 IDIUse=1 WtCom= 1.00D+00 WtEn= 0.00D+00
 Coeff-Com: -0.367D-03 0.122D-02 0.428D-02 0.381D-02-0.629D-01 0.284D-01
 Coeff-Com:  0.103D+01
 Coeff:     -0.367D-03 0.122D-02 0.428D-02 0.381D-02-0.629D-01 0.284D-01
 Coeff:      0.103D+01
 Gap=     0.317 Goal=   None    Shift=    0.000
 RMSDP=3.75D-07 MaxDP=8.91D-06 DE=-6.73D-08 OVMax= 2.82D-05

 Cycle   8  Pass 1  IDiag  1:
 E= -535.640277709805     Delta-E=       -0.000000003013 Rises=F Damp=F
 DIIS: error= 1.00D-06 at cycle   8 NSaved=   8.
 NSaved= 8 IEnMin= 8 EnMin= -535.640277709805     IErMin= 8 ErrMin= 1.00D-06
 ErrMax= 1.00D-06  0.00D+00 EMaxC= 1.00D-01 BMatC= 1.21D-10 BMatP= 1.30D-09
 IDIUse=1 WtCom= 1.00D+00 WtEn= 0.00D+00
 Coeff-Com:  0.143D-03-0.600D-03-0.201D-02-0.552D-03 0.339D-01-0.119D+00
 Coeff-Com: -0.659D-01 0.115D+01
 Coeff:      0.143D-03-0.600D-03-0.201D-02-0.552D-03 0.339D-01-0.119D+00
 Coeff:     -0.659D-01 0.115D+01
 Gap=     0.317 Goal=   None    Shift=    0.000
 RMSDP=1.50D-07 MaxDP=4.62D-06 DE=-3.01D-09 OVMax= 9.89D-06

 Cycle   9  Pass 1  IDiag  1:
 E= -535.640277710107     Delta-E=       -0.000000000303 Rises=F Damp=F
 DIIS: error= 2.69D-07 at cycle   9 NSaved=   9.
 NSaved= 9 IEnMin= 9 EnMin= -535.640277710107     IErMin= 9 ErrMin= 2.69D-07
 ErrMax= 2.69D-07  0.00D+00 EMaxC= 1.00D-01 BMatC= 7.19D-12 BMatP= 1.21D-10
 IDIUse=1 WtCom= 1.00D+00 WtEn= 0.00D+00
 Coeff-Com:  0.879D-06 0.122D-04 0.505D-04-0.251D-03-0.626D-03 0.127D-01
 Coeff-Com: -0.458D-01-0.144D+00 0.118D+01
 Coeff:      0.879D-06 0.122D-04 0.505D-04-0.251D-03-0.626D-03 0.127D-01
 Coeff:     -0.458D-01-0.144D+00 0.118D+01
 Gap=     0.317 Goal=   None    Shift=    0.000
 RMSDP=3.15D-08 MaxDP=6.74D-07 DE=-3.03D-10 OVMax= 2.30D-06

 Cycle  10  Pass 1  IDiag  1:
 E= -535.640277710125     Delta-E=       -0.000000000018 Rises=F Damp=F
 DIIS: error= 8.23D-08 at cycle  10 NSaved=  10.
 NSaved=10 IEnMin=10 EnMin= -535.640277710125     IErMin=10 ErrMin= 8.23D-08
 ErrMax= 8.23D-08  0.00D+00 EMaxC= 1.00D-01 BMatC= 6.70D-13 BMatP= 7.19D-12
 IDIUse=1 WtCom= 1.00D+00 WtEn= 0.00D+00
 Coeff-Com: -0.140D-04 0.583D-04 0.209D-03 0.569D-04-0.354D-02 0.130D-01
 Coeff-Com:  0.499D-02-0.126D+00 0.616D-01 0.105D+01
 Coeff:     -0.140D-04 0.583D-04 0.209D-03 0.569D-04-0.354D-02 0.130D-01
 Coeff:      0.499D-02-0.126D+00 0.616D-01 0.105D+01
 Gap=     0.317 Goal=   None    Shift=    0.000
 RMSDP=8.51D-09 MaxDP=1.83D-07 DE=-1.80D-11 OVMax= 6.95D-07

 SCF Done:  E(RHF) =  -535.640277710     A.U. after   10 cycles
            NFock= 10  Conv=0.85D-08     -V/T= 2.0005
 KE= 5.353861994861D+02 PE=-1.360703800842D+03 EE= 2.506789987257D+02
 Leave Link  502 at Mon Dec 20 16:21:55 2021, MaxMem= 16106127360 cpu:              25.4 elap:               1.1
 (Enter /sw/contrib/gaussian/g16/B01/g16/l801.exe)
 ExpMin= 2.53D-02 ExpMax= 4.56D+05 ExpMxC= 1.44D+03 IAcc=3 IRadAn=         5 AccDes= 0.00D+00
 HarFok:  IExCor=  205 AccDes= 0.00D+00 IRadAn=         5 IDoV=-2 UseB2=F ITyADJ=14
 ICtDFT= 12500011 ScaDFX=  1.000000  1.000000  1.000000  1.000000
 DSYEVD-2 returned Info=         101 IAlg= 4 N=    50 NDim=    50 NE2=   322121132 trying  DSYEV.
 Largest valence mixing into a core orbital is  4.53D-04
 Largest core mixing into a valence orbital is  1.83D-04
 Range of M.O.s used for correlation:     7   142
 NBasis=   142 NAE=    14 NBE=    14 NFC=     6 NFV=     0
 NROrb=    136 NOA=     8 NOB=     8 NVA=   128 NVB=   128

 **** Warning!!: The largest alpha MO coefficient is  0.15712283D+02

 Leave Link  801 at Mon Dec 20 16:21:56 2021, MaxMem= 16106127360 cpu:               2.1 elap:               0.1
 (Enter /sw/contrib/gaussian/g16/B01/g16/l906.exe)
 Frozen-core derivative calculation, NFC=   6 NFV=   0.
 FulOut=F Deriv=T AODrv=T NAtomX=     4
   MMem=         252  MDisk=           8 MDiskD=           8
  W3Min=      326032 MinDsk=      657538 NBas6D=         164
 NBas2D=       13905    NTT=       13530    LW2=     3500000
    MDV= 16105837560 MDiskM=      490970 NBas2p=       13822
 Fully direct method using O(ONN) memory.
 IMap=   1   2   3   4   5   6   7   8   9  10  11  12  13  14
 JobTyp=1 Pass  1:  I=   7 to  14 NPSUse= 28 ParTrn=T ParDer=T DoDerP=T.
 Spin components of T(2) and E(2):
     alpha-alpha T2 =       0.2012291852D-01 E2=     -0.6076165792D-01
     alpha-beta  T2 =       0.1103638114D+00 E2=     -0.3664779786D+00
     beta-beta   T2 =       0.2012291852D-01 E2=     -0.6076165792D-01
 The integrals were generated   1 times.
 ANorm=    0.1072664742D+01
 E2 =    -0.4880012944D+00 EUMP2 =    -0.53612827900451D+03
 Leave Link  906 at Mon Dec 20 16:22:00 2021, MaxMem= 16106127360 cpu:             121.1 elap:               4.4
 (Enter /sw/contrib/gaussian/g16/B01/g16/l1002.exe)
 Minotr:  Closed shell wavefunction.
          Computing MP2/KS-MP2 derivatives.
          Using Z-Vector for PSCF gradient.
          Skipping F1 and S1 gradient terms here.
          IDoAtm=1111
          Frozen-core window.
          Direct CPHF calculation.
          Differentiating once with respect to electric field.
                with respect to dipole field.
          Differentiating once with respect to nuclear coordinates.
          Using symmetry in CPHF.
          Requested convergence is 1.0D-10 RMS, and 1.0D-09 maximum.
          NewPWx=F KeepS1=T KeepF1=T KeepIn=T MapXYZ=F SortEE=F KeepMc=T.
 Keep R1 ints in memory in symmetry-blocked form, NReq=77720963.
 FoFCou: FMM=F IPFlag=           0 FMFlag=           0 FMFlg1=           0
         NFxFlg=           0 DoJE=F BraDBF=F KetDBF=F FulRan=T
         wScrn=  0.000000 ICntrl=       600 IOpCl=  0 I1Cent=           0 NGrid=           0
         NMat0=    1 NMatS0=  10153 NMatT0=    0 NMatD0=    1 NMtDS0=    0 NMtDT0=    0
 Petite list used in FoFCou.
          MDV=   16106127360 using IRadAn=       5.
          Solving linear equations separately, MaxMat=       0.
          There are     1 degrees of freedom in the 1st order CPHF.  IDoFFX=0 NUNeed=     1.
 LinEq1:  Iter=  0 NonCon=     1 RMS=3.21D-03 Max=4.48D-02 NDo=     1
 AX will form     1 AO Fock derivatives at one time.
 LinEq1:  Iter=  1 NonCon=     1 RMS=4.30D-04 Max=6.15D-03 NDo=     1
 LinEq1:  Iter=  2 NonCon=     1 RMS=1.27D-04 Max=1.35D-03 NDo=     1
 LinEq1:  Iter=  3 NonCon=     1 RMS=4.55D-05 Max=4.66D-04 NDo=     1
 LinEq1:  Iter=  4 NonCon=     1 RMS=1.35D-05 Max=1.20D-04 NDo=     1
 LinEq1:  Iter=  5 NonCon=     1 RMS=3.17D-06 Max=2.80D-05 NDo=     1
 LinEq1:  Iter=  6 NonCon=     1 RMS=8.14D-07 Max=8.08D-06 NDo=     1
 LinEq1:  Iter=  7 NonCon=     1 RMS=2.08D-07 Max=2.00D-06 NDo=     1
 LinEq1:  Iter=  8 NonCon=     1 RMS=4.90D-08 Max=5.83D-07 NDo=     1
 LinEq1:  Iter=  9 NonCon=     1 RMS=9.28D-09 Max=1.41D-07 NDo=     1
 LinEq1:  Iter= 10 NonCon=     1 RMS=1.55D-09 Max=1.57D-08 NDo=     1
 LinEq1:  Iter= 11 NonCon=     1 RMS=3.44D-10 Max=3.37D-09 NDo=     1
 LinEq1:  Iter= 12 NonCon=     0 RMS=7.63D-11 Max=6.97D-10 NDo=     1
 Linear equations converged to 1.000D-10 1.000D-09 after    12 iterations.
 End of Minotr F.D. properties file   721 does not exist.
 End of Minotr F.D. properties file   722 does not exist.
 End of Minotr F.D. properties file   788 does not exist.
 Leave Link 1002 at Mon Dec 20 16:22:01 2021, MaxMem= 16106127360 cpu:              27.4 elap:               1.4
 (Enter /sw/contrib/gaussian/g16/B01/g16/l701.exe)
 ... and contract with generalized density number  2.
 Compute integral first derivatives.
 Leave Link  701 at Mon Dec 20 16:22:02 2021, MaxMem= 16106127360 cpu:               4.9 elap:               0.2
 (Enter /sw/contrib/gaussian/g16/B01/g16/l702.exe)
 L702 exits ... SP integral derivatives will be done elsewhere.
 Leave Link  702 at Mon Dec 20 16:22:02 2021, MaxMem= 16106127360 cpu:               0.5 elap:               0.0
 (Enter /sw/contrib/gaussian/g16/B01/g16/l703.exe)
 Integral derivatives from FoFJK, PRISM(SPDF).
 Compute integral first derivatives, UseDBF=F ICtDFT=           0.
 Calling FoFJK, ICntrl=  10002127 FMM=F ISym2X=1 I1Cent= 0 IOpClX= 0 NMat=1 NMatS=1 NMatT=0.
 FoFJK:  IHMeth= 1 ICntrl=10002127 DoSepK=F KAlg= 0 I1Cent=           0 FoldK=F
 IRaf=         0 NMat=       1 IRICut=       1 DoRegI=T DoRafI=F ISym2E= 1 IDoP0=0 IntGTp=1.
 FoFCou: FMM=F IPFlag=           0 FMFlag=      100000 FMFlg1=         800
         NFxFlg=           0 DoJE=F BraDBF=F KetDBF=F FulRan=T
         wScrn=  0.000000 ICntrl=  10002127 IOpCl=  0 I1Cent=           0 NGrid=           0
         NMat0=    1 NMatS0=      1 NMatT0=    0 NMatD0=    1 NMtDS0=    0 NMtDT0=    0
 Petite list used in FoFCou.
 Leave Link  703 at Mon Dec 20 16:22:03 2021, MaxMem= 16106127360 cpu:              23.9 elap:               1.2
 (Enter /sw/contrib/gaussian/g16/B01/g16/l716.exe)
 Dipole        =-5.91482074D-01 9.57876571D-01-1.45920708D-33
 ***** Axes restored to original set *****
 -------------------------------------------------------------------
 Center     Atomic                   Forces (Hartrees/Bohr)
 Number     Number              X              Y              Z
 -------------------------------------------------------------------
      1        8           0.062743744   -0.005865863   -0.000000000
      2        1          -0.064224363   -0.002052153    0.000000000
      3       17           0.000975225   -0.000623779    0.000000000
      4        1           0.000505395    0.008541795   -0.000000000
 -------------------------------------------------------------------
 Cartesian Forces:  Max     0.064224363 RMS     0.026100325
 -----------------------------------------------------------------------------------------------
                       Internal Coordinate Forces (Hartree/Bohr or radian)
  Cent   Atom   N1       Length/X         N2         Alpha/Y        N3         Beta/Z          J
 -----------------------------------------------------------------------------------------------
      1  O 
         X        1   0.000000(     1)
      2  H        1  -0.064224(     2)      2  -0.000000(     5)
      3  Cl       1   0.000403(     3)      2  -0.000000(     6)      3  -0.006297(     8)     0
      4  H        1  -0.008475(     4)      2   0.000000(     7)      3   0.002251(     9)     0
 -----------------------------------------------------------------------------------------------
 Internal  Forces:  Max     0.064224363 RMS     0.021708872
 Leave Link  716 at Mon Dec 20 16:22:03 2021, MaxMem= 16106127360 cpu:               0.8 elap:               0.1
 (Enter /sw/contrib/gaussian/g16/B01/g16/l103.exe)

 GradGradGradGradGradGradGradGradGradGradGradGradGradGradGradGradGradGrad
 Berny optimization.
 Search for a local minimum.
 Step number   2 out of a maximum of   20
 All quantities printed in internal units (Hartrees-Bohrs-Radians)
 Update second derivatives using D2CorN and points    1    2
 DE= -2.89D-02 DEPred=-2.42D-02 R= 1.19D+00
 TightC=F SS=  1.41D+00  RLast= 3.00D-01 DXNew= 5.0454D-01 9.0000D-01
 Trust test= 1.19D+00 RLast= 3.00D-01 DXMaxT set to 5.05D-01
 The second derivative matrix:
                          r1        r2        r3        a1        a2
           r1           0.17784
           r2           0.00066   0.02210
           r3          -0.00918   0.00006   0.44609
           a1          -0.00000  -0.00000   0.00000   5.14233
           a2           0.00000  -0.00000  -0.00000  -0.00000   0.16000
           d1          -0.01000   0.00006  -0.00102   0.00000  -0.00000
           d2           0.00797   0.00005  -0.00003   0.00000   0.00000
           OOP          0.00000  -0.00000  -0.00000  -0.00000  -0.16000
                          d1        d2        OOP
           d1           0.31888
           d2          -0.16000   0.32317
           OOP          0.00000  -0.00000   0.16000
 ITU=  1  0
     Eigenvalues ---   -0.00000   0.02210   0.16086   0.17715   0.32000
     Eigenvalues ---    0.44641   0.48158   5.14233
 Eigenvalue     1 is  -1.11D-16 should be greater than     0.000000 Eigenvector:
                          a2        OOP       d2        d1        r2
   1                    0.70711   0.70711   0.00000   0.00000   0.00000
                          r3        r1        a1
   1                    0.00000  -0.00000  -0.00000
 RFO step:  Lambda=-8.13221931D-04 EMin=-1.11022302D-16
 Quartic linear search produced a step of  0.55019.
 Variable       Old X    -DE/DX   Delta X   Delta X   Delta X     New X
                                 (Linear)    (Quad)   (Total)
    r1        1.97163  -0.06422  -0.16288  -0.00977  -0.17265   1.79898
    r2        5.80338   0.00040   0.00036   0.02272   0.02308   5.82646
    r3        1.90304  -0.00847  -0.01111  -0.00793  -0.01903   1.88400
    a1        1.57080  -0.00000   0.00000  -0.00000   0.00000   1.57080
    a2        1.57080  -0.00000   0.00000   0.00000   0.00000   1.57080
    d1        1.78401  -0.00630  -0.01240   0.00848  -0.00392   1.78009
    d2        1.76860   0.00225  -0.02088   0.05220   0.03132   1.79992
   OOP        1.57080   0.00000   0.00000   0.00000   0.00000   1.57080
         Item               Value     Threshold  Converged?
 Maximum Force            0.064224     0.000450     NO 
 RMS     Force            0.023026     0.000300     NO 
 Maximum Displacement     0.172648     0.001800     NO 
 RMS     Displacement     0.062947     0.001200     NO 
 Predicted change in Energy=-8.518957D-03
 Lowest energy point so far.  Saving SCF results.
 GradGradGradGradGradGradGradGradGradGradGradGradGradGradGradGradGradGrad

 Leave Link  103 at Mon Dec 20 16:22:03 2021, MaxMem= 16106127360 cpu:               0.9 elap:               0.1
 (Enter /sw/contrib/gaussian/g16/B01/g16/l202.exe)
 ---------------------------------------------------------------------------------------------------
                            Z-MATRIX (ANGSTROMS AND DEGREES)
   CD    Cent   Atom    N1       Length/X        N2       Alpha/Y        N3        Beta/Z          J
 ---------------------------------------------------------------------------------------------------
      1      1  O 
      2         X        1  10.000000(     1)
      3      2  H        1   0.951978(     2)      2   90.000(     5)
      4      3  Cl       1   3.083230(     3)      2   90.000(     6)      3  101.992(     8)      0
      5      4  H        1   0.996971(     4)      2   90.000(     7)      3  103.128(     9)      0
 ---------------------------------------------------------------------------------------------------
                         Z-Matrix orientation:                         
 ---------------------------------------------------------------------
 Center     Atomic      Atomic             Coordinates (Angstroms)
 Number     Number       Type             X           Y           Z
 ---------------------------------------------------------------------
      1          8           0        0.000000    0.000000    0.000000
      2         -1           0        0.000000    0.000000   10.000000
      3          1           0        0.951978    0.000000    0.000000
      4         17           0       -0.640603   -3.015947   -0.000000
      5          1           0       -0.226434   -0.970917   -0.000000
 ---------------------------------------------------------------------
                    Distance matrix (angstroms):
                    1          2          3          4          5
     1  O    0.000000
     2  X   10.000000   0.000000
     3  H    0.951978  10.045211   0.000000
     4  Cl   3.083230  10.464526   3.410608   0.000000
     5  H    0.996971  10.049575   1.526871   2.086548   0.000000
 Stoichiometry    ClH2O(1-)
 Framework group  CS[SG(ClH2O)]
 Deg. of freedom     5
 Full point group                 CS      NOp   2
 RotChk:  IX=0 Diff= 5.55D-03
 Largest Abelian subgroup         CS      NOp   2
 Largest concise Abelian subgroup C1      NOp   1
                         Standard orientation:                         
 ---------------------------------------------------------------------
 Center     Atomic      Atomic             Coordinates (Angstroms)
 Number     Number       Type             X           Y           Z
 ---------------------------------------------------------------------
      1          8           0        0.033757    1.970885   -0.000000
      2          1           0       -0.897447    2.168678    0.000000
      3         17           0        0.033757   -1.112345   -0.000000
      4          1           0        0.053522    0.974110   -0.000000
 ---------------------------------------------------------------------
 Rotational constants (GHZ):         329.3064083           4.3604985           4.3035137
 Leave Link  202 at Mon Dec 20 16:22:03 2021, MaxMem= 16106127360 cpu:               0.6 elap:               0.1
 (Enter /sw/contrib/gaussian/g16/B01/g16/l301.exe)
 Standard basis: Aug-CC-pVTZ (5D, 7F)
 Ernie: Thresh=  0.10000D-02 Tol=  0.10000D-05 Strict=F.
 Ernie:  16 primitive shells out of 116 were deleted.
 There are   113 symmetry adapted cartesian basis functions of A'  symmetry.
 There are    51 symmetry adapted cartesian basis functions of A"  symmetry.
 There are    95 symmetry adapted basis functions of A'  symmetry.
 There are    47 symmetry adapted basis functions of A"  symmetry.
   142 basis functions,   240 primitive gaussians,   164 cartesian basis functions
    14 alpha electrons       14 beta electrons
       nuclear repulsion energy        39.3307016272 Hartrees.
 IExCor=    0 DFT=F Ex=HF Corr=None ExCW=0 ScaHFX=  1.000000
 ScaDFX=  1.000000  1.000000  1.000000  1.000000 ScalE2=  1.000000  1.000000
 IRadAn=      5 IRanWt=     -1 IRanGd=            0 ICorTp=0 IEmpDi=  4
 NAtoms=    4 NActive=    4 NUniq=    4 SFac= 1.00D+00 NAtFMM=   60 NAOKFM=F Big=F
 Integral buffers will be    131072 words long.
 Raffenetti 1 integral format.
 Two-electron integral symmetry is turned on.
 Leave Link  301 at Mon Dec 20 16:22:03 2021, MaxMem= 16106127360 cpu:               2.8 elap:               0.1
 (Enter /sw/contrib/gaussian/g16/B01/g16/l302.exe)
 NPDir=0 NMtPBC=     1 NCelOv=     1 NCel=       1 NClECP=     1 NCelD=      1
         NCelK=      1 NCelE2=     1 NClLst=     1 CellRange=     0.0.
 One-electron integrals computed using PRISM.
 One-electron integral symmetry used in STVInt
 NBasis=   142 RedAO= T EigKep=  2.86D-04  NBF=    95    47
 NBsUse=   142 1.00D-06 EigRej= -1.00D+00 NBFU=    95    47
 Leave Link  302 at Mon Dec 20 16:22:03 2021, MaxMem= 16106127360 cpu:               5.2 elap:               0.2
 (Enter /sw/contrib/gaussian/g16/B01/g16/l303.exe)
 DipDrv:  MaxL=1.
 Leave Link  303 at Mon Dec 20 16:22:03 2021, MaxMem= 16106127360 cpu:               0.7 elap:               0.1
 (Enter /sw/contrib/gaussian/g16/B01/g16/l401.exe)
 Initial guess from the checkpoint file:  "/gscratch/ilahie/mccoygrp/coire_hocl/clhod_fully_relaxed.chk"
 B after Tr=    -0.000000   -0.000000    0.000000
         Rot=    0.999998   -0.000000    0.000000    0.001814 Ang=   0.21 deg.
 Guess basis will be translated and rotated to current coordinates.
 JPrj=2 DoOrth=T DoCkMO=T.
 Initial guess orbital symmetries:
       Occupied  (A') (A') (A') (A') (A') (A") (A') (A') (A') (A')
                 (A") (A') (A') (A")
       Virtual   (A') (A') (A') (A") (A') (A') (A') (A") (A') (A')
                 (A') (A") (A') (A") (A') (A') (A") (A') (A') (A')
                 (A") (A') (A') (A') (A') (A') (A") (A") (A") (A')
                 (A') (A") (A') (A') (A") (A') (A") (A') (A') (A')
                 (A') (A") (A') (A') (A") (A') (A") (A") (A') (A")
                 (A') (A') (A') (A') (A") (A") (A') (A') (A') (A")
                 (A') (A") (A') (A') (A') (A") (A') (A") (A') (A")
                 (A') (A') (A') (A") (A') (A') (A") (A") (A') (A')
                 (A') (A") (A') (A") (A') (A") (A') (A") (A') (A')
                 (A") (A') (A') (A') (A") (A') (A') (A") (A') (A")
                 (A") (A') (A") (A') (A') (A') (A") (A') (A') (A')
                 (A") (A') (A') (A') (A') (A") (A') (A") (A') (A")
                 (A") (A') (A") (A') (A') (A') (A') (A')
 The electronic state of the initial guess is 1-A'.
 Generating alternative initial guess.
 ExpMin= 2.53D-02 ExpMax= 4.56D+05 ExpMxC= 1.44D+03 IAcc=3 IRadAn=         5 AccDes= 0.00D+00
 Harris functional with IExCor=  205 and IRadAn=       5 diagonalized for initial guess.
 HarFok:  IExCor=  205 AccDes= 0.00D+00 IRadAn=         5 IDoV= 1 UseB2=F ITyADJ=14
 ICtDFT=  3500011 ScaDFX=  1.000000  1.000000  1.000000  1.000000
 FoFCou: FMM=F IPFlag=           0 FMFlag=      100000 FMFlg1=           0
         NFxFlg=           0 DoJE=T BraDBF=F KetDBF=T FulRan=T
         wScrn=  0.000000 ICntrl=       500 IOpCl=  0 I1Cent=   200000004 NGrid=           0
         NMat0=    1 NMatS0=      1 NMatT0=    0 NMatD0=    1 NMtDS0=    0 NMtDT0=    0
 Petite list used in FoFCou.
 Harris En= -535.447293785558    
 Leave Link  401 at Mon Dec 20 16:22:04 2021, MaxMem= 16106127360 cpu:               7.2 elap:               0.3
 (Enter /sw/contrib/gaussian/g16/B01/g16/l502.exe)
 Keep R1 ints in memory in symmetry-blocked form, NReq=77719999.
 FoFCou: FMM=F IPFlag=           0 FMFlag=           0 FMFlg1=           0
         NFxFlg=           0 DoJE=F BraDBF=F KetDBF=F FulRan=T
         wScrn=  0.000000 ICntrl=       600 IOpCl=  0 I1Cent=           0 NGrid=           0
         NMat0=    1 NMatS0=  10153 NMatT0=    0 NMatD0=    1 NMtDS0=    0 NMtDT0=    0
 Petite list used in FoFCou.
 Closed shell SCF:
 Using DIIS extrapolation, IDIIS=  1040.
 NGot= 16106127360 LenX= 16079895165 LenY= 16079867828
 Requested convergence on RMS density matrix=1.00D-08 within 128 cycles.
 Requested convergence on MAX density matrix=1.00D-06.
 Requested convergence on             energy=1.00D-06.
 No special actions if energy rises.

 Cycle   1  Pass 1  IDiag  1:
 E= -535.647879360394    
 DIIS: error= 4.86D-03 at cycle   1 NSaved=   1.
 NSaved= 1 IEnMin= 1 EnMin= -535.647879360394     IErMin= 1 ErrMin= 4.86D-03
 ErrMax= 4.86D-03  0.00D+00 EMaxC= 1.00D-01 BMatC= 3.18D-03 BMatP= 3.18D-03
 IDIUse=3 WtCom= 9.51D-01 WtEn= 4.86D-02
 Coeff-Com:  0.100D+01
 Coeff-En:   0.100D+01
 Coeff:      0.100D+01
 Gap=     0.347 Goal=   None    Shift=    0.000
 GapD=    0.347 DampG=1.000 DampE=1.000 DampFc=1.0000 IDamp=-1.
 RMSDP=3.68D-04 MaxDP=1.49D-02              OVMax= 1.87D-02

 Cycle   2  Pass 1  IDiag  1:
 E= -535.650316883836     Delta-E=       -0.002437523441 Rises=F Damp=F
 DIIS: error= 2.01D-03 at cycle   2 NSaved=   2.
 NSaved= 2 IEnMin= 2 EnMin= -535.650316883836     IErMin= 2 ErrMin= 2.01D-03
 ErrMax= 2.01D-03  0.00D+00 EMaxC= 1.00D-01 BMatC= 2.82D-04 BMatP= 3.18D-03
 IDIUse=3 WtCom= 9.80D-01 WtEn= 2.01D-02
 Coeff-Com:  0.434D-01 0.957D+00
 Coeff-En:   0.000D+00 0.100D+01
 Coeff:      0.426D-01 0.957D+00
 Gap=     0.317 Goal=   None    Shift=    0.000
 RMSDP=8.24D-05 MaxDP=2.78D-03 DE=-2.44D-03 OVMax= 5.23D-03

 Cycle   3  Pass 1  IDiag  1:
 E= -535.650541808616     Delta-E=       -0.000224924781 Rises=F Damp=F
 DIIS: error= 9.11D-04 at cycle   3 NSaved=   3.
 NSaved= 3 IEnMin= 3 EnMin= -535.650541808616     IErMin= 3 ErrMin= 9.11D-04
 ErrMax= 9.11D-04  0.00D+00 EMaxC= 1.00D-01 BMatC= 6.29D-05 BMatP= 2.82D-04
 IDIUse=3 WtCom= 9.91D-01 WtEn= 9.11D-03
 Coeff-Com: -0.599D-01 0.262D+00 0.797D+00
 Coeff-En:   0.000D+00 0.000D+00 0.100D+01
 Coeff:     -0.594D-01 0.260D+00 0.799D+00
 Gap=     0.317 Goal=   None    Shift=    0.000
 RMSDP=3.38D-05 MaxDP=1.11D-03 DE=-2.25D-04 OVMax= 3.22D-03

 Cycle   4  Pass 1  IDiag  1:
 E= -535.650599998334     Delta-E=       -0.000058189718 Rises=F Damp=F
 DIIS: error= 2.23D-04 at cycle   4 NSaved=   4.
 NSaved= 4 IEnMin= 4 EnMin= -535.650599998334     IErMin= 4 ErrMin= 2.23D-04
 ErrMax= 2.23D-04  0.00D+00 EMaxC= 1.00D-01 BMatC= 3.56D-06 BMatP= 6.29D-05
 IDIUse=3 WtCom= 9.98D-01 WtEn= 2.23D-03
 Coeff-Com: -0.211D-02-0.920D-01-0.964D-03 0.110D+01
 Coeff-En:   0.000D+00 0.000D+00 0.000D+00 0.100D+01
 Coeff:     -0.210D-02-0.918D-01-0.962D-03 0.109D+01
 Gap=     0.316 Goal=   None    Shift=    0.000
 RMSDP=1.41D-05 MaxDP=4.25D-04 DE=-5.82D-05 OVMax= 1.21D-03

 Cycle   5  Pass 1  IDiag  1:
 E= -535.650607184133     Delta-E=       -0.000007185799 Rises=F Damp=F
 DIIS: error= 6.99D-05 at cycle   5 NSaved=   5.
 NSaved= 5 IEnMin= 5 EnMin= -535.650607184133     IErMin= 5 ErrMin= 6.99D-05
 ErrMax= 6.99D-05  0.00D+00 EMaxC= 1.00D-01 BMatC= 2.07D-07 BMatP= 3.56D-06
 IDIUse=1 WtCom= 1.00D+00 WtEn= 0.00D+00
 Coeff-Com:  0.432D-02-0.120D-01-0.666D-01-0.118D+00 0.119D+01
 Coeff:      0.432D-02-0.120D-01-0.666D-01-0.118D+00 0.119D+01
 Gap=     0.316 Goal=   None    Shift=    0.000
 RMSDP=5.27D-06 MaxDP=1.70D-04 DE=-7.19D-06 OVMax= 4.20D-04

 Cycle   6  Pass 1  IDiag  1:
 E= -535.650607765601     Delta-E=       -0.000000581469 Rises=F Damp=F
 DIIS: error= 1.01D-05 at cycle   6 NSaved=   6.
 NSaved= 6 IEnMin= 6 EnMin= -535.650607765601     IErMin= 6 ErrMin= 1.01D-05
 ErrMax= 1.01D-05  0.00D+00 EMaxC= 1.00D-01 BMatC= 7.83D-09 BMatP= 2.07D-07
 IDIUse=1 WtCom= 1.00D+00 WtEn= 0.00D+00
 Coeff-Com: -0.119D-02 0.744D-02 0.183D-01-0.103D-01-0.326D+00 0.131D+01
 Coeff:     -0.119D-02 0.744D-02 0.183D-01-0.103D-01-0.326D+00 0.131D+01
 Gap=     0.316 Goal=   None    Shift=    0.000
 RMSDP=9.87D-07 MaxDP=2.21D-05 DE=-5.81D-07 OVMax= 8.18D-05

[...]
 Leave Link  906 at Mon Dec 20 16:24:34 2021, MaxMem= 16106127360 cpu:             125.8 elap:               4.5
 (Enter /sw/contrib/gaussian/g16/B01/g16/l1002.exe)
 Minotr:  Closed shell wavefunction.
          Computing MP2/KS-MP2 derivatives.
          Using Z-Vector for PSCF gradient.
          Skipping F1 and S1 gradient terms here.
          IDoAtm=1111
          Frozen-core window.
          Direct CPHF calculation.
          Differentiating once with respect to electric field.
                with respect to dipole field.
          Differentiating once with respect to nuclear coordinates.
          Requested convergence is 1.0D-10 RMS, and 1.0D-09 maximum.
          NewPWx=F KeepS1=T KeepF1=T KeepIn=T MapXYZ=F SortEE=F KeepMc=T.
 Keep R1 ints in memory in canonical form, NReq=65350139.
 FoFCou: FMM=F IPFlag=           0 FMFlag=           0 FMFlg1=           0
         NFxFlg=           0 DoJE=F BraDBF=F KetDBF=F FulRan=T
         wScrn=  0.000000 ICntrl=       600 IOpCl=  0 I1Cent=           0 NGrid=           0
         NMat0=    1 NMatS0=  10153 NMatT0=    0 NMatD0=    1 NMtDS0=    0 NMtDT0=    0
 Symmetry not used in FoFCou.
 Two-electron integral symmetry not used.
          MDV=   16106127360 using IRadAn=       5.
          Solving linear equations separately, MaxMat=       0.
          There are     1 degrees of freedom in the 1st order CPHF.  IDoFFX=0 NUNeed=     1.
 LinEq1:  Iter=  0 NonCon=     1 RMS=2.99D-03 Max=3.99D-02 NDo=     1
 AX will form     1 AO Fock derivatives at one time.
 LinEq1:  Iter=  1 NonCon=     1 RMS=3.74D-04 Max=4.63D-03 NDo=     1
 LinEq1:  Iter=  2 NonCon=     1 RMS=1.15D-04 Max=1.25D-03 NDo=     1
 LinEq1:  Iter=  3 NonCon=     1 RMS=3.76D-05 Max=4.40D-04 NDo=     1
 LinEq1:  Iter=  4 NonCon=     1 RMS=1.09D-05 Max=9.83D-05 NDo=     1
 LinEq1:  Iter=  5 NonCon=     1 RMS=2.64D-06 Max=2.92D-05 NDo=     1
 LinEq1:  Iter=  6 NonCon=     1 RMS=6.37D-07 Max=9.26D-06 NDo=     1
 LinEq1:  Iter=  7 NonCon=     1 RMS=1.59D-07 Max=1.66D-06 NDo=     1
 LinEq1:  Iter=  8 NonCon=     1 RMS=3.68D-08 Max=3.53D-07 NDo=     1
 LinEq1:  Iter=  9 NonCon=     1 RMS=6.31D-09 Max=8.56D-08 NDo=     1
 LinEq1:  Iter= 10 NonCon=     1 RMS=8.86D-10 Max=7.60D-09 NDo=     1
 LinEq1:  Iter= 11 NonCon=     1 RMS=1.99D-10 Max=2.09D-09 NDo=     1
 LinEq1:  Iter= 12 NonCon=     0 RMS=4.68D-11 Max=5.99D-10 NDo=     1
 Linear equations converged to 1.000D-10 1.000D-09 after    12 iterations.
 End of Minotr F.D. properties file   721 does not exist.
 End of Minotr F.D. properties file   722 does not exist.
 End of Minotr F.D. properties file   788 does not exist.
 Leave Link 1002 at Mon Dec 20 16:24:36 2021, MaxMem= 16106127360 cpu:              22.5 elap:               1.8
 (Enter /sw/contrib/gaussian/g16/B01/g16/l701.exe)
 ... and contract with generalized density number  2.
 Compute integral first derivatives.
 Leave Link  701 at Mon Dec 20 16:24:36 2021, MaxMem= 16106127360 cpu:               4.9 elap:               0.2
 (Enter /sw/contrib/gaussian/g16/B01/g16/l702.exe)
 L702 exits ... SP integral derivatives will be done elsewhere.
 Leave Link  702 at Mon Dec 20 16:24:36 2021, MaxMem= 16106127360 cpu:               0.5 elap:               0.0
 (Enter /sw/contrib/gaussian/g16/B01/g16/l703.exe)
 Integral derivatives from FoFJK, PRISM(SPDF).
 Compute integral first derivatives, UseDBF=F ICtDFT=           0.
 Calling FoFJK, ICntrl=  10002127 FMM=F ISym2X=0 I1Cent= 0 IOpClX= 0 NMat=1 NMatS=1 NMatT=0.
 FoFJK:  IHMeth= 1 ICntrl=10002127 DoSepK=F KAlg= 0 I1Cent=           0 FoldK=F
 IRaf=         0 NMat=       1 IRICut=       1 DoRegI=T DoRafI=F ISym2E= 0 IDoP0=0 IntGTp=1.
 FoFCou: FMM=F IPFlag=           0 FMFlag=      100000 FMFlg1=         800
         NFxFlg=           0 DoJE=F BraDBF=F KetDBF=F FulRan=T
         wScrn=  0.000000 ICntrl=  10002127 IOpCl=  0 I1Cent=           0 NGrid=           0
         NMat0=    1 NMatS0=      1 NMatT0=    0 NMatD0=    1 NMtDS0=    0 NMtDT0=    0
 Symmetry not used in FoFCou.
 Leave Link  703 at Mon Dec 20 16:24:37 2021, MaxMem= 16106127360 cpu:              22.7 elap:               0.8
 (Enter /sw/contrib/gaussian/g16/B01/g16/l716.exe)
 Dipole        =-9.39627063D-01-4.88752463D-01 3.34311822D-05
 ***** Axes restored to original set *****
 -------------------------------------------------------------------
 Center     Atomic                   Forces (Hartrees/Bohr)
 Number     Number              X              Y              Z
 -------------------------------------------------------------------
      1        8           0.000020348   -0.000005960   -0.000003150
      2        1          -0.000025535   -0.000001866    0.000000064
      3       17          -0.000000824   -0.000001366   -0.000001071
      4        1           0.000006011    0.000009193    0.000004157
 -------------------------------------------------------------------
 Cartesian Forces:  Max     0.000025535 RMS     0.000010233
 -----------------------------------------------------------------------------------------------
                       Internal Coordinate Forces (Hartree/Bohr or radian)
  Cent   Atom   N1       Length/X         N2         Alpha/Y        N3         Beta/Z          J
 -----------------------------------------------------------------------------------------------
      1  O 
         X        1   0.000000(     1)
      2  H        1  -0.000026(     2)      2  -0.000000(     5)
      3  Cl       1   0.000002(     3)      2   0.000005(     6)      3   0.000004(     8)     0
      4  H        1  -0.000011(     4)      2  -0.000005(     7)      3  -0.000008(     9)     0
 -----------------------------------------------------------------------------------------------
 Internal  Forces:  Max     0.000025535 RMS     0.000009965
 Leave Link  716 at Mon Dec 20 16:24:37 2021, MaxMem= 16106127360 cpu:               0.8 elap:               0.1
 (Enter /sw/contrib/gaussian/g16/B01/g16/l103.exe)

 GradGradGradGradGradGradGradGradGradGradGradGradGradGradGradGradGradGrad
 Berny optimization.
 Search for a local minimum.
 Step number  18 out of a maximum of   20
 All quantities printed in internal units (Hartrees-Bohrs-Radians)
 Update second derivatives using D2CorN and points   11   12   13   10   15
                                                         14   16   17   18
 DE= -2.57D-08 DEPred=-2.70D-08 R= 9.53D-01
 Trust test= 9.53D-01 RLast= 1.18D-02 DXMaxT set to 1.12D-01
 The second derivative matrix:
                          r1        r2        r3        a1        a2
           r1           0.44801
           r2          -0.00184   0.01976
           r3          -0.01027   0.00548   0.43610
           a1          -0.00712  -0.00445  -0.00132   5.14218
           a2           0.00000   0.00206   0.00018   0.00004   0.15666
           d1           0.00669   0.00613  -0.01039  -0.00106   0.00218
           d2           0.01804  -0.01580   0.02100  -0.00100  -0.00832
           OOP         -0.00007  -0.00101   0.00016  -0.00001  -0.15964
                          d1        d2        OOP
           d1           0.05715
           d2          -0.10265   0.34717
           OOP          0.00222  -0.00693   0.16358
 ITU=  0  0  1 -1  0  0 -1 -1  0
     Eigenvalues ---    0.00010   0.01862   0.02438   0.31980   0.36873
     Eigenvalues ---    0.44243   0.45437   5.14219
 RFO step:  Lambda= 0.00000000D+00 EMin= 9.85228874D-05
 Quartic linear search produced a step of -0.06798.
 Variable       Old X    -DE/DX   Delta X   Delta X   Delta X     New X
                                 (Linear)    (Quad)   (Total)
    r1        1.81551  -0.00003  -0.00001  -0.00005  -0.00006   1.81545
    r2        5.84721   0.00000   0.00003   0.00003   0.00006   5.84727
    r3        1.87242  -0.00001   0.00001  -0.00003  -0.00002   1.87239
    a1        1.57066  -0.00000   0.00000  -0.00000  -0.00000   1.57066
    a2        1.72826   0.00000  -0.00057   0.00079   0.00022   1.72848
    d1        1.62502   0.00000  -0.00000   0.00009   0.00009   1.62511
    d2        1.75868  -0.00001  -0.00005   0.00007   0.00002   1.75870
   OOP        1.72584  -0.00000  -0.00056   0.00074   0.00019   1.72603
         Item               Value     Threshold  Converged?
 Maximum Force            0.000026     0.000450     YES
 RMS     Force            0.000011     0.000300     YES
 Maximum Displacement     0.000219     0.001800     YES
 RMS     Displacement     0.000111     0.001200     YES
 Predicted change in Energy=-1.150014D-09
 Optimization completed.
    -- Stationary point found.
                       ----------------------------
                       !   Optimized Parameters   !
                       ! (Angstroms and Degrees)  !
 ----------------------                            ----------------------
 !      Name          Value   Derivative information (Atomic Units)     !
 ------------------------------------------------------------------------
 !       r1          0.9607   -DE/DX =    0.0                           !
 !       r2          3.0942   -DE/DX =    0.0                           !
 !       r3          0.9908   -DE/DX =    0.0                           !
 !       a1         89.9924   -DE/DX =    0.0                           !
 !       a2         99.0218   -DE/DX =    0.0                           !
 !       d1         93.1067   -DE/DX =    0.0                           !
 !       d2        100.7648   -DE/DX =    0.0                           !
 !       OOP        98.8835   -DE/DX =    0.0                           !
 ------------------------------------------------------------------------
 Lowest energy point so far.  Saving SCF results.
 Largest change from initial coordinates is atom    2       1.280 Angstoms.
 GradGradGradGradGradGradGradGradGradGradGradGradGradGradGradGradGradGrad

 Leave Link  103 at Mon Dec 20 16:24:37 2021, MaxMem= 16106127360 cpu:               0.5 elap:               0.0
 (Enter /sw/contrib/gaussian/g16/B01/g16/l202.exe)
 ---------------------------------------------------------------------------------------------------
                            Z-MATRIX (ANGSTROMS AND DEGREES)
   CD    Cent   Atom    N1       Length/X        N2       Alpha/Y        N3        Beta/Z          J
 ---------------------------------------------------------------------------------------------------
      1      1  O 
      2         X        1  10.000000(     1)
      3      2  H        1   0.960727(     2)      2   89.992(     5)
      4      3  Cl       1   3.094211(     3)      2   99.022(     6)      3   93.107(     8)      0
      5      4  H        1   0.990842(     4)      2   98.883(     7)      3  100.765(     9)      0
 ---------------------------------------------------------------------------------------------------
                         Z-Matrix orientation:                         
 ---------------------------------------------------------------------
 Center     Atomic      Atomic             Coordinates (Angstroms)
 Number     Number       Type             X           Y           Z
 ---------------------------------------------------------------------
      1          8           0        0.000000    0.000000    0.000000
      2         -1           0        0.000000    0.000000   10.000000
      3          1           0        0.960727    0.000000    0.000127
      4         17           0       -0.165618   -3.051441   -0.485204
      5          1           0       -0.182847   -0.961729   -0.153011
 ---------------------------------------------------------------------
                    Distance matrix (angstroms):
                    1          2          3          4          5
     1  O    0.000000
     2  X   10.000000   0.000000
     3  H    0.960727  10.045917   0.000000
     4  Cl   3.094211  10.921457   3.288691   0.000000
     5  H    0.990842  10.200097   1.502043   2.116021   0.000000
 Stoichiometry    ClH2O(1-)
 Framework group  C1[X(ClH2O)]
 Deg. of freedom     6
 Full point group                 C1      NOp   1
 RotChk:  IX=3 Diff= 2.23D-16
 Largest Abelian subgroup         C1      NOp   1
 Largest concise Abelian subgroup C1      NOp   1
                         Standard orientation:                         
 ---------------------------------------------------------------------
 Center     Atomic      Atomic             Coordinates (Angstroms)
 Number     Number       Type             X           Y           Z
 ---------------------------------------------------------------------
      1          8           0       -1.980675    0.094283   -0.000006
      2          1           0       -2.062865   -0.862922    0.000009
      3         17           0        1.111944   -0.004971   -0.000001
      4          1           0       -0.994780    0.193170    0.000063
 ---------------------------------------------------------------------
 Rotational constants (GHZ):         300.9659428           4.3764666           4.3137388
 Leave Link  202 at Mon Dec 20 16:24:37 2021, MaxMem= 16106127360 cpu:               0.5 elap:               0.0
 (Enter /sw/contrib/gaussian/g16/B01/g16/l601.exe)
 Copying SCF densities to generalized density rwf, IOpCl= 0 IROHF=0.

 **********************************************************************

            Population analysis using the MP2 Density.

 **********************************************************************

 Orbital symmetries:
       Occupied  (A) (A) (A) (A) (A) (A) (A) (A) (A) (A) (A) (A)
                 (A) (A)
       Virtual   (A) (A) (A) (A) (A) (A) (A) (A) (A) (A) (A) (A)
                 (A) (A) (A) (A) (A) (A) (A) (A) (A) (A) (A) (A)
                 (A) (A) (A) (A) (A) (A) (A) (A) (A) (A) (A) (A)
                 (A) (A) (A) (A) (A) (A) (A) (A) (A) (A) (A) (A)
                 (A) (A) (A) (A) (A) (A) (A) (A) (A) (A) (A) (A)
                 (A) (A) (A) (A) (A) (A) (A) (A) (A) (A) (A) (A)
                 (A) (A) (A) (A) (A) (A) (A) (A) (A) (A) (A) (A)
                 (A) (A) (A) (A) (A) (A) (A) (A) (A) (A) (A) (A)
                 (A) (A) (A) (A) (A) (A) (A) (A) (A) (A) (A) (A)
                 (A) (A) (A) (A) (A) (A) (A) (A) (A) (A) (A) (A)
                 (A) (A) (A) (A) (A) (A) (A) (A)
 The electronic state is 1-A.
 Alpha  occ. eigenvalues -- -104.53066 -20.37731 -10.25514  -7.72123  -7.72117
 Alpha  occ. eigenvalues --   -7.72116  -1.15865  -0.76569  -0.51382  -0.40819
 Alpha  occ. eigenvalues --   -0.32274  -0.18245  -0.17824  -0.17768
 Alpha virt. eigenvalues --    0.14135   0.18034   0.25588   0.26637   0.28020
 Alpha virt. eigenvalues --    0.28889   0.30461   0.31024   0.34742   0.39575
 Alpha virt. eigenvalues --    0.41742   0.41942   0.43520   0.49853   0.53347
 Alpha virt. eigenvalues --    0.56518   0.58109   0.59844   0.61681   0.67094
 Alpha virt. eigenvalues --    0.68189   0.68355   0.71814   0.81644   0.85981
 Alpha virt. eigenvalues --    0.86989   0.89059   0.89466   0.89849   0.91761
 Alpha virt. eigenvalues --    1.01829   1.03573   1.06838   1.07614   1.07919
 Alpha virt. eigenvalues --    1.10438   1.11389   1.12602   1.15389   1.18562
 Alpha virt. eigenvalues --    1.19763   1.19977   1.22000   1.25444   1.28917
 Alpha virt. eigenvalues --    1.33149   1.34444   1.38765   1.41424   1.44717
 Alpha virt. eigenvalues --    1.45103   1.48764   1.56093   1.59334   1.60386
 Alpha virt. eigenvalues --    1.68799   1.70408   1.74309   1.78381   1.80299
 Alpha virt. eigenvalues --    1.86306   1.89881   2.08349   2.13612   2.25291
 Alpha virt. eigenvalues --    2.45866   2.51516   2.57193   2.61608   2.64200
 Alpha virt. eigenvalues --    2.65435   2.65752   2.76788   2.80609   2.81233
 Alpha virt. eigenvalues --    2.87155   2.89666   2.90288   2.92342   2.96655
 Alpha virt. eigenvalues --    2.99999   3.00524   3.08310   3.15548   3.20000
 Alpha virt. eigenvalues --    3.34456   3.34545   3.39245   3.39459   3.40814
 Alpha virt. eigenvalues --    3.50317   3.52621   3.59227   3.87488   4.20284
 Alpha virt. eigenvalues --    4.23943   4.33797   4.36593   4.44286   4.46294
 Alpha virt. eigenvalues --    4.56721   4.58953   4.64851   4.77078   4.99235
 Alpha virt. eigenvalues --    5.11060   5.29729   5.39237   5.45602   5.50906
 Alpha virt. eigenvalues --    5.69186   5.79914   6.24269   6.45984   6.73753
 Alpha virt. eigenvalues --    6.91518   7.13102   7.29282   7.44022   7.45387
 Alpha virt. eigenvalues --    7.48404   7.57102   7.62271   7.80157   8.08821
 Alpha virt. eigenvalues --    8.14157   8.97868  16.19471
          Condensed to atoms (all electrons):
               1          2          3          4
     1  O    8.264936   0.209599  -0.069448   0.148041
     2  H    0.209599   0.595795   0.006743   0.009598
     3  Cl  -0.069448   0.006743  17.935927   0.042569
     4  H    0.148041   0.009598   0.042569   0.509138
 Mulliken charges:
               1
     1  O   -0.553128
     2  H    0.178265
     3  Cl  -0.915791
     4  H    0.290654
 Sum of Mulliken charges =  -1.00000
 Mulliken charges with hydrogens summed into heavy atoms:
               1
     1  O   -0.084209
     3  Cl  -0.915791
 Electronic spatial extent (au):  <R**2>=            271.4781
 Charge=             -1.0000 electrons
 Dipole moment (field-independent basis, Debye):
    X=             -2.3883    Y=             -1.2423    Z=              0.0001  Tot=              2.6921
 Quadrupole moment (field-independent basis, Debye-Ang):
   XX=            -36.1805   YY=            -22.8348   ZZ=            -25.1341
   XY=              3.3818   XZ=             -0.0001   YZ=              0.0000
 Traceless Quadrupole moment (field-independent basis, Debye-Ang):
   XX=             -8.1307   YY=              5.2150   ZZ=              2.9156
   XY=              3.3818   XZ=             -0.0001   YZ=              0.0000
 Octapole moment (field-independent basis, Debye-Ang**2):
  XXX=             -3.4619  YYY=             -1.3901  ZZZ=             -0.0001  XYY=             -7.5927
  XXY=             -7.8415  XXZ=             -0.0001  XZZ=             -2.9375  YZZ=             -0.0650
  YYZ=             -0.0000  XYZ=              0.0000
 Hexadecapole moment (field-independent basis, Debye-Ang**3):
 XXXX=           -366.1361 YYYY=            -36.6880 ZZZZ=            -37.5053 XXXY=             18.7356
 XXXZ=              0.0004 YYYX=              4.0182 YYYZ=             -0.0000 ZZZX=              0.0000
 ZZZY=              0.0000 XXYY=            -55.1188 XXZZ=            -64.4533 YYZZ=            -12.6231
 XXYZ=             -0.0000 YYXZ=             -0.0000 ZZXY=              0.4819
 N-N= 3.927709352534D+01 E-N=-1.361280971410D+03  KE= 5.360249536972D+02
 No NMR shielding tensors so no spin-rotation constants.
 Leave Link  601 at Mon Dec 20 16:24:38 2021, MaxMem= 16106127360 cpu:               7.3 elap:               0.3
 (Enter /sw/contrib/gaussian/g16/B01/g16/l9999.exe)
 1\1\GINC-N2098\POpt\RMP2-FC\Aug-CC-pVTZ\Cl1H2O1(1-)\CGAVINH\20-Dec-202
 1\1\\#p opt=(z-matrix) mp2/aug-cc-pvtz density=current\\title\\-1,1\O\
 X,1,10.\H,1,r1,2,a1\Cl,1,r2,2,a2,3,d1,0\H,1,r3,2,OOP,3,d2,0\\r1=0.9607
 2689\r2=3.09421131\r3=0.99084156\a1=89.99241986\a2=99.02179664\d1=93.1
 0669116\d2=100.76475786\OOP=98.8834508\\Version=ES64L-G16RevB.01\State
 =1-A\HF=-535.6511118\MP2=-536.1343912\RMSD=7.827e-09\RMSF=1.023e-05\Di
 pole=-0.9396271,-0.4887525,0.0000334\Quadrupole=-6.0449585,3.8772519,2
 .1677066,2.5143074,-0.0000798,0.0000089\PG=C01 [X(Cl1H2O1)]\\@


 CHARLIE BROWN -- WHICH DO YOU THINK LASTS LONGER IN LIFE, THE GOOD THINGS 
                  OR THE BAD THINGS?
 LINUS --         GOOD THINGS LAST EIGHT SECONDS ..
                  BAD THINGS LAST THREE WEEKS
 CHARLIE BROWN -- WHAT ABOUT IN BETWEEN?
 SNOOPY --        IN BETWEEN YOU SHOULD TAKE A NAP ...
 Job cpu time:       0 days  1 hours  6 minutes 41.8 seconds.
 Elapsed time:       0 days  0 hours  2 minutes 54.0 seconds.
 File lengths (MBytes):  RWF=     15 Int=      0 D2E=      0 Chk=      8 Scr=      1
 Normal termination of Gaussian 16 at Mon Dec 20 16:24:38 2021.
