 Entering Gaussian System, Link 0=g16
 Input=clhocl_fully_relaxed.gjf
 Output=clhocl_fully_relaxed.log
 Initial command:
 /sw/contrib/gaussian/g16/B01/g16/l1.exe "/scr/Gau-22898.inp" -scrdir="/scr/"
 Entering Link 1 = /sw/contrib/gaussian/g16/B01/g16/l1.exe PID=     22899.
  
 Copyright (c) 1988-2017, Gaussian, Inc.  All Rights Reserved.
  
 This is part of the Gaussian(R) 16 program.  It is based on
 the Gaussian(R) 09 system (copyright 2009, Gaussian, Inc.),
 the Gaussian(R) 03 system (copyright 2003, Gaussian, Inc.),
 the Gaussian(R) 98 system (copyright 1998, Gaussian, Inc.),
 the Gaussian(R) 94 system (copyright 1995, Gaussian, Inc.),
 the Gaussian 92(TM) system (copyright 1992, Gaussian, Inc.),
 the Gaussian 90(TM) system (copyright 1990, Gaussian, Inc.),
 the Gaussian 88(TM) system (copyright 1988, Gaussian, Inc.),
 the Gaussian 86(TM) system (copyright 1986, Carnegie Mellon
 University), and the Gaussian 82(TM) system (copyright 1983,
 Carnegie Mellon University). Gaussian is a federally registered
 trademark of Gaussian, Inc.
  
 This software contains proprietary and confidential information,
 including trade secrets, belonging to Gaussian, Inc.
  
 This software is provided under written license and may be
 used, copied, transmitted, or stored only in accord with that
 written license.
  
 The following legend is applicable only to US Government
 contracts under FAR:
  
                    RESTRICTED RIGHTS LEGEND
  
 Use, reproduction and disclosure by the US Government is
 subject to restrictions as set forth in subparagraphs (a)
 and (c) of the Commercial Computer Software - Restricted
 Rights clause in FAR 52.227-19.
  
 Gaussian, Inc.
 340 Quinnipiac St., Bldg. 40, Wallingford CT 06492
  
  
 ---------------------------------------------------------------
 Warning -- This program may not be used in any manner that
 competes with the business of Gaussian, Inc. or will provide
 assistance to any competitor of Gaussian, Inc.  The licensee
 of this program is prohibited from giving any competitor of
 Gaussian, Inc. access to this program.  By using this program,
 the user acknowledges that Gaussian, Inc. is engaged in the
 business of creating and licensing software in the field of
 computational chemistry and represents and warrants to the
 licensee that it is not a competitor of Gaussian, Inc. and that
 it will not use this program in any manner prohibited above.
 ---------------------------------------------------------------
  

 Cite this work as:
 Gaussian 16, Revision B.01,
 M. J. Frisch, G. W. Trucks, H. B. Schlegel, G. E. Scuseria, 
 M. A. Robb, J. R. Cheeseman, G. Scalmani, V. Barone, 
 G. A. Petersson, H. Nakatsuji, X. Li, M. Caricato, A. V. Marenich, 
 J. Bloino, B. G. Janesko, R. Gomperts, B. Mennucci, H. P. Hratchian, 
 J. V. Ortiz, A. F. Izmaylov, J. L. Sonnenberg, D. Williams-Young, 
 F. Ding, F. Lipparini, F. Egidi, J. Goings, B. Peng, A. Petrone, 
 T. Henderson, D. Ranasinghe, V. G. Zakrzewski, J. Gao, N. Rega, 
 G. Zheng, W. Liang, M. Hada, M. Ehara, K. Toyota, R. Fukuda, 
 J. Hasegawa, M. Ishida, T. Nakajima, Y. Honda, O. Kitao, H. Nakai, 
 T. Vreven, K. Throssell, J. A. Montgomery, Jr., J. E. Peralta, 
 F. Ogliaro, M. J. Bearpark, J. J. Heyd, E. N. Brothers, K. N. Kudin, 
 V. N. Staroverov, T. A. Keith, R. Kobayashi, J. Normand, 
 K. Raghavachari, A. P. Rendell, J. C. Burant, S. S. Iyengar, 
 J. Tomasi, M. Cossi, J. M. Millam, M. Klene, C. Adamo, R. Cammi, 
 J. W. Ochterski, R. L. Martin, K. Morokuma, O. Farkas, 
 J. B. Foresman, and D. J. Fox, Gaussian, Inc., Wallingford CT, 2016.
 
 ******************************************
 Gaussian 16:  ES64L-G16RevB.01 20-Dec-2017
                13-Dec-2021 
 ******************************************
 %nproc=28
 Will use up to   28 processors via shared memory.
 %mem=120GB
 %chk=/gscratch/ilahie/mccoygrp/coire_hocl/clhocl_fully_relaxed.chk
 -------------------------------------------------
 #p opt=(z-matrix) mp2/aug-cc-pvtz density=current
 -------------------------------------------------
 1/10=7,18=40,38=1/1,3;
 2/12=2,17=6,18=5,29=3,40=1/2;
 3/5=16,6=1,7=10,11=9,25=1,30=1,71=1/1,2,3;
 4//1;
 5/5=2,38=5/2;
 8/6=4,10=1/1;
 9/15=2,16=-3/6;
 10/5=1/2;
 6/7=2,8=2,9=2,10=2,22=-1/1;
 7/12=2,29=1/1,2,3,16;
 1/10=7,18=40/3(2);
 2/29=3/2;
 99//99;
 2/29=3/2;
 3/5=16,6=1,7=10,11=9,25=1,30=1,71=1/1,2,3;
 4/5=5,16=3,69=1/1;
 5/5=2,38=5/2;
 8/6=4,10=1/1;
 9/15=2,16=-3/6;
 10/5=1/2;
 7/12=2/1,2,3,16;
 1/18=40/3(-8);
 2/29=3/2;
 6/7=2,8=2,9=2,10=2,22=-1/1;
 99/9=10/99;
 Leave Link    1 at Mon Dec 13 11:09:47 2021, MaxMem= 16106127360 cpu:               2.7 elap:               0.1
 (Enter /sw/contrib/gaussian/g16/B01/g16/l101.exe)
 -----
 title
 -----
 Symbolic Z-matrix:
 Charge = -1 Multiplicity = 1
 O
 X                    1     10. 
 Cl                   1    r1       2    a1
 Cl                   1    r2       2    a2       3    d1       0
 H                    1    r3       2    oop      3    d2       0
       Variables:
  r1                    1.685                    
  r2                    3.07067                  
  r3                    1.01773                  
  a1                   90.                       
  a2                   90.                       
  d1                  103.50791                  
  d2                  103.50791                  
  OOP                  90.                       
 
 ITRead=  0  0  0  0
 MicOpt= -1 -1 -1 -1
 NAtoms=      4 NQM=        4 NQMF=       0 NMMI=      0 NMMIF=      0
                NMic=       0 NMicF=      0.
                    Isotopes and Nuclear Properties:
 (Nuclear quadrupole moments (NQMom) in fm**2, nuclear magnetic moments (NMagM)
  in nuclear magnetons)

  Atom         1           2           3           4
 IAtWgt=          16          35          35           1
 AtmWgt=  15.9949146  34.9688527  34.9688527   1.0078250
 NucSpn=           0           3           3           1
 AtZEff=  -0.0000000  -0.0000000  -0.0000000  -0.0000000
 NQMom=    0.0000000  -8.1650000  -8.1650000   0.0000000
 NMagM=    0.0000000   0.8218740   0.8218740   2.7928460
 AtZNuc=   8.0000000  17.0000000  17.0000000   1.0000000
 Leave Link  101 at Mon Dec 13 11:09:47 2021, MaxMem= 16106127360 cpu:               3.1 elap:               0.2
 (Enter /sw/contrib/gaussian/g16/B01/g16/l103.exe)

 GradGradGradGradGradGradGradGradGradGradGradGradGradGradGradGradGradGrad
 Berny optimization.
 Initialization pass.
                       ----------------------------
                       !    Initial Parameters    !
                       ! (Angstroms and Degrees)  !
 ----------------------                            ----------------------
 !      Name          Value   Derivative information (Atomic Units)     !
 ------------------------------------------------------------------------
 !       r1          1.685    estimate D2E/DX2                          !
 !       r2          3.0707   estimate D2E/DX2                          !
 !       r3          1.0177   estimate D2E/DX2                          !
 !       a1         90.0      estimate D2E/DX2                          !
 !       a2         90.0      estimate D2E/DX2                          !
 !       d1        103.5079   estimate D2E/DX2                          !
 !       d2        103.5079   estimate D2E/DX2                          !
 !       OOP        90.0      estimate D2E/DX2                          !
 ------------------------------------------------------------------------
 Trust Radius=3.00D-01 FncErr=1.00D-07 GrdErr=1.00D-07 EigMax=2.50D+02 EigMin=1.00D-04
 Number of steps in this run=     20 maximum allowed number of steps=    100.
 GradGradGradGradGradGradGradGradGradGradGradGradGradGradGradGradGradGrad

 Leave Link  103 at Mon Dec 13 11:09:47 2021, MaxMem= 16106127360 cpu:               0.9 elap:               0.1
 (Enter /sw/contrib/gaussian/g16/B01/g16/l202.exe)
 ---------------------------------------------------------------------------------------------------
                            Z-MATRIX (ANGSTROMS AND DEGREES)
   CD    Cent   Atom    N1       Length/X        N2       Alpha/Y        N3        Beta/Z          J
 ---------------------------------------------------------------------------------------------------
      1      1  O 
      2         X        1  10.000000(     1)
      3      2  Cl       1   1.685000(     2)      2   90.000(     5)
      4      3  Cl       1   3.070672(     3)      2   90.000(     6)      3  103.508(     8)      0
      5      4  H        1   1.017728(     4)      2   90.000(     7)      3  103.508(     9)      0
 ---------------------------------------------------------------------------------------------------
                         Z-Matrix orientation:                         
 ---------------------------------------------------------------------
 Center     Atomic      Atomic             Coordinates (Angstroms)
 Number     Number       Type             X           Y           Z
 ---------------------------------------------------------------------
      1          8           0        0.000000    0.000000    0.000000
      2         -1           0        0.000000    0.000000   10.000000
      3         17           0        1.685000    0.000000    0.000000
      4         17           0       -0.717246   -2.985731    0.000000
      5          1           0       -0.237720   -0.989575    0.000000
 ---------------------------------------------------------------------
                    Distance matrix (angstroms):
                    1          2          3          4          5
     1  O    0.000000
     2  X   10.000000   0.000000
     3  Cl   1.685000  10.140968   0.000000
     4  Cl   3.070672  10.460833   3.832150   0.000000
     5  H    1.017728  10.051655   2.162432   2.052945   0.000000
 Stoichiometry    Cl2HO(1-)
 Framework group  CS[SG(Cl2HO)]
 Deg. of freedom     5
 Full point group                 CS      NOp   2
 Largest Abelian subgroup         CS      NOp   2
 Largest concise Abelian subgroup C1      NOp   1
                         Standard orientation:                         
 ---------------------------------------------------------------------
 Center     Atomic      Atomic             Coordinates (Angstroms)
 Number     Number       Type             X           Y           Z
 ---------------------------------------------------------------------
      1          8           0       -1.012746    0.751495    0.000000
      2         17           0       -1.566310   -0.839980    0.000000
      3         17           0        2.042896    0.448045   -0.000000
      4          1           0       -0.000000    0.650921   -0.000000
 ---------------------------------------------------------------------
 Rotational constants (GHZ):          23.0038753           1.8906541           1.7470654
 Leave Link  202 at Mon Dec 13 11:09:47 2021, MaxMem= 16106127360 cpu:               2.6 elap:               0.1
 (Enter /sw/contrib/gaussian/g16/B01/g16/l301.exe)
 Standard basis: Aug-CC-pVTZ (5D, 7F)
 Ernie: Thresh=  0.10000D-02 Tol=  0.10000D-05 Strict=F.
 Ernie:  29 primitive shells out of 169 were deleted.
 There are   135 symmetry adapted cartesian basis functions of A'  symmetry.
 There are    63 symmetry adapted cartesian basis functions of A"  symmetry.
 There are   112 symmetry adapted basis functions of A'  symmetry.
 There are    57 symmetry adapted basis functions of A"  symmetry.
   169 basis functions,   327 primitive gaussians,   198 cartesian basis functions
    22 alpha electrons       22 beta electrons
       nuclear repulsion energy       118.7577845079 Hartrees.
 IExCor=    0 DFT=F Ex=HF Corr=None ExCW=0 ScaHFX=  1.000000
 ScaDFX=  1.000000  1.000000  1.000000  1.000000 ScalE2=  1.000000  1.000000
 IRadAn=      5 IRanWt=     -1 IRanGd=            0 ICorTp=0 IEmpDi=  4
 NAtoms=    4 NActive=    4 NUniq=    4 SFac= 1.00D+00 NAtFMM=   60 NAOKFM=F Big=F
 Integral buffers will be    131072 words long.
 Raffenetti 1 integral format.
 Two-electron integral symmetry is turned on.
 Leave Link  301 at Mon Dec 13 11:09:47 2021, MaxMem= 16106127360 cpu:               1.9 elap:               0.1
 (Enter /sw/contrib/gaussian/g16/B01/g16/l302.exe)
 NPDir=0 NMtPBC=     1 NCelOv=     1 NCel=       1 NClECP=     1 NCelD=      1
         NCelK=      1 NCelE2=     1 NClLst=     1 CellRange=     0.0.
 One-electron integrals computed using PRISM.
 One-electron integral symmetry used in STVInt
 NBasis=   169 RedAO= T EigKep=  2.48D-04  NBF=   112    57
 NBsUse=   169 1.00D-06 EigRej= -1.00D+00 NBFU=   112    57
 Leave Link  302 at Mon Dec 13 11:09:47 2021, MaxMem= 16106127360 cpu:               4.4 elap:               0.2
 (Enter /sw/contrib/gaussian/g16/B01/g16/l303.exe)
 DipDrv:  MaxL=1.
 Leave Link  303 at Mon Dec 13 11:09:47 2021, MaxMem= 16106127360 cpu:               0.7 elap:               0.0
 (Enter /sw/contrib/gaussian/g16/B01/g16/l401.exe)
 ExpMin= 2.53D-02 ExpMax= 4.56D+05 ExpMxC= 1.44D+03 IAcc=3 IRadAn=         5 AccDes= 0.00D+00
 Harris functional with IExCor=  205 and IRadAn=       5 diagonalized for initial guess.
 HarFok:  IExCor=  205 AccDes= 0.00D+00 IRadAn=         5 IDoV= 1 UseB2=F ITyADJ=14
 ICtDFT=  3500011 ScaDFX=  1.000000  1.000000  1.000000  1.000000
 FoFCou: FMM=F IPFlag=           0 FMFlag=      100000 FMFlg1=           0
         NFxFlg=           0 DoJE=T BraDBF=F KetDBF=T FulRan=T
         wScrn=  0.000000 ICntrl=       500 IOpCl=  0 I1Cent=   200000004 NGrid=           0
         NMat0=    1 NMatS0=      1 NMatT0=    0 NMatD0=    1 NMtDS0=    0 NMtDT0=    0
 Petite list used in FoFCou.
 Harris En= -993.820011600647    
 JPrj=0 DoOrth=F DoCkMO=F.
 Initial guess orbital symmetries:
       Occupied  (A') (A') (A') (A') (A') (A') (A') (A") (A') (A')
                 (A") (A') (A') (A') (A') (A') (A") (A') (A') (A")
                 (A') (A")
       Virtual   (A') (A') (A') (A') (A") (A') (A') (A") (A') (A')
                 (A') (A") (A') (A") (A') (A') (A') (A") (A') (A")
                 (A') (A") (A') (A') (A') (A") (A') (A') (A') (A")
                 (A") (A') (A') (A") (A') (A') (A') (A") (A") (A')
                 (A") (A') (A') (A') (A") (A') (A') (A') (A") (A')
                 (A") (A') (A') (A") (A") (A') (A") (A') (A') (A")
                 (A') (A") (A') (A') (A') (A') (A') (A") (A") (A")
                 (A') (A") (A') (A') (A') (A') (A') (A") (A') (A')
                 (A") (A") (A') (A') (A') (A") (A') (A") (A') (A')
                 (A") (A") (A') (A') (A") (A') (A") (A') (A') (A")
                 (A') (A") (A') (A') (A") (A') (A") (A") (A') (A')
                 (A') (A') (A") (A") (A') (A') (A') (A") (A') (A')
                 (A') (A") (A") (A') (A") (A') (A') (A') (A') (A")
                 (A') (A') (A') (A') (A") (A') (A") (A') (A") (A")
                 (A') (A') (A") (A') (A') (A') (A')
 The electronic state of the initial guess is 1-A'.
 Leave Link  401 at Mon Dec 13 11:09:48 2021, MaxMem= 16106127360 cpu:               5.2 elap:               0.2
 (Enter /sw/contrib/gaussian/g16/B01/g16/l502.exe)
 Keep R1 ints in memory in symmetry-blocked form, NReq=155449223.
 FoFCou: FMM=F IPFlag=           0 FMFlag=           0 FMFlg1=           0
         NFxFlg=           0 DoJE=F BraDBF=F KetDBF=F FulRan=T
         wScrn=  0.000000 ICntrl=       600 IOpCl=  0 I1Cent=           0 NGrid=           0
         NMat0=    1 NMatS0=  14365 NMatT0=    0 NMatD0=    1 NMtDS0=    0 NMtDT0=    0
 Petite list used in FoFCou.
 Closed shell SCF:
 Using DIIS extrapolation, IDIIS=  1040.
 NGot= 16106127360 LenX= 16053777278 LenY= 16053737633
 Requested convergence on RMS density matrix=1.00D-08 within 128 cycles.
 Requested convergence on MAX density matrix=1.00D-06.
 Requested convergence on             energy=1.00D-06.
 No special actions if energy rises.

 Cycle   1  Pass 1  IDiag  1:
 E= -994.399629618655    
 DIIS: error= 2.70D-02 at cycle   1 NSaved=   1.
 NSaved= 1 IEnMin= 1 EnMin= -994.399629618655     IErMin= 1 ErrMin= 2.70D-02
 ErrMax= 2.70D-02  0.00D+00 EMaxC= 1.00D-01 BMatC= 4.20D-01 BMatP= 4.20D-01
 IDIUse=3 WtCom= 7.30D-01 WtEn= 2.70D-01
 Coeff-Com:  0.100D+01
 Coeff-En:   0.100D+01
 Coeff:      0.100D+01
 Gap=     0.556 Goal=   None    Shift=    0.000
 GapD=    0.556 DampG=2.000 DampE=0.500 DampFc=1.0000 IDamp=-1.
 RMSDP=2.12D-03 MaxDP=7.08D-02              OVMax= 1.18D-01

 Cycle   2  Pass 1  IDiag  1:
 E= -994.492645516986     Delta-E=       -0.093015898331 Rises=F Damp=F
 DIIS: error= 2.02D-02 at cycle   2 NSaved=   2.
 NSaved= 2 IEnMin= 2 EnMin= -994.492645516986     IErMin= 2 ErrMin= 2.02D-02
 ErrMax= 2.02D-02  0.00D+00 EMaxC= 1.00D-01 BMatC= 4.66D-02 BMatP= 4.20D-01
 IDIUse=3 WtCom= 7.98D-01 WtEn= 2.02D-01
 Coeff-Com:  0.161D+00 0.839D+00
 Coeff-En:   0.000D+00 0.100D+01
 Coeff:      0.128D+00 0.872D+00
 Gap=     0.365 Goal=   None    Shift=    0.000
 RMSDP=9.56D-04 MaxDP=3.86D-02 DE=-9.30D-02 OVMax= 7.71D-02

 Cycle   3  Pass 1  IDiag  1:
 E= -994.515441318245     Delta-E=       -0.022795801259 Rises=F Damp=F
 DIIS: error= 9.06D-03 at cycle   3 NSaved=   3.
 NSaved= 3 IEnMin= 3 EnMin= -994.515441318245     IErMin= 3 ErrMin= 9.06D-03
 ErrMax= 9.06D-03  0.00D+00 EMaxC= 1.00D-01 BMatC= 1.41D-02 BMatP= 4.66D-02
 IDIUse=3 WtCom= 9.09D-01 WtEn= 9.06D-02
 Coeff-Com: -0.151D-01 0.345D+00 0.670D+00
 Coeff-En:   0.000D+00 0.138D+00 0.862D+00
 Coeff:     -0.137D-01 0.326D+00 0.688D+00
 Gap=     0.356 Goal=   None    Shift=    0.000
 RMSDP=3.56D-04 MaxDP=1.31D-02 DE=-2.28D-02 OVMax= 3.55D-02

 Cycle   4  Pass 1  IDiag  1:
 E= -994.524965499326     Delta-E=       -0.009524181080 Rises=F Damp=F
 DIIS: error= 1.32D-03 at cycle   4 NSaved=   4.
 NSaved= 4 IEnMin= 4 EnMin= -994.524965499326     IErMin= 4 ErrMin= 1.32D-03
 ErrMax= 1.32D-03  0.00D+00 EMaxC= 1.00D-01 BMatC= 1.73D-04 BMatP= 1.41D-02
 IDIUse=3 WtCom= 9.87D-01 WtEn= 1.32D-02
 Coeff-Com: -0.409D-02 0.237D-01 0.113D+00 0.867D+00
 Coeff-En:   0.000D+00 0.000D+00 0.000D+00 0.100D+01
 Coeff:     -0.403D-02 0.234D-01 0.111D+00 0.869D+00
 Gap=     0.350 Goal=   None    Shift=    0.000
 RMSDP=5.43D-05 MaxDP=1.39D-03 DE=-9.52D-03 OVMax= 2.99D-03

 Cycle   5  Pass 1  IDiag  1:
 E= -994.525142714763     Delta-E=       -0.000177215437 Rises=F Damp=F
 DIIS: error= 2.65D-04 at cycle   5 NSaved=   5.
 NSaved= 5 IEnMin= 5 EnMin= -994.525142714763     IErMin= 5 ErrMin= 2.65D-04
 ErrMax= 2.65D-04  0.00D+00 EMaxC= 1.00D-01 BMatC= 1.50D-05 BMatP= 1.73D-04
 IDIUse=3 WtCom= 9.97D-01 WtEn= 2.65D-03
 Coeff-Com:  0.972D-03-0.394D-01-0.690D-01 0.135D-01 0.109D+01
 Coeff-En:   0.000D+00 0.000D+00 0.000D+00 0.000D+00 0.100D+01
 Coeff:      0.970D-03-0.393D-01-0.688D-01 0.134D-01 0.109D+01
 Gap=     0.351 Goal=   None    Shift=    0.000
 RMSDP=3.08D-05 MaxDP=1.08D-03 DE=-1.77D-04 OVMax= 3.00D-03

 Cycle   6  Pass 1  IDiag  1:
 E= -994.525180006388     Delta-E=       -0.000037291625 Rises=F Damp=F
 DIIS: error= 1.34D-04 at cycle   6 NSaved=   6.
 NSaved= 6 IEnMin= 6 EnMin= -994.525180006388     IErMin= 6 ErrMin= 1.34D-04
 ErrMax= 1.34D-04  0.00D+00 EMaxC= 1.00D-01 BMatC= 1.94D-06 BMatP= 1.50D-05
 IDIUse=3 WtCom= 9.99D-01 WtEn= 1.34D-03
 Coeff-Com:  0.252D-03 0.860D-02 0.154D-01-0.755D-01-0.413D+00 0.146D+01
 Coeff-En:   0.000D+00 0.000D+00 0.000D+00 0.000D+00 0.000D+00 0.100D+01
 Coeff:      0.251D-03 0.859D-02 0.154D-01-0.754D-01-0.413D+00 0.146D+01
 Gap=     0.351 Goal=   None    Shift=    0.000
 RMSDP=1.59D-05 MaxDP=5.66D-04 DE=-3.73D-05 OVMax= 1.57D-03

 Cycle   7  Pass 1  IDiag  1:
 E= -994.525186912457     Delta-E=       -0.000006906069 Rises=F Damp=F
 DIIS: error= 3.98D-05 at cycle   7 NSaved=   7.
 NSaved= 7 IEnMin= 7 EnMin= -994.525186912457     IErMin= 7 ErrMin= 3.98D-05
 ErrMax= 3.98D-05  0.00D+00 EMaxC= 1.00D-01 BMatC= 1.20D-07 BMatP= 1.94D-06
 IDIUse=1 WtCom= 1.00D+00 WtEn= 0.00D+00
 Coeff-Com: -0.175D-03-0.822D-03-0.773D-03 0.289D-01 0.892D-01-0.611D+00
 Coeff-Com:  0.149D+01
 Coeff:     -0.175D-03-0.822D-03-0.773D-03 0.289D-01 0.892D-01-0.611D+00
 Coeff:      0.149D+01
 Gap=     0.352 Goal=   None    Shift=    0.000
 RMSDP=4.98D-06 MaxDP=1.83D-04 DE=-6.91D-06 OVMax= 4.88D-04

 Cycle   8  Pass 1  IDiag  1:
 E= -994.525187467167     Delta-E=       -0.000000554710 Rises=F Damp=F
 DIIS: error= 7.28D-06 at cycle   8 NSaved=   8.
 NSaved= 8 IEnMin= 8 EnMin= -994.525187467167     IErMin= 8 ErrMin= 7.28D-06
 ErrMax= 7.28D-06  0.00D+00 EMaxC= 1.00D-01 BMatC= 8.73D-09 BMatP= 1.20D-07
 IDIUse=1 WtCom= 1.00D+00 WtEn= 0.00D+00
 Coeff-Com:  0.113D-04-0.668D-03-0.103D-02 0.140D-02 0.182D-01-0.277D-01
 Coeff-Com: -0.171D+00 0.118D+01
 Coeff:      0.113D-04-0.668D-03-0.103D-02 0.140D-02 0.182D-01-0.277D-01
 Coeff:     -0.171D+00 0.118D+01
 Gap=     0.352 Goal=   None    Shift=    0.000
 RMSDP=1.12D-06 MaxDP=2.74D-05 DE=-5.55D-07 OVMax= 1.28D-04

 Cycle   9  Pass 1  IDiag  1:
 E= -994.525187499528     Delta-E=       -0.000000032362 Rises=F Damp=F
 DIIS: error= 3.90D-06 at cycle   9 NSaved=   9.
 NSaved= 9 IEnMin= 9 EnMin= -994.525187499528     IErMin= 9 ErrMin= 3.90D-06
 ErrMax= 3.90D-06  0.00D+00 EMaxC= 1.00D-01 BMatC= 1.27D-09 BMatP= 8.73D-09
 IDIUse=1 WtCom= 1.00D+00 WtEn= 0.00D+00
 Coeff-Com:  0.170D-04 0.233D-03 0.353D-03-0.379D-02-0.154D-01 0.842D-01
 Coeff-Com: -0.155D+00-0.241D+00 0.133D+01
 Coeff:      0.170D-04 0.233D-03 0.353D-03-0.379D-02-0.154D-01 0.842D-01
 Coeff:     -0.155D+00-0.241D+00 0.133D+01
 Gap=     0.352 Goal=   None    Shift=    0.000
 RMSDP=5.62D-07 MaxDP=1.16D-05 DE=-3.24D-08 OVMax= 6.74D-05

 Cycle  10  Pass 1  IDiag  1:
 E= -994.525187505971     Delta-E=       -0.000000006443 Rises=F Damp=F
 DIIS: error= 1.83D-06 at cycle  10 NSaved=  10.
 NSaved=10 IEnMin=10 EnMin= -994.525187505971     IErMin=10 ErrMin= 1.83D-06
 ErrMax= 1.83D-06  0.00D+00 EMaxC= 1.00D-01 BMatC= 2.02D-10 BMatP= 1.27D-09
 IDIUse=1 WtCom= 1.00D+00 WtEn= 0.00D+00
 Coeff-Com: -0.326D-05 0.364D-04 0.121D-04 0.639D-03 0.123D-02-0.149D-01
 Coeff-Com:  0.616D-01-0.164D+00-0.197D+00 0.131D+01
 Coeff:     -0.326D-05 0.364D-04 0.121D-04 0.639D-03 0.123D-02-0.149D-01
 Coeff:      0.616D-01-0.164D+00-0.197D+00 0.131D+01
 Gap=     0.352 Goal=   None    Shift=    0.000
 RMSDP=2.44D-07 MaxDP=5.50D-06 DE=-6.44D-09 OVMax= 2.88D-05

 Cycle  11  Pass 1  IDiag  1:
 E= -994.525187506955     Delta-E=       -0.000000000984 Rises=F Damp=F
 DIIS: error= 5.44D-07 at cycle  11 NSaved=  11.
 NSaved=11 IEnMin=11 EnMin= -994.525187506955     IErMin=11 ErrMin= 5.44D-07
 ErrMax= 5.44D-07  0.00D+00 EMaxC= 1.00D-01 BMatC= 1.49D-11 BMatP= 2.02D-10
 IDIUse=1 WtCom= 1.00D+00 WtEn= 0.00D+00
 Coeff-Com: -0.260D-05-0.234D-04-0.251D-04 0.423D-03 0.146D-02-0.810D-02
 Coeff-Com:  0.116D-01 0.439D-01-0.106D+00-0.249D+00 0.131D+01
 Coeff:     -0.260D-05-0.234D-04-0.251D-04 0.423D-03 0.146D-02-0.810D-02
 Coeff:      0.116D-01 0.439D-01-0.106D+00-0.249D+00 0.131D+01
 Gap=     0.352 Goal=   None    Shift=    0.000
 RMSDP=7.18D-08 MaxDP=1.74D-06 DE=-9.84D-10 OVMax= 8.20D-06

 Cycle  12  Pass 1  IDiag  1:
 E= -994.525187507032     Delta-E=       -0.000000000078 Rises=F Damp=F
 DIIS: error= 9.71D-08 at cycle  12 NSaved=  12.
 NSaved=12 IEnMin=12 EnMin= -994.525187507032     IErMin=12 ErrMin= 9.71D-08
 ErrMax= 9.71D-08  0.00D+00 EMaxC= 1.00D-01 BMatC= 6.80D-13 BMatP= 1.49D-11
 IDIUse=1 WtCom= 1.00D+00 WtEn= 0.00D+00
 Coeff-Com:  0.648D-06 0.599D-06 0.105D-05-0.984D-04-0.278D-03 0.199D-02
 Coeff-Com: -0.485D-02 0.680D-03 0.292D-01-0.280D-01-0.211D+00 0.121D+01
 Coeff:      0.648D-06 0.599D-06 0.105D-05-0.984D-04-0.278D-03 0.199D-02
 Coeff:     -0.485D-02 0.680D-03 0.292D-01-0.280D-01-0.211D+00 0.121D+01
 Gap=     0.352 Goal=   None    Shift=    0.000
 RMSDP=1.23D-08 MaxDP=3.15D-07 DE=-7.75D-11 OVMax= 1.06D-06

 Cycle  13  Pass 1  IDiag  1:
 E= -994.525187507030     Delta-E=        0.000000000002 Rises=F Damp=F
 DIIS: error= 2.16D-08 at cycle  13 NSaved=  13.
 NSaved=13 IEnMin=12 EnMin= -994.525187507032     IErMin=13 ErrMin= 2.16D-08
 ErrMax= 2.16D-08  0.00D+00 EMaxC= 1.00D-01 BMatC= 7.24D-14 BMatP= 6.80D-13
 IDIUse=1 WtCom= 1.00D+00 WtEn= 0.00D+00
 Coeff-Com:  0.166D-06 0.197D-05 0.170D-05-0.272D-04-0.992D-04 0.527D-03
 Coeff-Com: -0.588D-03-0.415D-02 0.765D-02 0.241D-01-0.109D+00-0.715D-01
 Coeff-Com:  0.115D+01
 Coeff:      0.166D-06 0.197D-05 0.170D-05-0.272D-04-0.992D-04 0.527D-03
 Coeff:     -0.588D-03-0.415D-02 0.765D-02 0.241D-01-0.109D+00-0.715D-01
 Coeff:      0.115D+01
 Gap=     0.352 Goal=   None    Shift=    0.000
 RMSDP=3.83D-09 MaxDP=9.82D-08 DE= 2.05D-12 OVMax= 3.37D-07

 SCF Done:  E(RHF) =  -994.525187507     A.U. after   13 cycles
            NFock= 13  Conv=0.38D-08     -V/T= 2.0002
 KE= 9.943130401961D+02 PE=-2.615054302406D+03 EE= 5.074582901952D+02
 Leave Link  502 at Mon Dec 13 11:09:49 2021, MaxMem= 16106127360 cpu:              31.9 elap:               1.9
 (Enter /sw/contrib/gaussian/g16/B01/g16/l801.exe)
 ExpMin= 2.53D-02 ExpMax= 4.56D+05 ExpMxC= 1.44D+03 IAcc=3 IRadAn=         5 AccDes= 0.00D+00
 HarFok:  IExCor=  205 AccDes= 0.00D+00 IRadAn=         5 IDoV=-2 UseB2=F ITyADJ=14
 ICtDFT= 12500011 ScaDFX=  1.000000  1.000000  1.000000  1.000000
 Largest valence mixing into a core orbital is  4.47D-04
 Largest core mixing into a valence orbital is  1.74D-04
 Range of M.O.s used for correlation:    12   169
 NBasis=   169 NAE=    22 NBE=    22 NFC=    11 NFV=     0
 NROrb=    158 NOA=    11 NOB=    11 NVA=   147 NVB=   147

 **** Warning!!: The largest alpha MO coefficient is  0.18171186D+02

 Leave Link  801 at Mon Dec 13 11:09:50 2021, MaxMem= 16106127360 cpu:               2.8 elap:               0.2
 (Enter /sw/contrib/gaussian/g16/B01/g16/l906.exe)
 Frozen-core derivative calculation, NFC=  11 NFV=   0.
 FulOut=F Deriv=T AODrv=T NAtomX=     4
   MMem=         144  MDisk=          11 MDiskD=          11
  W3Min=      736164 MinDsk=     1250177 NBas6D=         198
 NBas2D=       20187    NTT=       19701    LW2=     3500000
    MDV= 16105707577 MDiskM=      406659 NBas2p=       20007
 Fully direct method using O(ONN) memory.
 IMap=   1   2   3   4   5   6   7   8   9  10  11  12  13  14  15  16  17  18  19  20
 IMap=  21  22
 JobTyp=1 Pass  1:  I=  12 to  22 NPSUse= 28 ParTrn=T ParDer=T DoDerP=T.
 Spin components of T(2) and E(2):
     alpha-alpha T2 =       0.2918187007D-01 E2=     -0.8378679015D-01
     alpha-beta  T2 =       0.1595944509D+00 E2=     -0.4980243835D+00
     beta-beta   T2 =       0.2918187007D-01 E2=     -0.8378679015D-01
 The integrals were generated   1 times.
 ANorm=    0.1103611431D+01
 E2 =    -0.6655979638D+00 EUMP2 =    -0.99519078547083D+03
 Leave Link  906 at Mon Dec 13 11:10:00 2021, MaxMem= 16106127360 cpu:             296.0 elap:              10.6
 (Enter /sw/contrib/gaussian/g16/B01/g16/l1002.exe)
 Minotr:  Closed shell wavefunction.
          Computing MP2/KS-MP2 derivatives.
          Using Z-Vector for PSCF gradient.
          Skipping F1 and S1 gradient terms here.
          IDoAtm=1111
          Frozen-core window.
          Direct CPHF calculation.
          Differentiating once with respect to electric field.
                with respect to dipole field.
          Differentiating once with respect to nuclear coordinates.
          Using symmetry in CPHF.
          Requested convergence is 1.0D-10 RMS, and 1.0D-09 maximum.
          NewPWx=F KeepS1=T KeepF1=T KeepIn=T MapXYZ=F SortEE=F KeepMc=T.
 Keep R1 ints in memory in symmetry-blocked form, NReq=155450263.
 FoFCou: FMM=F IPFlag=           0 FMFlag=           0 FMFlg1=           0
         NFxFlg=           0 DoJE=F BraDBF=F KetDBF=F FulRan=T
         wScrn=  0.000000 ICntrl=       600 IOpCl=  0 I1Cent=           0 NGrid=           0
         NMat0=    1 NMatS0=  14365 NMatT0=    0 NMatD0=    1 NMtDS0=    0 NMtDT0=    0
 Petite list used in FoFCou.
          MDV=   16106127360 using IRadAn=       5.
          Solving linear equations separately, MaxMat=       0.
          There are     1 degrees of freedom in the 1st order CPHF.  IDoFFX=0 NUNeed=     1.
 LinEq1:  Iter=  0 NonCon=     1 RMS=3.06D-03 Max=4.61D-02 NDo=     1
 AX will form     1 AO Fock derivatives at one time.
 LinEq1:  Iter=  1 NonCon=     1 RMS=3.80D-04 Max=4.74D-03 NDo=     1
 LinEq1:  Iter=  2 NonCon=     1 RMS=1.58D-04 Max=3.10D-03 NDo=     1
 LinEq1:  Iter=  3 NonCon=     1 RMS=6.17D-05 Max=1.04D-03 NDo=     1
 LinEq1:  Iter=  4 NonCon=     1 RMS=2.54D-05 Max=6.37D-04 NDo=     1
 LinEq1:  Iter=  5 NonCon=     1 RMS=5.65D-06 Max=7.51D-05 NDo=     1
 LinEq1:  Iter=  6 NonCon=     1 RMS=1.52D-06 Max=2.05D-05 NDo=     1
 LinEq1:  Iter=  7 NonCon=     1 RMS=3.56D-07 Max=7.76D-06 NDo=     1
 LinEq1:  Iter=  8 NonCon=     1 RMS=6.86D-08 Max=1.47D-06 NDo=     1
 LinEq1:  Iter=  9 NonCon=     1 RMS=1.61D-08 Max=3.02D-07 NDo=     1
 LinEq1:  Iter= 10 NonCon=     1 RMS=3.53D-09 Max=4.28D-08 NDo=     1
 LinEq1:  Iter= 11 NonCon=     1 RMS=6.81D-10 Max=7.02D-09 NDo=     1
 LinEq1:  Iter= 12 NonCon=     1 RMS=1.85D-10 Max=2.60D-09 NDo=     1
 LinEq1:  Iter= 13 NonCon=     0 RMS=4.01D-11 Max=6.10D-10 NDo=     1
 Linear equations converged to 1.000D-10 1.000D-09 after    13 iterations.
 End of Minotr F.D. properties file   721 does not exist.
 End of Minotr F.D. properties file   722 does not exist.
 End of Minotr F.D. properties file   788 does not exist.
 Leave Link 1002 at Mon Dec 13 11:10:02 2021, MaxMem= 16106127360 cpu:              35.6 elap:               2.1
 (Enter /sw/contrib/gaussian/g16/B01/g16/l601.exe)
 Copying SCF densities to generalized density rwf, IOpCl= 0 IROHF=0.

 **********************************************************************

            Population analysis using the MP2 Density.

 **********************************************************************

 Orbital symmetries:
       Occupied  (A') (A') (A') (A') (A') (A') (A') (A") (A') (A")
                 (A') (A') (A') (A') (A') (A") (A') (A') (A") (A')
                 (A") (A')
       Virtual   (A') (A') (A') (A") (A') (A') (A") (A') (A') (A")
                 (A') (A') (A') (A') (A") (A') (A') (A") (A') (A")
                 (A') (A") (A') (A') (A') (A") (A') (A') (A") (A')
                 (A') (A") (A') (A') (A") (A') (A") (A') (A') (A")
                 (A') (A") (A') (A') (A") (A') (A') (A') (A") (A")
                 (A') (A') (A') (A") (A") (A') (A') (A") (A') (A")
                 (A') (A") (A') (A') (A') (A') (A") (A") (A') (A')
                 (A") (A') (A') (A") (A') (A') (A') (A") (A') (A')
                 (A") (A") (A') (A') (A') (A") (A') (A") (A') (A")
                 (A') (A') (A") (A') (A") (A') (A") (A') (A') (A")
                 (A") (A') (A') (A") (A') (A') (A") (A') (A') (A")
                 (A") (A') (A') (A") (A') (A') (A") (A') (A') (A')
                 (A') (A") (A") (A') (A") (A') (A') (A') (A') (A")
                 (A') (A') (A') (A') (A") (A') (A") (A') (A") (A')
                 (A") (A') (A") (A') (A') (A') (A')
 The electronic state is 1-A'.
 Alpha  occ. eigenvalues -- -104.73192-104.54550 -20.46354 -10.45139 -10.26987
 Alpha  occ. eigenvalues --   -7.91857  -7.91591  -7.91582  -7.73601  -7.73589
 Alpha  occ. eigenvalues --   -7.73589  -1.22802  -0.89557  -0.78083  -0.53801
 Alpha  occ. eigenvalues --   -0.44255  -0.43414  -0.30809  -0.28128  -0.20006
 Alpha  occ. eigenvalues --   -0.19174  -0.19173
 Alpha virt. eigenvalues --    0.15981   0.18314   0.22570   0.23235   0.25954
 Alpha virt. eigenvalues --    0.27311   0.27606   0.28788   0.30779   0.32362
 Alpha virt. eigenvalues --    0.33291   0.34882   0.38540   0.44700   0.45477
 Alpha virt. eigenvalues --    0.50523   0.51332   0.53737   0.56043   0.56095
 Alpha virt. eigenvalues --    0.57835   0.59418   0.59927   0.64865   0.66127
 Alpha virt. eigenvalues --    0.68140   0.68302   0.74333   0.77722   0.78148
 Alpha virt. eigenvalues --    0.83113   0.87936   0.88532   0.89767   0.90490
 Alpha virt. eigenvalues --    0.91662   0.95869   0.98832   1.04043   1.06016
 Alpha virt. eigenvalues --    1.06302   1.08384   1.09257   1.09997   1.12822
 Alpha virt. eigenvalues --    1.13483   1.16207   1.18776   1.19110   1.20492
 Alpha virt. eigenvalues --    1.21115   1.22542   1.27704   1.30872   1.31238
 Alpha virt. eigenvalues --    1.35737   1.39464   1.42653   1.43113   1.43965
 Alpha virt. eigenvalues --    1.46415   1.47959   1.54070   1.57503   1.62962
 Alpha virt. eigenvalues --    1.65889   1.66437   1.69533   1.70078   1.76751
 Alpha virt. eigenvalues --    1.77829   1.82524   1.84481   1.88002   1.94135
 Alpha virt. eigenvalues --    1.98378   2.27064   2.38204   2.48365   2.50811
 Alpha virt. eigenvalues --    2.52741   2.57480   2.58417   2.60913   2.65704
 Alpha virt. eigenvalues --    2.67942   2.69666   2.71749   2.72440   2.76422
 Alpha virt. eigenvalues --    2.76612   2.78637   2.79912   2.81614   2.91193
 Alpha virt. eigenvalues --    2.91398   2.92926   2.96553   3.03062   3.07978
 Alpha virt. eigenvalues --    3.12113   3.13021   3.19314   3.21562   3.22079
 Alpha virt. eigenvalues --    3.27682   3.29497   3.31138   3.33448   3.33524
 Alpha virt. eigenvalues --    3.39593   3.40376   3.40533   3.49144   3.49408
 Alpha virt. eigenvalues --    3.54442   3.54997   3.56511   3.63707   3.92908
 Alpha virt. eigenvalues --    4.22638   4.30703   4.44023   4.53789   4.58372
 Alpha virt. eigenvalues --    4.78173   4.98327   5.09867   5.32812   5.37654
 Alpha virt. eigenvalues --    5.65636   6.27415   6.52449   6.65425   6.84402
 Alpha virt. eigenvalues --    6.90090   6.91459   6.99353   7.26856   7.32459
 Alpha virt. eigenvalues --    7.34183   7.44187   7.54508   7.73686   7.81369
 Alpha virt. eigenvalues --    8.34932  14.49706
          Condensed to atoms (all electrons):
               1          2          3          4
     1  O    8.619574  -0.114186  -0.074979   0.057931
     2  Cl  -0.114186  17.055978   0.004860  -0.000987
     3  Cl  -0.074979   0.004860  17.867191   0.072764
     4  H    0.057931  -0.000987   0.072764   0.566448
 Mulliken charges:
               1
     1  O   -0.488341
     2  Cl   0.054334
     3  Cl  -0.869837
     4  H    0.303844
 Sum of Mulliken charges =  -1.00000
 Mulliken charges with hydrogens summed into heavy atoms:
               1
     1  O   -0.184497
     2  Cl   0.054334
     3  Cl  -0.869837
 Electronic spatial extent (au):  <R**2>=            601.4084
 Charge=             -1.0000 electrons
 Dipole moment (field-independent basis, Debye):
    X=             -5.6514    Y=             -1.9011    Z=              0.0000  Tot=              5.9626
 Quadrupole moment (field-independent basis, Debye-Ang):
   XX=            -56.5857   YY=            -37.3004   ZZ=            -36.7734
   XY=             -2.7883   XZ=              0.0000   YZ=              0.0000
 Traceless Quadrupole moment (field-independent basis, Debye-Ang):
   XX=            -13.0326   YY=              6.2527   ZZ=              6.7798
   XY=             -2.7883   XZ=              0.0000   YZ=              0.0000
 Octapole moment (field-independent basis, Debye-Ang**2):
  XXX=            -48.5351  YYY=             -6.2114  ZZZ=              0.0000  XYY=             -8.8674
  XXY=             -9.9658  XXZ=              0.0000  XZZ=             -6.3819  YZZ=             -0.8815
  YYZ=              0.0000  XYZ=              0.0000
 Hexadecapole moment (field-independent basis, Debye-Ang**3):
 XXXX=           -766.0438 YYYY=           -139.5744 ZZZZ=            -50.1243 XXXY=            -99.4846
 XXXZ=              0.0000 YYYX=            -78.6088 YYYZ=              0.0000 ZZZX=              0.0000
 ZZZY=              0.0000 XXYY=           -142.0788 XXZZ=           -125.8860 YYZZ=            -33.8736
 XXYZ=              0.0000 YYXZ=              0.0000 ZZXY=            -28.9884
 N-N= 1.187577845079D+02 E-N=-2.615130501576D+03  KE= 9.949776318189D+02
 Symmetry A'   KE= 8.989661078590D+02
 Symmetry A"   KE= 9.601152395981D+01
 No NMR shielding tensors so no spin-rotation constants.
 Leave Link  601 at Mon Dec 13 11:10:03 2021, MaxMem= 16106127360 cpu:               8.0 elap:               0.4
 (Enter /sw/contrib/gaussian/g16/B01/g16/l701.exe)
 ... and contract with generalized density number  2.
 Compute integral first derivatives.
 Leave Link  701 at Mon Dec 13 11:10:03 2021, MaxMem= 16106127360 cpu:               4.1 elap:               0.2
 (Enter /sw/contrib/gaussian/g16/B01/g16/l702.exe)
 L702 exits ... SP integral derivatives will be done elsewhere.
 Leave Link  702 at Mon Dec 13 11:10:03 2021, MaxMem= 16106127360 cpu:               0.4 elap:               0.0
 (Enter /sw/contrib/gaussian/g16/B01/g16/l703.exe)
 Integral derivatives from FoFJK, PRISM(SPDF).
 Compute integral first derivatives, UseDBF=F ICtDFT=           0.
 Calling FoFJK, ICntrl=  10002127 FMM=F ISym2X=1 I1Cent= 0 IOpClX= 0 NMat=1 NMatS=1 NMatT=0.
 FoFJK:  IHMeth= 1 ICntrl=10002127 DoSepK=F KAlg= 0 I1Cent=           0 FoldK=F
 IRaf=         0 NMat=       1 IRICut=       1 DoRegI=T DoRafI=F ISym2E= 1 IDoP0=0 IntGTp=1.
 FoFCou: FMM=F IPFlag=           0 FMFlag=      100000 FMFlg1=         800
         NFxFlg=           0 DoJE=F BraDBF=F KetDBF=F FulRan=T
         wScrn=  0.000000 ICntrl=  10002127 IOpCl=  0 I1Cent=           0 NGrid=           0
         NMat0=    1 NMatS0=      1 NMatT0=    0 NMatD0=    1 NMtDS0=    0 NMtDT0=    0
 Petite list used in FoFCou.
 Leave Link  703 at Mon Dec 13 11:10:04 2021, MaxMem= 16106127360 cpu:              38.8 elap:               1.4
 (Enter /sw/contrib/gaussian/g16/B01/g16/l716.exe)
 Dipole        =-2.22344365D+00-7.47938121D-01 2.28086357D-32
 ***** Axes restored to original set *****
 -------------------------------------------------------------------
 Center     Atomic                   Forces (Hartrees/Bohr)
 Number     Number              X              Y              Z
 -------------------------------------------------------------------
      1        8          -0.002583849   -0.006277453   -0.000000000
      2       17          -0.000300428   -0.000236284   -0.000000000
      3       17           0.001326509    0.007414769    0.000000000
      4        1           0.001557769   -0.000901032    0.000000000
 -------------------------------------------------------------------
 Cartesian Forces:  Max     0.007414769 RMS     0.002974975
 -----------------------------------------------------------------------------------------------
                       Internal Coordinate Forces (Hartree/Bohr or radian)
  Cent   Atom   N1       Length/X         N2         Alpha/Y        N3         Beta/Z          J
 -----------------------------------------------------------------------------------------------
      1  O 
         X        1   0.000000(     1)
      2  Cl       1  -0.000300(     2)      2   0.000000(     5)
      3  Cl       1  -0.007520(     3)      2  -0.000000(     6)      3   0.002566(     8)     0
      4  H        1   0.000512(     4)      2   0.000000(     7)      3  -0.003318(     9)     0
 -----------------------------------------------------------------------------------------------
 Internal  Forces:  Max     0.007519505 RMS     0.002876833
 Force constants in Cartesian coordinates: 
                1             2             3             4             5 
      1  0.469372D+00
      2  0.520857D-01  0.506320D+00
      3  0.000000D+00  0.000000D+00  0.195258D-01
      4 -0.377580D+00  0.000000D+00  0.000000D+00  0.377580D+00
      5  0.385604D-01 -0.497009D-01  0.000000D+00  0.000000D+00  0.404377D-01
      6  0.000000D+00  0.000000D+00  0.000000D+00  0.000000D+00  0.000000D+00
      7  0.836630D-03  0.764486D-02  0.000000D+00  0.000000D+00 -0.131561D-01
      8 -0.551121D-02 -0.239417D-01  0.000000D+00  0.000000D+00  0.316041D-02
      9  0.000000D+00  0.000000D+00  0.967973D-02  0.000000D+00  0.000000D+00
     10 -0.926291D-01 -0.597306D-01  0.000000D+00  0.000000D+00 -0.254043D-01
     11 -0.851349D-01 -0.432677D+00  0.000000D+00  0.000000D+00  0.610275D-02
     12  0.000000D+00  0.000000D+00 -0.292055D-01  0.000000D+00  0.000000D+00
                6             7             8             9            10 
      6  0.100000D+01
      7  0.000000D+00  0.127181D-01
      8  0.000000D+00  0.225502D-02  0.215635D-01
      9  0.000000D+00  0.000000D+00  0.000000D+00  0.479863D-02
     10  0.000000D+00 -0.135547D-01  0.325619D-02  0.000000D+00  0.106184D+00
     11  0.000000D+00  0.325619D-02 -0.782216D-03  0.000000D+00  0.818787D-01
     12  0.000000D+00  0.000000D+00  0.000000D+00 -0.144784D-01  0.000000D+00
               11            12 
     11  0.427357D+00
     12  0.000000D+00  0.436839D-01
 Force constants in internal coordinates: 
                1             2             3             4             5 
      1  0.000000D+00
      2  0.000000D+00  0.377580D+00
      3  0.000000D+00  0.000000D+00  0.221053D-01
      4  0.000000D+00  0.000000D+00  0.000000D+00  0.447026D+00
      5  0.000000D+00  0.000000D+00  0.000000D+00  0.000000D+00  0.101391D+02
      6  0.000000D+00  0.000000D+00  0.000000D+00  0.000000D+00  0.000000D+00
      7  0.000000D+00  0.000000D+00  0.000000D+00  0.000000D+00  0.000000D+00
      8  0.000000D+00  0.000000D+00  0.000000D+00  0.000000D+00  0.000000D+00
      9  0.000000D+00  0.000000D+00  0.000000D+00  0.000000D+00  0.000000D+00
                6             7             8             9 
      6  0.161578D+00
      7 -0.161578D+00  0.161578D+00
      8  0.000000D+00  0.000000D+00  0.410000D+00
      9  0.000000D+00  0.000000D+00 -0.160000D+00  0.320000D+00
 Leave Link  716 at Mon Dec 13 11:10:04 2021, MaxMem= 16106127360 cpu:               0.9 elap:               0.1
 (Enter /sw/contrib/gaussian/g16/B01/g16/l103.exe)

 GradGradGradGradGradGradGradGradGradGradGradGradGradGradGradGradGradGrad
 Berny optimization.
 Search for a local minimum.
 Step number   1 out of a maximum of   20
 All quantities printed in internal units (Hartrees-Bohrs-Radians)
 Second derivative matrix not updated -- first step.
 The second derivative matrix:
                          r1        r2        r3        a1        a2
           r1           0.37758
           r2           0.00000   0.02211
           r3          -0.00000  -0.00000   0.44703
           a1           0.00000  -0.00000  -0.00000  10.13905
           a2           0.00000   0.00000   0.00000  -0.00000   0.16158
           d1          -0.00000   0.00000  -0.00000  -0.00000   0.00000
           d2           0.00000   0.00000  -0.00000  -0.00000   0.00000
           OOP          0.00000   0.00000   0.00000  -0.00000  -0.16158
                          d1        d2        OOP
           d1           0.41000
           d2          -0.16000   0.32000
           OOP          0.00000   0.00000   0.16158
 ITU=  0
     Eigenvalues ---    0.00000   0.02211   0.19879   0.32316   0.37758
     Eigenvalues ---    0.44703   0.53121  10.13905
 RFO step:  Lambda=-2.34963590D-03 EMin= 2.22044605D-16
 Linear search not attempted -- first point.
 Maximum step size (   0.300) exceeded in Quadratic search.
    -- Step size scaled by   0.975
 Variable       Old X    -DE/DX   Delta X   Delta X   Delta X     New X
                                 (Linear)    (Quad)   (Total)
    r1        3.18419  -0.00030   0.00000  -0.00077  -0.00077   3.18342
    r2        5.80273  -0.00752   0.00000  -0.29986  -0.29986   5.50287
    r3        1.92323   0.00051   0.00000   0.00111   0.00111   1.92434
    a1        1.57080   0.00000   0.00000   0.00000   0.00000   1.57080
    a2        1.57080  -0.00000   0.00000  -0.00000  -0.00000   1.57080
    d1        1.80655   0.00257   0.00000   0.00269   0.00269   1.80924
    d2        1.80655  -0.00332   0.00000  -0.00870  -0.00870   1.79785
   OOP        1.57080   0.00000   0.00000  -0.00000  -0.00000   1.57080
         Item               Value     Threshold  Converged?
 Maximum Force            0.007520     0.000450     NO 
 RMS     Force            0.003051     0.000300     NO 
 Maximum Displacement     0.299859     0.001800     NO 
 RMS     Displacement     0.106066     0.001200     NO 
 Predicted change in Energy=-1.279830D-03
 Lowest energy point so far.  Saving SCF results.
 GradGradGradGradGradGradGradGradGradGradGradGradGradGradGradGradGradGrad

 Leave Link  103 at Mon Dec 13 11:10:05 2021, MaxMem= 16106127360 cpu:               0.5 elap:               0.0
 (Enter /sw/contrib/gaussian/g16/B01/g16/l202.exe)
 ---------------------------------------------------------------------------------------------------
                            Z-MATRIX (ANGSTROMS AND DEGREES)
   CD    Cent   Atom    N1       Length/X        N2       Alpha/Y        N3        Beta/Z          J
 ---------------------------------------------------------------------------------------------------
      1      1  O 
      2         X        1  10.000000(     1)
      3      2  Cl       1   1.684592(     2)      2   90.000(     5)
      4      3  Cl       1   2.911994(     3)      2   90.000(     6)      3  103.662(     8)      0
      5      4  H        1   1.018316(     4)      2   90.000(     7)      3  103.009(     9)      0
 ---------------------------------------------------------------------------------------------------
                         Z-Matrix orientation:                         
 ---------------------------------------------------------------------
 Center     Atomic      Atomic             Coordinates (Angstroms)
 Number     Number       Type             X           Y           Z
 ---------------------------------------------------------------------
      1          8           0        0.000000    0.000000    0.000000
      2         -1           0        0.000000    0.000000   10.000000
      3         17           0        1.684592    0.000000    0.000000
      4         17           0       -0.687799   -2.829601    0.000000
      5          1           0       -0.229233   -0.992179    0.000000
 ---------------------------------------------------------------------
                    Distance matrix (angstroms):
                    1          2          3          4          5
     1  O    0.000000
     2  X   10.000000   0.000000
     3  Cl   1.684592  10.140900   0.000000
     4  Cl   2.911994  10.415359   3.692544   0.000000
     5  H    1.018316  10.051715   2.155724   1.893780   0.000000
 Stoichiometry    Cl2HO(1-)
 Framework group  CS[SG(Cl2HO)]
 Deg. of freedom     5
 Full point group                 CS      NOp   2
 RotChk:  IX=0 Diff= 1.38D-01
 Largest Abelian subgroup         CS      NOp   2
 Largest concise Abelian subgroup C1      NOp   1
                         Standard orientation:                         
 ---------------------------------------------------------------------
 Center     Atomic      Atomic             Coordinates (Angstroms)
 Number     Number       Type             X           Y           Z
 ---------------------------------------------------------------------
      1          8           0       -1.018261    0.646431   -0.000000
      2         17           0       -1.414551   -0.990885   -0.000000
      3         17           0        1.893732    0.649281    0.000000
      4          1           0        0.000000    0.635826   -0.000000
 ---------------------------------------------------------------------
 Rotational constants (GHZ):          23.6996725           2.0478000           1.8849303
 Leave Link  202 at Mon Dec 13 11:10:05 2021, MaxMem= 16106127360 cpu:               2.2 elap:               0.1
 (Enter /sw/contrib/gaussian/g16/B01/g16/l301.exe)
 Standard basis: Aug-CC-pVTZ (5D, 7F)
 Ernie: Thresh=  0.10000D-02 Tol=  0.10000D-05 Strict=F.
 Ernie:  29 primitive shells out of 169 were deleted.
 There are   135 symmetry adapted cartesian basis functions of A'  symmetry.
 There are    63 symmetry adapted cartesian basis functions of A"  symmetry.
 There are   112 symmetry adapted basis functions of A'  symmetry.
 There are    57 symmetry adapted basis functions of A"  symmetry.
   169 basis functions,   327 primitive gaussians,   198 cartesian basis functions
    22 alpha electrons       22 beta electrons
       nuclear repulsion energy       121.9329022028 Hartrees.
 IExCor=    0 DFT=F Ex=HF Corr=None ExCW=0 ScaHFX=  1.000000
 ScaDFX=  1.000000  1.000000  1.000000  1.000000 ScalE2=  1.000000  1.000000
 IRadAn=      5 IRanWt=     -1 IRanGd=            0 ICorTp=0 IEmpDi=  4
 NAtoms=    4 NActive=    4 NUniq=    4 SFac= 1.00D+00 NAtFMM=   60 NAOKFM=F Big=F
 Integral buffers will be    131072 words long.
 Raffenetti 1 integral format.
 Two-electron integral symmetry is turned on.
 Leave Link  301 at Mon Dec 13 11:10:05 2021, MaxMem= 16106127360 cpu:               1.5 elap:               0.1
 (Enter /sw/contrib/gaussian/g16/B01/g16/l302.exe)
 NPDir=0 NMtPBC=     1 NCelOv=     1 NCel=       1 NClECP=     1 NCelD=      1
         NCelK=      1 NCelE2=     1 NClLst=     1 CellRange=     0.0.
 One-electron integrals computed using PRISM.
 One-electron integral symmetry used in STVInt
 NBasis=   169 RedAO= T EigKep=  2.37D-04  NBF=   112    57
 NBsUse=   169 1.00D-06 EigRej= -1.00D+00 NBFU=   112    57
 Leave Link  302 at Mon Dec 13 11:10:05 2021, MaxMem= 16106127360 cpu:               3.6 elap:               0.2
 (Enter /sw/contrib/gaussian/g16/B01/g16/l303.exe)
 DipDrv:  MaxL=1.
 Leave Link  303 at Mon Dec 13 11:10:05 2021, MaxMem= 16106127360 cpu:               0.7 elap:               0.0
 (Enter /sw/contrib/gaussian/g16/B01/g16/l401.exe)
 Initial guess from the checkpoint file:  "/gscratch/ilahie/mccoygrp/coire_hocl/clhocl_fully_relaxed.chk"
 B after Tr=     0.000000    0.000000    0.000000
         Rot=    0.998432    0.000000   -0.000000   -0.055979 Ang=  -6.42 deg.
 Guess basis will be translated and rotated to current coordinates.
 JPrj=2 DoOrth=T DoCkMO=T.
 Initial guess orbital symmetries:
       Occupied  (A') (A') (A') (A') (A') (A') (A') (A") (A') (A")
                 (A') (A') (A') (A') (A') (A") (A') (A') (A") (A')
                 (A") (A')
       Virtual   (A') (A') (A') (A") (A') (A') (A") (A') (A') (A")
                 (A') (A') (A') (A') (A") (A') (A') (A") (A') (A")
                 (A') (A") (A') (A') (A') (A") (A') (A') (A") (A')
                 (A') (A") (A') (A') (A") (A') (A") (A') (A') (A")
                 (A') (A") (A') (A') (A") (A') (A') (A') (A") (A")
                 (A') (A') (A') (A") (A") (A') (A') (A") (A') (A")
                 (A') (A") (A') (A') (A') (A') (A") (A") (A') (A')
                 (A") (A') (A') (A") (A') (A') (A') (A") (A') (A')
                 (A") (A") (A') (A') (A') (A") (A') (A") (A') (A")
                 (A') (A') (A") (A') (A") (A') (A") (A') (A') (A")
                 (A") (A') (A') (A") (A') (A') (A") (A') (A') (A")
                 (A") (A') (A') (A") (A') (A') (A") (A') (A') (A')
                 (A') (A") (A") (A') (A") (A') (A') (A') (A') (A")
                 (A') (A') (A') (A') (A") (A') (A") (A') (A") (A')
                 (A") (A') (A") (A') (A') (A') (A')
 The electronic state of the initial guess is 1-A'.
 Generating alternative initial guess.
 ExpMin= 2.53D-02 ExpMax= 4.56D+05 ExpMxC= 1.44D+03 IAcc=3 IRadAn=         5 AccDes= 0.00D+00
 Harris functional with IExCor=  205 and IRadAn=       5 diagonalized for initial guess.
 HarFok:  IExCor=  205 AccDes= 0.00D+00 IRadAn=         5 IDoV= 1 UseB2=F ITyADJ=14
 ICtDFT=  3500011 ScaDFX=  1.000000  1.000000  1.000000  1.000000
 FoFCou: FMM=F IPFlag=           0 FMFlag=      100000 FMFlg1=           0
         NFxFlg=           0 DoJE=T BraDBF=F KetDBF=T FulRan=T
         wScrn=  0.000000 ICntrl=       500 IOpCl=  0 I1Cent=   200000004 NGrid=           0
         NMat0=    1 NMatS0=      1 NMatT0=    0 NMatD0=    1 NMtDS0=    0 NMtDT0=    0
 Petite list used in FoFCou.
 Harris En= -993.822483282319    
 Leave Link  401 at Mon Dec 13 11:10:06 2021, MaxMem= 16106127360 cpu:              15.6 elap:               0.6
 (Enter /sw/contrib/gaussian/g16/B01/g16/l502.exe)
 Keep R1 ints in memory in symmetry-blocked form, NReq=155449223.
 FoFCou: FMM=F IPFlag=           0 FMFlag=           0 FMFlg1=           0
         NFxFlg=           0 DoJE=F BraDBF=F KetDBF=F FulRan=T
         wScrn=  0.000000 ICntrl=       600 IOpCl=  0 I1Cent=           0 NGrid=           0
         NMat0=    1 NMatS0=  14365 NMatT0=    0 NMatD0=    1 NMtDS0=    0 NMtDT0=    0
 Petite list used in FoFCou.
 Closed shell SCF:
 Using DIIS extrapolation, IDIIS=  1040.
 NGot= 16106127360 LenX= 16053777278 LenY= 16053737633
 Requested convergence on RMS density matrix=1.00D-08 within 128 cycles.
 Requested convergence on MAX density matrix=1.00D-06.
 Requested convergence on             energy=1.00D-06.
 No special actions if energy rises.

 Cycle   1  Pass 1  IDiag  1:
 E= -994.523334920239    
 DIIS: error= 2.22D-03 at cycle   1 NSaved=   1.
 NSaved= 1 IEnMin= 1 EnMin= -994.523334920239     IErMin= 1 ErrMin= 2.22D-03
 ErrMax= 2.22D-03  0.00D+00 EMaxC= 1.00D-01 BMatC= 7.67D-04 BMatP= 7.67D-04
 IDIUse=3 WtCom= 9.78D-01 WtEn= 2.22D-02
 Coeff-Com:  0.100D+01
 Coeff-En:   0.100D+01
 Coeff:      0.100D+01
 Gap=     0.360 Goal=   None    Shift=    0.000
 GapD=    0.360 DampG=1.000 DampE=1.000 DampFc=1.0000 IDamp=-1.
 RMSDP=2.89D-04 MaxDP=1.32D-02              OVMax= 1.28D-02

 Cycle   2  Pass 1  IDiag  1:
 E= -994.524302548757     Delta-E=       -0.000967628518 Rises=F Damp=F
 DIIS: error= 5.50D-04 at cycle   2 NSaved=   2.
 NSaved= 2 IEnMin= 2 EnMin= -994.524302548757     IErMin= 2 ErrMin= 5.50D-04
 ErrMax= 5.50D-04  0.00D+00 EMaxC= 1.00D-01 BMatC= 5.38D-05 BMatP= 7.67D-04
 IDIUse=3 WtCom= 9.94D-01 WtEn= 5.50D-03
 Coeff-Com: -0.895D-01 0.109D+01
 Coeff-En:   0.000D+00 0.100D+01
 Coeff:     -0.890D-01 0.109D+01
 Gap=     0.357 Goal=   None    Shift=    0.000
 RMSDP=5.81D-05 MaxDP=2.94D-03 DE=-9.68D-04 OVMax= 4.49D-03

 Cycle   3  Pass 1  IDiag  1:
 E= -994.524391434730     Delta-E=       -0.000088885972 Rises=F Damp=F
 DIIS: error= 2.80D-04 at cycle   3 NSaved=   3.
 NSaved= 3 IEnMin= 3 EnMin= -994.524391434730     IErMin= 3 ErrMin= 2.80D-04
 ErrMax= 2.80D-04  0.00D+00 EMaxC= 1.00D-01 BMatC= 1.40D-05 BMatP= 5.38D-05
 IDIUse=3 WtCom= 9.97D-01 WtEn= 2.80D-03
 Coeff-Com: -0.781D-01 0.315D+00 0.764D+00
 Coeff-En:   0.000D+00 0.000D+00 0.100D+01
 Coeff:     -0.779D-01 0.314D+00 0.764D+00
 Gap=     0.357 Goal=   None    Shift=    0.000
 RMSDP=1.75D-05 MaxDP=5.85D-04 DE=-8.89D-05 OVMax= 1.45D-03

 Cycle   4  Pass 1  IDiag  1:
 E= -994.524408149520     Delta-E=       -0.000016714790 Rises=F Damp=F
 DIIS: error= 9.99D-05 at cycle   4 NSaved=   4.
 NSaved= 4 IEnMin= 4 EnMin= -994.524408149520     IErMin= 4 ErrMin= 9.99D-05
 ErrMax= 9.99D-05  0.00D+00 EMaxC= 1.00D-01 BMatC= 1.84D-06 BMatP= 1.40D-05
 IDIUse=1 WtCom= 1.00D+00 WtEn= 0.00D+00
 Coeff-Com:  0.624D-02-0.133D+00 0.860D-01 0.104D+01
 Coeff:      0.624D-02-0.133D+00 0.860D-01 0.104D+01
 Gap=     0.357 Goal=   None    Shift=    0.000
 RMSDP=1.21D-05 MaxDP=3.16D-04 DE=-1.67D-05 OVMax= 9.70D-04

 Cycle   5  Pass 1  IDiag  1:
 E= -994.524412064394     Delta-E=       -0.000003914874 Rises=F Damp=F
 DIIS: error= 2.93D-05 at cycle   5 NSaved=   5.
 NSaved= 5 IEnMin= 5 EnMin= -994.524412064394     IErMin= 5 ErrMin= 2.93D-05
 ErrMax= 2.93D-05  0.00D+00 EMaxC= 1.00D-01 BMatC= 1.63D-07 BMatP= 1.84D-06
 IDIUse=1 WtCom= 1.00D+00 WtEn= 0.00D+00
 Coeff-Com:  0.895D-02-0.370D-01-0.957D-01-0.494D-01 0.117D+01
 Coeff:      0.895D-02-0.370D-01-0.957D-01-0.494D-01 0.117D+01
 Gap=     0.358 Goal=   None    Shift=    0.000
 RMSDP=5.16D-06 MaxDP=1.62D-04 DE=-3.91D-06 OVMax= 4.28D-04

 Cycle   6  Pass 1  IDiag  1:
 E= -994.524412617755     Delta-E=       -0.000000553361 Rises=F Damp=F
 DIIS: error= 6.87D-06 at cycle   6 NSaved=   6.
 NSaved= 6 IEnMin= 6 EnMin= -994.524412617755     IErMin= 6 ErrMin= 6.87D-06
 ErrMax= 6.87D-06  0.00D+00 EMaxC= 1.00D-01 BMatC= 1.26D-08 BMatP= 1.63D-07
 IDIUse=1 WtCom= 1.00D+00 WtEn= 0.00D+00
 Coeff-Com: -0.141D-02 0.164D-01 0.442D-02-0.101D+00-0.738D-01 0.116D+01
 Coeff:     -0.141D-02 0.164D-01 0.442D-02-0.101D+00-0.738D-01 0.116D+01
 Gap=     0.358 Goal=   None    Shift=    0.000
 RMSDP=1.34D-06 MaxDP=3.08D-05 DE=-5.53D-07 OVMax= 1.08D-04

 Cycle   7  Pass 1  IDiag  1:
 E= -994.524412654917     Delta-E=       -0.000000037162 Rises=F Damp=F
 DIIS: error= 2.02D-06 at cycle   7 NSaved=   7.
 NSaved= 7 IEnMin= 7 EnMin= -994.524412654917     IErMin= 7 ErrMin= 2.02D-06
 ErrMax= 2.02D-06  0.00D+00 EMaxC= 1.00D-01 BMatC= 7.23D-10 BMatP= 1.26D-08
 IDIUse=1 WtCom= 1.00D+00 WtEn= 0.00D+00
 Coeff-Com: -0.505D-03 0.220D-02 0.542D-02-0.670D-03-0.657D-01-0.257D-01
 Coeff-Com:  0.108D+01
 Coeff:     -0.505D-03 0.220D-02 0.542D-02-0.670D-03-0.657D-01-0.257D-01
 Coeff:      0.108D+01
 Gap=     0.358 Goal=   None    Shift=    0.000
 RMSDP=3.82D-07 MaxDP=1.18D-05 DE=-3.72D-08 OVMax= 2.50D-05

 Cycle   8  Pass 1  IDiag  1:
 E= -994.524412657222     Delta-E=       -0.000000002305 Rises=F Damp=F
 DIIS: error= 7.71D-07 at cycle   8 NSaved=   8.
 NSaved= 8 IEnMin= 8 EnMin= -994.524412657222     IErMin= 8 ErrMin= 7.71D-07
 ErrMax= 7.71D-07  0.00D+00 EMaxC= 1.00D-01 BMatC= 8.25D-11 BMatP= 7.23D-10
 IDIUse=1 WtCom= 1.00D+00 WtEn= 0.00D+00
 Coeff-Com:  0.213D-03-0.192D-02-0.889D-03 0.831D-02 0.200D-01-0.111D+00
 Coeff-Com: -0.135D+00 0.122D+01
 Coeff:      0.213D-03-0.192D-02-0.889D-03 0.831D-02 0.200D-01-0.111D+00
 Coeff:     -0.135D+00 0.122D+01
 Gap=     0.358 Goal=   None    Shift=    0.000
 RMSDP=1.24D-07 MaxDP=5.48D-06 DE=-2.30D-09 OVMax= 7.45D-06

 Cycle   9  Pass 1  IDiag  1:
 E= -994.524412657478     Delta-E=       -0.000000000256 Rises=F Damp=F
 DIIS: error= 2.52D-07 at cycle   9 NSaved=   9.
 NSaved= 9 IEnMin= 9 EnMin= -994.524412657478     IErMin= 9 ErrMin= 2.52D-07
 ErrMax= 2.52D-07  0.00D+00 EMaxC= 1.00D-01 BMatC= 7.39D-12 BMatP= 8.25D-11
 IDIUse=1 WtCom= 1.00D+00 WtEn= 0.00D+00
 Coeff-Com: -0.107D-04 0.286D-03-0.750D-04-0.253D-02 0.203D-02 0.293D-01
 Coeff-Com: -0.675D-01-0.260D+00 0.130D+01
 Coeff:     -0.107D-04 0.286D-03-0.750D-04-0.253D-02 0.203D-02 0.293D-01
 Coeff:     -0.675D-01-0.260D+00 0.130D+01
 Gap=     0.358 Goal=   None    Shift=    0.000
 RMSDP=4.06D-08 MaxDP=1.36D-06 DE=-2.56D-10 OVMax= 2.75D-06

 Cycle  10  Pass 1  IDiag  1:
 E= -994.524412657502     Delta-E=       -0.000000000024 Rises=F Damp=F
 DIIS: error= 7.92D-08 at cycle  10 NSaved=  10.
 NSaved=10 IEnMin=10 EnMin= -994.524412657502     IErMin=10 ErrMin= 7.92D-08
 ErrMax= 7.92D-08  0.00D+00 EMaxC= 1.00D-01 BMatC= 6.33D-13 BMatP= 7.39D-12
 IDIUse=1 WtCom= 1.00D+00 WtEn= 0.00D+00
 Coeff-Com: -0.229D-04 0.198D-03 0.952D-04-0.866D-03-0.209D-02 0.106D-01
 Coeff-Com:  0.132D-01-0.959D-01-0.108D+00 0.118D+01
 Coeff:     -0.229D-04 0.198D-03 0.952D-04-0.866D-03-0.209D-02 0.106D-01
 Coeff:      0.132D-01-0.959D-01-0.108D+00 0.118D+01
 Gap=     0.358 Goal=   None    Shift=    0.000
 RMSDP=1.45D-08 MaxDP=4.73D-07 DE=-2.39D-11 OVMax= 1.16D-06

 Cycle  11  Pass 1  IDiag  1:
 E= -994.524412657506     Delta-E=       -0.000000000004 Rises=F Damp=F
 DIIS: error= 2.77D-08 at cycle  11 NSaved=  11.
 NSaved=11 IEnMin=11 EnMin= -994.524412657506     IErMin=11 ErrMin= 2.77D-08
 ErrMax= 2.77D-08  0.00D+00 EMaxC= 1.00D-01 BMatC= 6.74D-14 BMatP= 6.33D-13
 IDIUse=1 WtCom= 1.00D+00 WtEn= 0.00D+00
 Coeff-Com:  0.182D-05-0.308D-04-0.385D-05 0.220D-03 0.493D-04-0.277D-02
 Coeff-Com:  0.183D-02 0.347D-01-0.101D+00-0.106D+00 0.117D+01
 Coeff:      0.182D-05-0.308D-04-0.385D-05 0.220D-03 0.493D-04-0.277D-02
 Coeff:      0.183D-02 0.347D-01-0.101D+00-0.106D+00 0.117D+01
 Gap=     0.358 Goal=   None    Shift=    0.000
 RMSDP=4.37D-09 MaxDP=1.05D-07 DE=-4.09D-12 OVMax= 4.62D-07

 SCF Done:  E(RHF) =  -994.524412658     A.U. after   11 cycles
            NFock= 11  Conv=0.44D-08     -V/T= 2.0002
 KE= 9.943724051517D+02 PE=-2.621613363344D+03 EE= 5.107836433325D+02
 Leave Link  502 at Mon Dec 13 11:10:07 2021, MaxMem= 16106127360 cpu:              30.0 elap:               1.6
 (Enter /sw/contrib/gaussian/g16/B01/g16/l801.exe)
 ExpMin= 2.53D-02 ExpMax= 4.56D+05 ExpMxC= 1.44D+03 IAcc=3 IRadAn=         5 AccDes= 0.00D+00
 HarFok:  IExCor=  205 AccDes= 0.00D+00 IRadAn=         5 IDoV=-2 UseB2=F ITyADJ=14
 ICtDFT= 12500011 ScaDFX=  1.000000  1.000000  1.000000  1.000000
 Largest valence mixing into a core orbital is  4.47D-04
 Largest core mixing into a valence orbital is  1.73D-04
 Range of M.O.s used for correlation:    12   169
 NBasis=   169 NAE=    22 NBE=    22 NFC=    11 NFV=     0
 NROrb=    158 NOA=    11 NOB=    11 NVA=   147 NVB=   147

 **** Warning!!: The largest alpha MO coefficient is  0.20725390D+02

 Leave Link  801 at Mon Dec 13 11:10:07 2021, MaxMem= 16106127360 cpu:               2.3 elap:               0.1
 (Enter /sw/contrib/gaussian/g16/B01/g16/l906.exe)
 Frozen-core derivative calculation, NFC=  11 NFV=   0.
 FulOut=F Deriv=T AODrv=T NAtomX=     4
   MMem=         143  MDisk=          11 MDiskD=          11
  W3Min=      736164 MinDsk=     1250177 NBas6D=         198
 NBas2D=       20187    NTT=       19701    LW2=     3500000
    MDV= 16105706311 MDiskM=      406659 NBas2p=       20117
 Fully direct method using O(ONN) memory.
 IMap=   1   2   3   4   5   6   7   8   9  10  11  12  13  14  15  16  17  18  19  20
 IMap=  21  22
 JobTyp=1 Pass  1:  I=  12 to  22 NPSUse= 28 ParTrn=T ParDer=T DoDerP=T.
 Spin components of T(2) and E(2):
     alpha-alpha T2 =       0.2934894308D-01 E2=     -0.8433937766D-01
     alpha-beta  T2 =       0.1595698445D+00 E2=     -0.4990137539D+00
     beta-beta   T2 =       0.2934894308D-01 E2=     -0.8433937766D-01
 The integrals were generated   1 times.
 ANorm=    0.1103751662D+01
 E2 =    -0.6676925092D+00 EUMP2 =    -0.99519210516670D+03
 Leave Link  906 at Mon Dec 13 11:10:18 2021, MaxMem= 16106127360 cpu:             286.9 elap:              10.3
 (Enter /sw/contrib/gaussian/g16/B01/g16/l1002.exe)
 Minotr:  Closed shell wavefunction.
          Computing MP2/KS-MP2 derivatives.
          Using Z-Vector for PSCF gradient.
          Skipping F1 and S1 gradient terms here.
          IDoAtm=1111
          Frozen-core window.
          Direct CPHF calculation.
          Differentiating once with respect to electric field.
                with respect to dipole field.
          Differentiating once with respect to nuclear coordinates.
          Using symmetry in CPHF.
          Requested convergence is 1.0D-10 RMS, and 1.0D-09 maximum.
          NewPWx=F KeepS1=T KeepF1=T KeepIn=T MapXYZ=F SortEE=F KeepMc=T.
 Keep R1 ints in memory in symmetry-blocked form, NReq=155450263.
 FoFCou: FMM=F IPFlag=           0 FMFlag=           0 FMFlg1=           0
         NFxFlg=           0 DoJE=F BraDBF=F KetDBF=F FulRan=T
         wScrn=  0.000000 ICntrl=       600 IOpCl=  0 I1Cent=           0 NGrid=           0
         NMat0=    1 NMatS0=  14365 NMatT0=    0 NMatD0=    1 NMtDS0=    0 NMtDT0=    0
 Petite list used in FoFCou.
          MDV=   16106127360 using IRadAn=       5.
          Solving linear equations separately, MaxMat=       0.
          There are     1 degrees of freedom in the 1st order CPHF.  IDoFFX=0 NUNeed=     1.
 LinEq1:  Iter=  0 NonCon=     1 RMS=3.09D-03 Max=4.64D-02 NDo=     1
 AX will form     1 AO Fock derivatives at one time.
 LinEq1:  Iter=  1 NonCon=     1 RMS=3.88D-04 Max=5.14D-03 NDo=     1
 LinEq1:  Iter=  2 NonCon=     1 RMS=1.64D-04 Max=3.47D-03 NDo=     1
 LinEq1:  Iter=  3 NonCon=     1 RMS=6.33D-05 Max=1.06D-03 NDo=     1
 LinEq1:  Iter=  4 NonCon=     1 RMS=2.65D-05 Max=6.76D-04 NDo=     1
 LinEq1:  Iter=  5 NonCon=     1 RMS=5.83D-06 Max=7.41D-05 NDo=     1
 LinEq1:  Iter=  6 NonCon=     1 RMS=1.52D-06 Max=1.74D-05 NDo=     1
 LinEq1:  Iter=  7 NonCon=     1 RMS=3.19D-07 Max=3.86D-06 NDo=     1
 LinEq1:  Iter=  8 NonCon=     1 RMS=5.39D-08 Max=6.97D-07 NDo=     1
 LinEq1:  Iter=  9 NonCon=     1 RMS=1.23D-08 Max=1.46D-07 NDo=     1
 LinEq1:  Iter= 10 NonCon=     1 RMS=3.37D-09 Max=5.83D-08 NDo=     1
 LinEq1:  Iter= 11 NonCon=     1 RMS=8.88D-10 Max=1.84D-08 NDo=     1
 LinEq1:  Iter= 12 NonCon=     1 RMS=2.16D-10 Max=4.45D-09 NDo=     1
 LinEq1:  Iter= 13 NonCon=     0 RMS=4.97D-11 Max=6.90D-10 NDo=     1
 Linear equations converged to 1.000D-10 1.000D-09 after    13 iterations.
 End of Minotr F.D. properties file   721 does not exist.
 End of Minotr F.D. properties file   722 does not exist.
 End of Minotr F.D. properties file   788 does not exist.
 Leave Link 1002 at Mon Dec 13 11:10:20 2021, MaxMem= 16106127360 cpu:              33.5 elap:               2.0
 (Enter /sw/contrib/gaussian/g16/B01/g16/l701.exe)
 ... and contract with generalized density number  2.
 Compute integral first derivatives.
 Leave Link  701 at Mon Dec 13 11:10:20 2021, MaxMem= 16106127360 cpu:               6.3 elap:               0.3
 (Enter /sw/contrib/gaussian/g16/B01/g16/l702.exe)
 L702 exits ... SP integral derivatives will be done elsewhere.
 Leave Link  702 at Mon Dec 13 11:10:20 2021, MaxMem= 16106127360 cpu:               0.5 elap:               0.0
 (Enter /sw/contrib/gaussian/g16/B01/g16/l703.exe)
 Integral derivatives from FoFJK, PRISM(SPDF).
 Compute integral first derivatives, UseDBF=F ICtDFT=           0.
 Calling FoFJK, ICntrl=  10002127 FMM=F ISym2X=1 I1Cent= 0 IOpClX= 0 NMat=1 NMatS=1 NMatT=0.
 FoFJK:  IHMeth= 1 ICntrl=10002127 DoSepK=F KAlg= 0 I1Cent=           0 FoldK=F
 IRaf=         0 NMat=       1 IRICut=       1 DoRegI=T DoRafI=F ISym2E= 1 IDoP0=0 IntGTp=1.
 FoFCou: FMM=F IPFlag=           0 FMFlag=      100000 FMFlg1=         800
         NFxFlg=           0 DoJE=F BraDBF=F KetDBF=F FulRan=T
         wScrn=  0.000000 ICntrl=  10002127 IOpCl=  0 I1Cent=           0 NGrid=           0
         NMat0=    1 NMatS0=      1 NMatT0=    0 NMatD0=    1 NMtDS0=    0 NMtDT0=    0
 Petite list used in FoFCou.
 Leave Link  703 at Mon Dec 13 11:10:21 2021, MaxMem= 16106127360 cpu:              39.8 elap:               1.4
 (Enter /sw/contrib/gaussian/g16/B01/g16/l716.exe)
 Dipole        =-1.86871377D+00-9.27699278D-01-2.61793512D-32
 ***** Axes restored to original set *****
 -------------------------------------------------------------------
 Center     Atomic                   Forces (Hartrees/Bohr)
 Number     Number              X              Y              Z
 -------------------------------------------------------------------
      1        8           0.001440513    0.004229678    0.000000000
      2       17          -0.000356569    0.000534741    0.000000000
      3       17          -0.000429663    0.000279100   -0.000000000
      4        1          -0.000654281   -0.005043519   -0.000000000
 -------------------------------------------------------------------
 Cartesian Forces:  Max     0.005043519 RMS     0.001968629
 -----------------------------------------------------------------------------------------------
                       Internal Coordinate Forces (Hartree/Bohr or radian)
  Cent   Atom   N1       Length/X         N2         Alpha/Y        N3         Beta/Z          J
 -----------------------------------------------------------------------------------------------
      1  O 
         X        1   0.000000(     1)
      2  Cl       1  -0.000357(     2)      2  -0.000000(     5)
      3  Cl       1  -0.000170(     3)      2  -0.000000(     6)      3   0.002660(     8)     0
      4  H        1   0.005061(     4)      2   0.000000(     7)      3  -0.000958(     9)     0
 -----------------------------------------------------------------------------------------------
 Internal  Forces:  Max     0.005061354 RMS     0.001937008
 Leave Link  716 at Mon Dec 13 11:10:21 2021, MaxMem= 16106127360 cpu:               0.8 elap:               0.1
 (Enter /sw/contrib/gaussian/g16/B01/g16/l103.exe)

 GradGradGradGradGradGradGradGradGradGradGradGradGradGradGradGradGradGrad
 Berny optimization.
 Search for a local minimum.
 Step number   2 out of a maximum of   20
 All quantities printed in internal units (Hartrees-Bohrs-Radians)
 Update second derivatives using D2CorN and points    1    2
 DE= -1.32D-03 DEPred=-1.28D-03 R= 1.03D+00
 TightC=F SS=  1.41D+00  RLast= 3.00D-01 DXNew= 5.0454D-01 9.0000D-01
 Trust test= 1.03D+00 RLast= 3.00D-01 DXMaxT set to 5.05D-01
 The second derivative matrix:
                          r1        r2        r3        a1        a2
           r1           0.37758
           r2          -0.00058   0.02451
           r3           0.00002   0.00840   0.44696
           a1           0.00000  -0.00000   0.00000  10.13905
           a2          -0.00000   0.00000   0.00000  -0.00000   0.16158
           d1           0.00002   0.00430  -0.00009  -0.00000   0.00000
           d2          -0.00002  -0.00139   0.00025  -0.00000  -0.00000
           OOP         -0.00000   0.00000   0.00000  -0.00000  -0.16158
                          d1        d2        OOP
           d1           0.40992
           d2          -0.15986   0.31992
           OOP          0.00000   0.00000   0.16158
 ITU=  1  0
     Eigenvalues ---    0.00000   0.02429   0.19886   0.32316   0.37758
     Eigenvalues ---    0.44713   0.53103  10.13905
 RFO step:  Lambda=-7.75397472D-05 EMin= 2.22044605D-16
 Quartic linear search produced a step of  0.02316.
 Variable       Old X    -DE/DX   Delta X   Delta X   Delta X     New X
                                 (Linear)    (Quad)   (Total)
    r1        3.18342  -0.00036  -0.00002  -0.00095  -0.00097   3.18245
    r2        5.50287  -0.00017  -0.00695  -0.00228  -0.00923   5.49364
    r3        1.92434   0.00506   0.00003   0.01160   0.01163   1.93596
    a1        1.57080  -0.00000   0.00000   0.00000   0.00000   1.57080
    a2        1.57080  -0.00000  -0.00000   0.00000   0.00000   1.57080
    d1        1.80924   0.00266   0.00006   0.00672   0.00678   1.81603
    d2        1.79785  -0.00096  -0.00020   0.00052   0.00032   1.79817
   OOP        1.57080   0.00000  -0.00000   0.00000   0.00000   1.57080
         Item               Value     Threshold  Converged?
 Maximum Force            0.005061     0.000450     NO 
 RMS     Force            0.002055     0.000300     NO 
 Maximum Displacement     0.011627     0.001800     NO 
 RMS     Displacement     0.005781     0.001200     NO 
 Predicted change in Energy=-3.914423D-05
 Lowest energy point so far.  Saving SCF results.
 GradGradGradGradGradGradGradGradGradGradGradGradGradGradGradGradGradGrad

 Leave Link  103 at Mon Dec 13 11:10:22 2021, MaxMem= 16106127360 cpu:               0.7 elap:               0.0
 (Enter /sw/contrib/gaussian/g16/B01/g16/l202.exe)
 ---------------------------------------------------------------------------------------------------
                            Z-MATRIX (ANGSTROMS AND DEGREES)
   CD    Cent   Atom    N1       Length/X        N2       Alpha/Y        N3        Beta/Z          J
 ---------------------------------------------------------------------------------------------------
      1      1  O 
      2         X        1  10.000000(     1)
      3      2  Cl       1   1.684079(     2)      2   90.000(     5)
      4      3  Cl       1   2.907111(     3)      2   90.000(     6)      3  104.051(     8)      0
      5      4  H        1   1.024468(     4)      2   90.000(     7)      3  103.028(     9)      0
 ---------------------------------------------------------------------------------------------------
                         Z-Matrix orientation:                         
 ---------------------------------------------------------------------
 Center     Atomic      Atomic             Coordinates (Angstroms)
 Number     Number       Type             X           Y           Z
 ---------------------------------------------------------------------
      1          8           0        0.000000    0.000000    0.000000
      2         -1           0        0.000000    0.000000   10.000000
      3         17           0        1.684079    0.000000    0.000000
      4         17           0       -0.705796   -2.820133   -0.000000
      5          1           0       -0.230938   -0.998100   -0.000000
 ---------------------------------------------------------------------
                    Distance matrix (angstroms):
                    1          2          3          4          5
     1  O    0.000000
     2  X   10.000000   0.000000
     3  Cl   1.684079  10.140815   0.000000
     4  Cl   2.907111  10.413995   3.696573   0.000000
     5  H    1.024468  10.052340   2.159512   1.882895   0.000000
 Stoichiometry    Cl2HO(1-)
 Framework group  CS[SG(Cl2HO)]
 Deg. of freedom     5
 Full point group                 CS      NOp   2
 RotChk:  IX=0 Diff= 1.79D-02
 Largest Abelian subgroup         CS      NOp   2
 Largest concise Abelian subgroup C1      NOp   1
                         Standard orientation:                         
 ---------------------------------------------------------------------
 Center     Atomic      Atomic             Coordinates (Angstroms)
 Number     Number       Type             X           Y           Z
 ---------------------------------------------------------------------
      1          8           0       -1.024465    0.625549   -0.000000
      2         17           0       -1.399941   -1.016139   -0.000000
      3         17           0        1.882042    0.684813    0.000000
      4          1           0       -0.000000    0.628142   -0.000000
 ---------------------------------------------------------------------
 Rotational constants (GHZ):          23.9263832           2.0443279           1.8834052
 Leave Link  202 at Mon Dec 13 11:10:22 2021, MaxMem= 16106127360 cpu:               2.9 elap:               0.2
 (Enter /sw/contrib/gaussian/g16/B01/g16/l301.exe)
 Standard basis: Aug-CC-pVTZ (5D, 7F)
 Ernie: Thresh=  0.10000D-02 Tol=  0.10000D-05 Strict=F.
 Ernie:  29 primitive shells out of 169 were deleted.
 There are   135 symmetry adapted cartesian basis functions of A'  symmetry.
 There are    63 symmetry adapted cartesian basis functions of A"  symmetry.
 There are   112 symmetry adapted basis functions of A'  symmetry.
 There are    57 symmetry adapted basis functions of A"  symmetry.
   169 basis functions,   327 primitive gaussians,   198 cartesian basis functions
    22 alpha electrons       22 beta electrons
       nuclear repulsion energy       121.9374589624 Hartrees.
 IExCor=    0 DFT=F Ex=HF Corr=None ExCW=0 ScaHFX=  1.000000
 ScaDFX=  1.000000  1.000000  1.000000  1.000000 ScalE2=  1.000000  1.000000
 IRadAn=      5 IRanWt=     -1 IRanGd=            0 ICorTp=0 IEmpDi=  4
 NAtoms=    4 NActive=    4 NUniq=    4 SFac= 1.00D+00 NAtFMM=   60 NAOKFM=F Big=F
 Integral buffers will be    131072 words long.
 Raffenetti 1 integral format.
 Two-electron integral symmetry is turned on.
 Leave Link  301 at Mon Dec 13 11:10:22 2021, MaxMem= 16106127360 cpu:               1.9 elap:               0.1
 (Enter /sw/contrib/gaussian/g16/B01/g16/l302.exe)
 NPDir=0 NMtPBC=     1 NCelOv=     1 NCel=       1 NClECP=     1 NCelD=      1
         NCelK=      1 NCelE2=     1 NClLst=     1 CellRange=     0.0.
 One-electron integrals computed using PRISM.
 One-electron integral symmetry used in STVInt
 NBasis=   169 RedAO= T EigKep=  2.39D-04  NBF=   112    57
 NBsUse=   169 1.00D-06 EigRej= -1.00D+00 NBFU=   112    57
 Leave Link  302 at Mon Dec 13 11:10:22 2021, MaxMem= 16106127360 cpu:               4.0 elap:               0.2
 (Enter /sw/contrib/gaussian/g16/B01/g16/l303.exe)
 DipDrv:  MaxL=1.
 Leave Link  303 at Mon Dec 13 11:10:22 2021, MaxMem= 16106127360 cpu:               0.8 elap:               0.1
 (Enter /sw/contrib/gaussian/g16/B01/g16/l401.exe)
 Initial guess from the checkpoint file:  "/gscratch/ilahie/mccoygrp/coire_hocl/clhocl_fully_relaxed.chk"
 B after Tr=     0.000000   -0.000000   -0.000000
         Rot=    0.999960   -0.000000   -0.000000   -0.008893 Ang=  -1.02 deg.
 Guess basis will be translated and rotated to current coordinates.
 JPrj=2 DoOrth=T DoCkMO=T.
 Initial guess orbital symmetries:
       Occupied  (A') (A') (A') (A') (A') (A') (A') (A") (A') (A")
                 (A') (A') (A') (A') (A') (A") (A') (A') (A") (A')
                 (A") (A')
       Virtual   (A') (A') (A') (A") (A') (A') (A") (A') (A') (A")
                 (A') (A') (A') (A') (A") (A') (A') (A") (A') (A")
                 (A') (A") (A') (A') (A') (A") (A') (A') (A") (A')
                 (A') (A") (A') (A') (A") (A') (A") (A') (A') (A')
                 (A") (A") (A') (A') (A") (A') (A') (A") (A') (A")
                 (A') (A') (A') (A") (A") (A') (A') (A") (A') (A")
                 (A') (A") (A') (A') (A') (A") (A') (A") (A') (A")
                 (A') (A') (A') (A") (A') (A') (A') (A") (A') (A')
                 (A") (A") (A') (A') (A') (A") (A') (A") (A') (A")
                 (A') (A') (A") (A') (A") (A') (A') (A") (A') (A")
                 (A") (A') (A') (A") (A') (A') (A") (A') (A") (A')
                 (A") (A') (A') (A") (A') (A') (A") (A') (A') (A')
                 (A') (A") (A") (A') (A") (A') (A') (A') (A') (A")
                 (A') (A') (A') (A') (A") (A') (A") (A') (A") (A')
                 (A") (A') (A") (A') (A') (A') (A')
 The electronic state of the initial guess is 1-A'.
 Leave Link  401 at Mon Dec 13 11:10:22 2021, MaxMem= 16106127360 cpu:               3.1 elap:               0.1
 (Enter /sw/contrib/gaussian/g16/B01/g16/l502.exe)
 Keep R1 ints in memory in symmetry-blocked form, NReq=155449223.
 FoFCou: FMM=F IPFlag=           0 FMFlag=           0 FMFlg1=           0
         NFxFlg=           0 DoJE=F BraDBF=F KetDBF=F FulRan=T
         wScrn=  0.000000 ICntrl=       600 IOpCl=  0 I1Cent=           0 NGrid=           0
         NMat0=    1 NMatS0=  14365 NMatT0=    0 NMatD0=    1 NMtDS0=    0 NMtDT0=    0
 Petite list used in FoFCou.
 Closed shell SCF:
 Using DIIS extrapolation, IDIIS=  1040.
 NGot= 16106127360 LenX= 16053777278 LenY= 16053737633
 Requested convergence on RMS density matrix=1.00D-08 within 128 cycles.
 Requested convergence on MAX density matrix=1.00D-06.
 Requested convergence on             energy=1.00D-06.
 No special actions if energy rises.

 Cycle   1  Pass 1  IDiag  1:
 E= -994.524052315999    
 DIIS: error= 4.66D-04 at cycle   1 NSaved=   1.
 NSaved= 1 IEnMin= 1 EnMin= -994.524052315999     IErMin= 1 ErrMin= 4.66D-04
 ErrMax= 4.66D-04  0.00D+00 EMaxC= 1.00D-01 BMatC= 3.38D-05 BMatP= 3.38D-05
 IDIUse=3 WtCom= 9.95D-01 WtEn= 4.66D-03
 Coeff-Com:  0.100D+01
 Coeff-En:   0.100D+01
 Coeff:      0.100D+01
 Gap=     0.358 Goal=   None    Shift=    0.000
 RMSDP=4.62D-05 MaxDP=1.33D-03              OVMax= 1.74D-03

 Cycle   2  Pass 1  IDiag  1:
 E= -994.524087659314     Delta-E=       -0.000035343315 Rises=F Damp=F
 DIIS: error= 1.08D-04 at cycle   2 NSaved=   2.
 NSaved= 2 IEnMin= 2 EnMin= -994.524087659314     IErMin= 2 ErrMin= 1.08D-04
 ErrMax= 1.08D-04  0.00D+00 EMaxC= 1.00D-01 BMatC= 2.29D-06 BMatP= 3.38D-05
 IDIUse=3 WtCom= 9.99D-01 WtEn= 1.08D-03
 Coeff-Com: -0.628D-01 0.106D+01
 Coeff-En:   0.000D+00 0.100D+01
 Coeff:     -0.627D-01 0.106D+01
 Gap=     0.358 Goal=   None    Shift=    0.000
 RMSDP=1.11D-05 MaxDP=4.20D-04 DE=-3.53D-05 OVMax= 7.45D-04

 Cycle   3  Pass 1  IDiag  1:
 E= -994.524091269938     Delta-E=       -0.000003610624 Rises=F Damp=F
 DIIS: error= 5.79D-05 at cycle   3 NSaved=   3.
 NSaved= 3 IEnMin= 3 EnMin= -994.524091269938     IErMin= 3 ErrMin= 5.79D-05
 ErrMax= 5.79D-05  0.00D+00 EMaxC= 1.00D-01 BMatC= 6.82D-07 BMatP= 2.29D-06
 IDIUse=1 WtCom= 1.00D+00 WtEn= 0.00D+00
 Coeff-Com: -0.790D-01 0.318D+00 0.761D+00
 Coeff:     -0.790D-01 0.318D+00 0.761D+00
 Gap=     0.358 Goal=   None    Shift=    0.000
 RMSDP=3.95D-06 MaxDP=1.31D-04 DE=-3.61D-06 OVMax= 3.45D-04

 Cycle   4  Pass 1  IDiag  1:
 E= -994.524092097733     Delta-E=       -0.000000827795 Rises=F Damp=F
 DIIS: error= 2.37D-05 at cycle   4 NSaved=   4.
 NSaved= 4 IEnMin= 4 EnMin= -994.524092097733     IErMin= 4 ErrMin= 2.37D-05
 ErrMax= 2.37D-05  0.00D+00 EMaxC= 1.00D-01 BMatC= 8.08D-08 BMatP= 6.82D-07
 IDIUse=1 WtCom= 1.00D+00 WtEn= 0.00D+00
 Coeff-Com: -0.115D-03-0.122D+00 0.827D-01 0.104D+01
 Coeff:     -0.115D-03-0.122D+00 0.827D-01 0.104D+01
 Gap=     0.358 Goal=   None    Shift=    0.000
 RMSDP=2.39D-06 MaxDP=5.85D-05 DE=-8.28D-07 OVMax= 2.13D-04

 Cycle   5  Pass 1  IDiag  1:
 E= -994.524092298081     Delta-E=       -0.000000200348 Rises=F Damp=F
 DIIS: error= 6.74D-06 at cycle   5 NSaved=   5.
[...]
 Keep R1 ints in memory in canonical form, NReq=117123447.
 FoFCou: FMM=F IPFlag=           0 FMFlag=           0 FMFlg1=           0
         NFxFlg=           0 DoJE=F BraDBF=F KetDBF=F FulRan=T
         wScrn=  0.000000 ICntrl=       600 IOpCl=  0 I1Cent=           0 NGrid=           0
         NMat0=    1 NMatS0=  14365 NMatT0=    0 NMatD0=    1 NMtDS0=    0 NMtDT0=    0
 Symmetry not used in FoFCou.
 Two-electron integral symmetry not used.
          MDV=   16106127360 using IRadAn=       5.
          Solving linear equations separately, MaxMat=       0.
          There are     1 degrees of freedom in the 1st order CPHF.  IDoFFX=0 NUNeed=     1.
 LinEq1:  Iter=  0 NonCon=     1 RMS=3.11D-03 Max=4.36D-02 NDo=     1
 AX will form     1 AO Fock derivatives at one time.
 LinEq1:  Iter=  1 NonCon=     1 RMS=3.90D-04 Max=5.25D-03 NDo=     1
 LinEq1:  Iter=  2 NonCon=     1 RMS=1.64D-04 Max=3.50D-03 NDo=     1
 LinEq1:  Iter=  3 NonCon=     1 RMS=6.38D-05 Max=9.85D-04 NDo=     1
 LinEq1:  Iter=  4 NonCon=     1 RMS=2.68D-05 Max=6.79D-04 NDo=     1
 LinEq1:  Iter=  5 NonCon=     1 RMS=5.87D-06 Max=7.13D-05 NDo=     1
 LinEq1:  Iter=  6 NonCon=     1 RMS=1.53D-06 Max=1.81D-05 NDo=     1
 LinEq1:  Iter=  7 NonCon=     1 RMS=3.22D-07 Max=3.96D-06 NDo=     1
 LinEq1:  Iter=  8 NonCon=     1 RMS=5.51D-08 Max=7.29D-07 NDo=     1
 LinEq1:  Iter=  9 NonCon=     1 RMS=1.34D-08 Max=1.66D-07 NDo=     1
 LinEq1:  Iter= 10 NonCon=     1 RMS=3.47D-09 Max=5.09D-08 NDo=     1
 LinEq1:  Iter= 11 NonCon=     1 RMS=8.91D-10 Max=1.43D-08 NDo=     1
 LinEq1:  Iter= 12 NonCon=     1 RMS=2.14D-10 Max=4.43D-09 NDo=     1
 LinEq1:  Iter= 13 NonCon=     0 RMS=4.83D-11 Max=8.80D-10 NDo=     1
 Linear equations converged to 1.000D-10 1.000D-09 after    13 iterations.
 End of Minotr F.D. properties file   721 does not exist.
 End of Minotr F.D. properties file   722 does not exist.
 End of Minotr F.D. properties file   788 does not exist.
 Leave Link 1002 at Mon Dec 13 11:16:02 2021, MaxMem= 16106127360 cpu:              26.1 elap:               3.3
 (Enter /sw/contrib/gaussian/g16/B01/g16/l701.exe)
 ... and contract with generalized density number  2.
 Compute integral first derivatives.
 Leave Link  701 at Mon Dec 13 11:16:03 2021, MaxMem= 16106127360 cpu:               6.7 elap:               0.3
 (Enter /sw/contrib/gaussian/g16/B01/g16/l702.exe)
 L702 exits ... SP integral derivatives will be done elsewhere.
 Leave Link  702 at Mon Dec 13 11:16:03 2021, MaxMem= 16106127360 cpu:               0.5 elap:               0.0
 (Enter /sw/contrib/gaussian/g16/B01/g16/l703.exe)
 Integral derivatives from FoFJK, PRISM(SPDF).
 Compute integral first derivatives, UseDBF=F ICtDFT=           0.
 Calling FoFJK, ICntrl=  10002127 FMM=F ISym2X=0 I1Cent= 0 IOpClX= 0 NMat=1 NMatS=1 NMatT=0.
 FoFJK:  IHMeth= 1 ICntrl=10002127 DoSepK=F KAlg= 0 I1Cent=           0 FoldK=F
 IRaf=         0 NMat=       1 IRICut=       1 DoRegI=T DoRafI=F ISym2E= 0 IDoP0=0 IntGTp=1.
 FoFCou: FMM=F IPFlag=           0 FMFlag=      100000 FMFlg1=         800
         NFxFlg=           0 DoJE=F BraDBF=F KetDBF=F FulRan=T
         wScrn=  0.000000 ICntrl=  10002127 IOpCl=  0 I1Cent=           0 NGrid=           0
         NMat0=    1 NMatS0=      1 NMatT0=    0 NMatD0=    1 NMtDS0=    0 NMtDT0=    0
 Symmetry not used in FoFCou.
 Leave Link  703 at Mon Dec 13 11:16:04 2021, MaxMem= 16106127360 cpu:              40.5 elap:               1.5
 (Enter /sw/contrib/gaussian/g16/B01/g16/l716.exe)
 Dipole        =-2.07230974D+00-1.27562842D-01-6.70689316D-06
 ***** Axes restored to original set *****
 -------------------------------------------------------------------
 Center     Atomic                   Forces (Hartrees/Bohr)
 Number     Number              X              Y              Z
 -------------------------------------------------------------------
      1        8           0.000003536    0.000003217    0.000001424
      2       17          -0.000005691   -0.000001886   -0.000000443
      3       17           0.000000347   -0.000000003    0.000000359
      4        1           0.000001808   -0.000001328   -0.000001340
 -------------------------------------------------------------------
 Cartesian Forces:  Max     0.000005691 RMS     0.000002382
 -----------------------------------------------------------------------------------------------
                       Internal Coordinate Forces (Hartree/Bohr or radian)
  Cent   Atom   N1       Length/X         N2         Alpha/Y        N3         Beta/Z          J
 -----------------------------------------------------------------------------------------------
      1  O 
         X        1   0.000000(     1)
      2  Cl       1  -0.000006(     2)      2   0.000001(     5)
      3  Cl       1  -0.000000(     3)      2  -0.000002(     6)      3  -0.000002(     8)     0
      4  H        1   0.000001(     4)      2   0.000002(     7)      3  -0.000004(     9)     0
 -----------------------------------------------------------------------------------------------
 Internal  Forces:  Max     0.000005691 RMS     0.000002625
 Leave Link  716 at Mon Dec 13 11:16:04 2021, MaxMem= 16106127360 cpu:               1.4 elap:               0.1
 (Enter /sw/contrib/gaussian/g16/B01/g16/l103.exe)

 GradGradGradGradGradGradGradGradGradGradGradGradGradGradGradGradGradGrad
 Berny optimization.
 Search for a local minimum.
 Step number  20 out of a maximum of   20
 All quantities printed in internal units (Hartrees-Bohrs-Radians)
 Update second derivatives using D2CorN and points   13   15   20   18
 DE=  1.24D-08 DEPred=-4.05D-08 R=-3.06D-01
 Trust test=-3.06D-01 RLast= 9.13D-03 DXMaxT set to 5.00D-02
 The second derivative matrix:
                          r1        r2        r3        a1        a2
           r1           0.37736
           r2           0.00061   0.03623
           r3           0.00060   0.02784   0.32612
           a1           0.00012  -0.00131  -0.00017  10.13905
           a2          -0.00072  -0.00004  -0.00069   0.00238   0.16322
           d1           0.01378   0.00390  -0.01374  -0.00280   0.00057
           d2          -0.00140   0.00204   0.03417  -0.00103  -0.00558
           OOP         -0.00092  -0.00031  -0.00008   0.00249  -0.16130
                          d1        d2        OOP
           d1           0.10506
           d2          -0.13118   0.35896
           OOP         -0.00033  -0.00625   0.16006
 ITU= -1  0 -1  0  0  0 -1  0  0
     Eigenvalues ---   -0.00001   0.03245   0.05029   0.31507   0.32297
     Eigenvalues ---    0.37725   0.42897  10.13905
 Eigenvalue     1 is  -8.51D-06 should be greater than     0.000000 Eigenvector:
                          OOP       a2        d1        d2        r1
   1                    0.70916   0.70202   0.05023   0.04167   0.00140
                          r3        r2        a1
   1                   -0.00055  -0.00040  -0.00032
 RFO step:  Lambda=-8.51201130D-06 EMin=-8.50903107D-06
 I=     1 Eig=   -8.51D-06 Dot1= -1.75D-08
 I=     1 Stepn= -1.25D-01 RXN=   1.25D-01 EDone=F
 Mixed    1 eigenvectors in step.  Raw Step.Grad=  1.75D-08.
 RFO eigenvector is Hessian eigenvector with negative curvature.
 Taking step of  1.25D-01 in eigenvector direction(s).  Step.Grad= -6.39D-07.
 Quartic linear search produced a step of -0.98618.
 Maximum step size (   0.050) exceeded in Quadratic search.
    -- Step size scaled by   0.400
 Variable       Old X    -DE/DX   Delta X   Delta X   Delta X     New X
                                 (Linear)    (Quad)   (Total)
    r1        3.18145  -0.00001   0.00002  -0.00007  -0.00005   3.18140
    r2        5.48479  -0.00000   0.00000   0.00002   0.00002   5.48481
    r3        1.94332   0.00000  -0.00001   0.00003   0.00002   1.94334
    a1        1.57073   0.00000   0.00000   0.00002   0.00002   1.57075
    a2        1.80783  -0.00000  -0.00630  -0.03510  -0.04140   1.76643
    d1        1.85901  -0.00000  -0.00038  -0.00251  -0.00289   1.85612
    d2        1.81611  -0.00000  -0.00035  -0.00208  -0.00244   1.81368
   OOP        1.81050   0.00000  -0.00641  -0.03546  -0.04187   1.76863
         Item               Value     Threshold  Converged?
 Maximum Force            0.000006     0.000450     YES
 RMS     Force            0.000003     0.000300     YES
 Maximum Displacement     0.041867     0.001800     NO 
 RMS     Displacement     0.020859     0.001200     NO 
 Predicted change in Energy=-1.390185D-08
 Optimization stopped.
    -- Number of steps exceeded,  NStep=  20
    -- Flag reset to prevent archiving.
                       ----------------------------
                       ! Non-Optimized Parameters !
                       ! (Angstroms and Degrees)  !
 ----------------------                            ----------------------
 !      Name          Value   Derivative information (Atomic Units)     !
 ------------------------------------------------------------------------
 !       r1          1.6835   -DE/DX =    0.0                           !
 !       r2          2.9024   -DE/DX =    0.0                           !
 !       r3          1.0284   -DE/DX =    0.0                           !
 !       a1         89.9973   -DE/DX =    0.0                           !
 !       a2        101.2092   -DE/DX =    0.0                           !
 !       d1        106.3478   -DE/DX =    0.0                           !
 !       d2        103.916    -DE/DX =    0.0                           !
 !       OOP       101.3352   -DE/DX =    0.0                           !
 ------------------------------------------------------------------------
 Largest change from initial coordinates is atom    3       0.291 Angstoms.
 GradGradGradGradGradGradGradGradGradGradGradGradGradGradGradGradGradGrad

 Leave Link  103 at Mon Dec 13 11:16:04 2021, MaxMem= 16106127360 cpu:               2.4 elap:               0.1
 (Enter /sw/contrib/gaussian/g16/B01/g16/l202.exe)
 ---------------------------------------------------------------------------------------------------
                            Z-MATRIX (ANGSTROMS AND DEGREES)
   CD    Cent   Atom    N1       Length/X        N2       Alpha/Y        N3        Beta/Z          J
 ---------------------------------------------------------------------------------------------------
      1      1  O 
      2         X        1  10.000000(     1)
      3      2  Cl       1   1.683551(     2)      2   89.996(     5)
      4      3  Cl       1   2.902426(     3)      2  103.581(     6)      3  106.514(     8)      0
      5      4  H        1   1.028359(     4)      2  103.734(     7)      3  104.056(     9)      0
 ---------------------------------------------------------------------------------------------------
                         Z-Matrix orientation:                         
 ---------------------------------------------------------------------
 Center     Atomic      Atomic             Coordinates (Angstroms)
 Number     Number       Type             X           Y           Z
 ---------------------------------------------------------------------
      1          8           0        0.000000    0.000000    0.000000
      2         -1           0        0.000000    0.000000   10.000000
      3         17           0        1.683551    0.000000    0.000112
      4         17           0       -0.801922   -2.704901   -0.681552
      5          1           0       -0.242609   -0.969048   -0.244147
 ---------------------------------------------------------------------
                    Distance matrix (angstroms):
                    1          2          3          4          5
     1  O    0.000000
     2  X   10.000000   0.000000
     3  Cl   1.683551  10.140617   0.000000
     4  Cl   2.902426  11.047856   3.736138   0.000000
     5  H    1.028359  10.292738   2.169979   1.875457   0.000000
 Stoichiometry    Cl2HO(1-)
 Framework group  C1[X(Cl2HO)]
 Deg. of freedom     6
 Full point group                 C1      NOp   1
 RotChk:  IX=2 Diff= 1.78D-16
 Largest Abelian subgroup         C1      NOp   1
 Largest concise Abelian subgroup C1      NOp   1
                         Standard orientation:                         
 ---------------------------------------------------------------------
 Center     Atomic      Atomic             Coordinates (Angstroms)
 Number     Number       Type             X           Y           Z
 ---------------------------------------------------------------------
      1          8           0       -0.664825    0.971363    0.000001
      2         17           0       -1.716885   -0.342986    0.000000
      3         17           0        2.014039   -0.145673    0.000000
      4          1           0        0.266968    0.536296   -0.000019
 ---------------------------------------------------------------------
 Rotational constants (GHZ):          24.9869393           2.0049550           1.8560271
 Leave Link  202 at Mon Dec 13 11:16:04 2021, MaxMem= 16106127360 cpu:               0.4 elap:               0.0
 (Enter /sw/contrib/gaussian/g16/B01/g16/l601.exe)
 Copying SCF densities to generalized density rwf, IOpCl= 0 IROHF=0.

 **********************************************************************

            Population analysis using the MP2 Density.

 **********************************************************************

 Orbital symmetries:
       Occupied  (A) (A) (A) (A) (A) (A) (A) (A) (A) (A) (A) (A)
                 (A) (A) (A) (A) (A) (A) (A) (A) (A) (A)
       Virtual   (A) (A) (A) (A) (A) (A) (A) (A) (A) (A) (A) (A)
                 (A) (A) (A) (A) (A) (A) (A) (A) (A) (A) (A) (A)
                 (A) (A) (A) (A) (A) (A) (A) (A) (A) (A) (A) (A)
                 (A) (A) (A) (A) (A) (A) (A) (A) (A) (A) (A) (A)
                 (A) (A) (A) (A) (A) (A) (A) (A) (A) (A) (A) (A)
                 (A) (A) (A) (A) (A) (A) (A) (A) (A) (A) (A) (A)
                 (A) (A) (A) (A) (A) (A) (A) (A) (A) (A) (A) (A)
                 (A) (A) (A) (A) (A) (A) (A) (A) (A) (A) (A) (A)
                 (A) (A) (A) (A) (A) (A) (A) (A) (A) (A) (A) (A)
                 (A) (A) (A) (A) (A) (A) (A) (A) (A) (A) (A) (A)
                 (A) (A) (A) (A) (A) (A) (A) (A) (A) (A) (A) (A)
                 (A) (A) (A) (A) (A) (A) (A) (A) (A) (A) (A) (A)
                 (A) (A) (A)
 The electronic state is 1-A.
 Alpha  occ. eigenvalues -- -104.72292-104.55022 -20.44891 -10.44247 -10.27511
 Alpha  occ. eigenvalues --   -7.90963  -7.90706  -7.90697  -7.74128  -7.74110
 Alpha  occ. eigenvalues --   -7.74110  -1.21530  -0.88634  -0.79021  -0.52721
 Alpha  occ. eigenvalues --   -0.43166  -0.42340  -0.30091  -0.27153  -0.20608
 Alpha  occ. eigenvalues --   -0.19807  -0.19801
 Alpha virt. eigenvalues --    0.16088   0.18671   0.22627   0.23452   0.25660
 Alpha virt. eigenvalues --    0.27193   0.27470   0.29621   0.31154   0.32837
 Alpha virt. eigenvalues --    0.33701   0.34988   0.38547   0.45304   0.46138
 Alpha virt. eigenvalues --    0.51113   0.52892   0.54125   0.56510   0.56730
 Alpha virt. eigenvalues --    0.58399   0.59734   0.60593   0.65011   0.66002
 Alpha virt. eigenvalues --    0.68411   0.68745   0.75571   0.78348   0.78615
 Alpha virt. eigenvalues --    0.83533   0.87608   0.88424   0.90149   0.91182
 Alpha virt. eigenvalues --    0.92123   0.96763   1.00680   1.04484   1.06330
 Alpha virt. eigenvalues --    1.06877   1.08891   1.09439   1.10104   1.13738
 Alpha virt. eigenvalues --    1.14516   1.16975   1.18383   1.18605   1.21724
 Alpha virt. eigenvalues --    1.22654   1.24570   1.29776   1.32433   1.33349
 Alpha virt. eigenvalues --    1.37425   1.40576   1.42564   1.42833   1.46503
 Alpha virt. eigenvalues --    1.48212   1.50351   1.54509   1.61481   1.65924
 Alpha virt. eigenvalues --    1.67606   1.68535   1.73019   1.74386   1.79721
 Alpha virt. eigenvalues --    1.80882   1.84699   1.86909   1.91820   1.95088
 Alpha virt. eigenvalues --    2.00934   2.29577   2.39573   2.50549   2.51915
 Alpha virt. eigenvalues --    2.53718   2.59926   2.60216   2.62406   2.66862
 Alpha virt. eigenvalues --    2.68863   2.71597   2.72576   2.73901   2.77272
 Alpha virt. eigenvalues --    2.77772   2.80066   2.80095   2.82126   2.89311
 Alpha virt. eigenvalues --    2.91788   2.98936   2.99283   3.06046   3.09557
 Alpha virt. eigenvalues --    3.15295   3.15396   3.20397   3.22569   3.24370
 Alpha virt. eigenvalues --    3.27954   3.30721   3.32588   3.33350   3.34242
 Alpha virt. eigenvalues --    3.40268   3.40280   3.41453   3.47358   3.51403
 Alpha virt. eigenvalues --    3.53997   3.56418   3.58895   3.71430   3.96387
 Alpha virt. eigenvalues --    4.26523   4.31301   4.46940   4.54714   4.59843
 Alpha virt. eigenvalues --    4.79566   4.99866   5.16536   5.37713   5.37831
 Alpha virt. eigenvalues --    5.66413   6.40285   6.59087   6.70147   6.86651
 Alpha virt. eigenvalues --    6.91223   6.92746   7.01354   7.26379   7.31587
 Alpha virt. eigenvalues --    7.35470   7.45960   7.57649   7.77506   7.84535
 Alpha virt. eigenvalues --    8.37203  14.44753
          Condensed to atoms (all electrons):
               1          2          3          4
     1  O    8.660252  -0.123390  -0.098136   0.056924
     2  Cl  -0.123390  17.091818   0.005986  -0.004563
     3  Cl  -0.098136   0.005986  17.857588   0.064391
     4  H    0.056924  -0.004563   0.064391   0.587919
 Mulliken charges:
               1
     1  O   -0.495650
     2  Cl   0.030150
     3  Cl  -0.829829
     4  H    0.295330
 Sum of Mulliken charges =  -1.00000
 Mulliken charges with hydrogens summed into heavy atoms:
               1
     1  O   -0.200320
     2  Cl   0.030150
     3  Cl  -0.829829
 Electronic spatial extent (au):  <R**2>=            570.2226
 Charge=             -1.0000 electrons
 Dipole moment (field-independent basis, Debye):
    X=             -5.2673    Y=             -0.3242    Z=             -0.0000  Tot=              5.2773
 Quadrupole moment (field-independent basis, Debye-Ang):
   XX=            -54.6683   YY=            -37.4277   ZZ=            -36.6587
   XY=              2.6301   XZ=             -0.0000   YZ=             -0.0000
 Traceless Quadrupole moment (field-independent basis, Debye-Ang):
   XX=            -11.7501   YY=              5.4905   ZZ=              6.2596
   XY=              2.6301   XZ=             -0.0000   YZ=             -0.0000
 Octapole moment (field-independent basis, Debye-Ang**2):
  XXX=            -45.5496  YYY=              0.2734  ZZZ=              0.0000  XYY=             -6.0056
  XXY=              0.5984  XXZ=              0.0001  XZZ=             -5.5211  YZZ=              0.9307
  YYZ=              0.0000  XYZ=             -0.0000
 Hexadecapole moment (field-independent basis, Debye-Ang**3):
 XXXX=           -761.9916 YYYY=            -95.0527 ZZZZ=            -49.5686 XXXY=              9.9956
 XXXZ=              0.0001 YYYX=              6.3343 YYYZ=              0.0000 ZZZX=              0.0000
 ZZZY=             -0.0000 XXYY=           -128.5418 XXZZ=           -126.9312 YYZZ=            -24.7148
 XXYZ=             -0.0000 YYXZ=             -0.0000 ZZXY=              0.1527
 N-N= 1.215359318030D+02 E-N=-2.620868307591D+03  KE= 9.950210762368D+02
 No NMR shielding tensors so no spin-rotation constants.
 Leave Link  601 at Mon Dec 13 11:16:05 2021, MaxMem= 16106127360 cpu:               3.1 elap:               0.1
 (Enter /sw/contrib/gaussian/g16/B01/g16/l9999.exe)


 When I told the people of Northern Ireland that I was
 an atheist, a woman in the audience stood up and said,
 "Yes, but is it the God of the Catholics or the God
 of the Protestants in whom you don't believe?"
                               -- Quentin Crisp
 Error termination request processed by link 9999.
 Error termination via Lnk1e in /sw/contrib/gaussian/g16/B01/g16/l9999.exe at Mon Dec 13 11:16:05 2021.
 Job cpu time:       0 days  2 hours 19 minutes 26.7 seconds.
 Elapsed time:       0 days  0 hours  6 minutes 15.8 seconds.
 File lengths (MBytes):  RWF=     19 Int=      0 D2E=      0 Chk=      8 Scr=      1
