 Entering Gaussian System, Link 0=g16
 Input=brhod_oop_s.gjf
 Output=brhod_oop_s.log
 Initial command:
 /sw/contrib/gaussian/g16/B01/g16/l1.exe "/scr/Gau-7490.inp" -scrdir="/scr/"
 Entering Link 1 = /sw/contrib/gaussian/g16/B01/g16/l1.exe PID=      7491.
  
 Copyright (c) 1988-2017, Gaussian, Inc.  All Rights Reserved.
  
 This is part of the Gaussian(R) 16 program.  It is based on
 the Gaussian(R) 09 system (copyright 2009, Gaussian, Inc.),
 the Gaussian(R) 03 system (copyright 2003, Gaussian, Inc.),
 the Gaussian(R) 98 system (copyright 1998, Gaussian, Inc.),
 the Gaussian(R) 94 system (copyright 1995, Gaussian, Inc.),
 the Gaussian 92(TM) system (copyright 1992, Gaussian, Inc.),
 the Gaussian 90(TM) system (copyright 1990, Gaussian, Inc.),
 the Gaussian 88(TM) system (copyright 1988, Gaussian, Inc.),
 the Gaussian 86(TM) system (copyright 1986, Carnegie Mellon
 University), and the Gaussian 82(TM) system (copyright 1983,
 Carnegie Mellon University). Gaussian is a federally registered
 trademark of Gaussian, Inc.
  
 This software contains proprietary and confidential information,
 including trade secrets, belonging to Gaussian, Inc.
  
 This software is provided under written license and may be
 used, copied, transmitted, or stored only in accord with that
 written license.
  
 The following legend is applicable only to US Government
 contracts under FAR:
  
                    RESTRICTED RIGHTS LEGEND
  
 Use, reproduction and disclosure by the US Government is
 subject to restrictions as set forth in subparagraphs (a)
 and (c) of the Commercial Computer Software - Restricted
 Rights clause in FAR 52.227-19.
  
 Gaussian, Inc.
 340 Quinnipiac St., Bldg. 40, Wallingford CT 06492
  
  
 ---------------------------------------------------------------
 Warning -- This program may not be used in any manner that
 competes with the business of Gaussian, Inc. or will provide
 assistance to any competitor of Gaussian, Inc.  The licensee
 of this program is prohibited from giving any competitor of
 Gaussian, Inc. access to this program.  By using this program,
 the user acknowledges that Gaussian, Inc. is engaged in the
 business of creating and licensing software in the field of
 computational chemistry and represents and warrants to the
 licensee that it is not a competitor of Gaussian, Inc. and that
 it will not use this program in any manner prohibited above.
 ---------------------------------------------------------------
  

 Cite this work as:
 Gaussian 16, Revision B.01,
 M. J. Frisch, G. W. Trucks, H. B. Schlegel, G. E. Scuseria, 
 M. A. Robb, J. R. Cheeseman, G. Scalmani, V. Barone, 
 G. A. Petersson, H. Nakatsuji, X. Li, M. Caricato, A. V. Marenich, 
 J. Bloino, B. G. Janesko, R. Gomperts, B. Mennucci, H. P. Hratchian, 
 J. V. Ortiz, A. F. Izmaylov, J. L. Sonnenberg, D. Williams-Young, 
 F. Ding, F. Lipparini, F. Egidi, J. Goings, B. Peng, A. Petrone, 
 T. Henderson, D. Ranasinghe, V. G. Zakrzewski, J. Gao, N. Rega, 
 G. Zheng, W. Liang, M. Hada, M. Ehara, K. Toyota, R. Fukuda, 
 J. Hasegawa, M. Ishida, T. Nakajima, Y. Honda, O. Kitao, H. Nakai, 
 T. Vreven, K. Throssell, J. A. Montgomery, Jr., J. E. Peralta, 
 F. Ogliaro, M. J. Bearpark, J. J. Heyd, E. N. Brothers, K. N. Kudin, 
 V. N. Staroverov, T. A. Keith, R. Kobayashi, J. Normand, 
 K. Raghavachari, A. P. Rendell, J. C. Burant, S. S. Iyengar, 
 J. Tomasi, M. Cossi, J. M. Millam, M. Klene, C. Adamo, R. Cammi, 
 J. W. Ochterski, R. L. Martin, K. Morokuma, O. Farkas, 
 J. B. Foresman, and D. J. Fox, Gaussian, Inc., Wallingford CT, 2016.
 
 ******************************************
 Gaussian 16:  ES64L-G16RevB.01 20-Dec-2017
                19-Oct-2021 
 ******************************************
 %nproc=28
 Will use up to   28 processors via shared memory.
 %mem=120GB
 %chk=/gscratch/ilahie/mccoygrp/coire_hocl/oop_s_rOH_opt/brhod/brhod_oop_s.chk
 -------------------------------------------------
 #p opt=(z-matrix) mp2/aug-cc-pvtz density=current
 -------------------------------------------------
 1/10=7,18=40,38=1/1,3;
 2/12=2,17=6,18=5,29=3,40=1/2;
 3/5=16,6=1,7=10,11=9,25=1,30=1,71=1/1,2,3;
 4//1;
 5/5=2,38=5/2;
 8/6=4,10=1/1;
 9/15=2,16=-3/6;
 10/5=1/2;
 6/7=2,8=2,9=2,10=2,22=-1/1;
 7/12=2,29=1/1,2,3,16;
 1/10=7,18=40/3(2);
 2/29=3/2;
 99//99;
 2/29=3/2;
 3/5=16,6=1,7=10,11=9,25=1,30=1,71=1/1,2,3;
 4/5=5,16=3,69=1/1;
 5/5=2,38=5/2;
 8/6=4,10=1/1;
 9/15=2,16=-3/6;
 10/5=1/2;
 7/12=2/1,2,3,16;
 1/18=40/3(-8);
 2/29=3/2;
 6/7=2,8=2,9=2,10=2,22=-1/1;
 99/9=10/99;
 Leave Link    1 at Tue Oct 19 16:09:53 2021, MaxMem= 16106127360 cpu:               2.8 elap:               0.1
 (Enter /sw/contrib/gaussian/g16/B01/g16/l101.exe)
 -----
 title
 -----
 Symbolic Z-matrix:
 Charge = -1 Multiplicity = 1
 O
 X                    1     10. 
 H(iso=2)             1    r1       2     90. 
 Br                   1    r2       2     90.      3    a1       0
 H                    1    r3       2    oop      3    a1       0
       Variables:
  r1                    0.96079 -1        0.     
  r2                    3.25662 -1        0.     
  r3                    0.98776                  
  a1                  101.73887 -1        0.     
  OOP                  90.     Scan 10   -5.     
 
 ITRead=  0  0  0  0
 MicOpt= -1 -1 -1 -1
 NAtoms=      4 NQM=        4 NQMF=       0 NMMI=      0 NMMIF=      0
                NMic=       0 NMicF=      0.
                    Isotopes and Nuclear Properties:
 (Nuclear quadrupole moments (NQMom) in fm**2, nuclear magnetic moments (NMagM)
  in nuclear magnetons)

  Atom         1           2           3           4
 IAtWgt=          16           2          79           1
 AtmWgt=  15.9949146   2.0141018  78.9183361   1.0078250
 NucSpn=           0           2           3           1
 AtZEff=  -0.0000000  -0.0000000  -0.0000000  -0.0000000
 NQMom=    0.0000000   0.2860000  31.3000000   0.0000000
 NMagM=    0.0000000   0.8574380   2.1063990   2.7928460
 AtZNuc=   8.0000000   1.0000000  35.0000000   1.0000000
 Leave Link  101 at Tue Oct 19 16:09:53 2021, MaxMem= 16106127360 cpu:               2.8 elap:               0.1
 (Enter /sw/contrib/gaussian/g16/B01/g16/l103.exe)

 GradGradGradGradGradGradGradGradGradGradGradGradGradGradGradGradGradGrad
 Berny optimization.
 Initialization pass.
                       ----------------------------
                       !    Initial Parameters    !
                       ! (Angstroms and Degrees)  !
 ----------------------                            ----------------------
 !      Name          Value   Derivative information (Atomic Units)     !
 ------------------------------------------------------------------------
 !       r1          0.9608   Frozen                                    !
 !       r2          3.2566   Frozen                                    !
 !       r3          0.9878   estimate D2E/DX2                          !
 !       a1        101.7389   Frozen                                    !
 !       OOP        90.0      Scan                                      !
 ------------------------------------------------------------------------
 Trust Radius=3.00D-01 FncErr=1.00D-07 GrdErr=1.00D-07 EigMax=2.50D+02 EigMin=1.00D-04
 Number of optimizations in scan=  11
 Number of steps in this run=     20 maximum allowed number of steps=    100.
 GradGradGradGradGradGradGradGradGradGradGradGradGradGradGradGradGradGrad

 Leave Link  103 at Tue Oct 19 16:09:54 2021, MaxMem= 16106127360 cpu:               0.7 elap:               0.1
 (Enter /sw/contrib/gaussian/g16/B01/g16/l202.exe)
 ---------------------------------------------------------------------------------------------------
                            Z-MATRIX (ANGSTROMS AND DEGREES)
   CD    Cent   Atom    N1       Length/X        N2       Alpha/Y        N3        Beta/Z          J
 ---------------------------------------------------------------------------------------------------
      1      1  O 
      2         X        1  10.000000(     1)
      3      2  H        1   0.960788(     2)      2   90.000(     5)
      4      3  Br       1   3.256620(     3)      2   90.000(     6)      3  101.739(     8)      0
      5      4  H        1   0.987764(     4)      2   90.000(     7)      3  101.739(     9)      0
 ---------------------------------------------------------------------------------------------------
                         Z-Matrix orientation:                         
 ---------------------------------------------------------------------
 Center     Atomic      Atomic             Coordinates (Angstroms)
 Number     Number       Type             X           Y           Z
 ---------------------------------------------------------------------
      1          8           0        0.000000    0.000000    0.000000
      2         -1           0        0.000000    0.000000   10.000000
      3          1           0        0.960788    0.000000    0.000000
      4         35           0       -0.662564   -3.188507    0.000000
      5          1           0       -0.200962   -0.967105    0.000000
 ---------------------------------------------------------------------
                    Distance matrix (angstroms):
                    1          2          3          4          5
     1  O    0.000000
     2  X   10.000000   0.000000
     3  H    0.960788  10.046050   0.000000
     4  Br   3.256620  10.516918   3.577967   0.000000
     5  H    0.987764  10.048666   1.511607   2.268855   0.000000
 Stoichiometry    BrH2O(1-)
 Framework group  CS[SG(BrH2O)]
 Deg. of freedom     5
 Full point group                 CS      NOp   2
 Largest Abelian subgroup         CS      NOp   2
 Largest concise Abelian subgroup C1      NOp   1
                         Standard orientation:                         
 ---------------------------------------------------------------------
 Center     Atomic      Atomic             Coordinates (Angstroms)
 Number     Number       Type             X           Y           Z
 ---------------------------------------------------------------------
      1          8           0        0.020904    2.550533   -0.000000
      2          1           0       -0.919788    2.746007   -0.000000
      3         35           0        0.020904   -0.706087    0.000000
      4          1           0        0.020904    1.562768   -0.000000
 ---------------------------------------------------------------------
 Rotational constants (GHZ):         322.8892735           3.1468117           3.1164395
 Leave Link  202 at Tue Oct 19 16:09:54 2021, MaxMem= 16106127360 cpu:               1.8 elap:               0.1
 (Enter /sw/contrib/gaussian/g16/B01/g16/l301.exe)
 Standard basis: Aug-CC-pVTZ (5D, 7F)
 Ernie: Thresh=  0.10000D-02 Tol=  0.10000D-05 Strict=F.
 Ernie:  35 primitive shells out of 175 were deleted.
 There are   120 symmetry adapted cartesian basis functions of A'  symmetry.
 There are    54 symmetry adapted cartesian basis functions of A"  symmetry.
 There are   101 symmetry adapted basis functions of A'  symmetry.
 There are    50 symmetry adapted basis functions of A"  symmetry.
   151 basis functions,   343 primitive gaussians,   174 cartesian basis functions
    23 alpha electrons       23 beta electrons
       nuclear repulsion energy        67.8798075493 Hartrees.
 IExCor=    0 DFT=F Ex=HF Corr=None ExCW=0 ScaHFX=  1.000000
 ScaDFX=  1.000000  1.000000  1.000000  1.000000 ScalE2=  1.000000  1.000000
 IRadAn=      5 IRanWt=     -1 IRanGd=            0 ICorTp=0 IEmpDi=  4
 NAtoms=    4 NActive=    4 NUniq=    4 SFac= 1.00D+00 NAtFMM=   60 NAOKFM=F Big=F
 Integral buffers will be    131072 words long.
 Raffenetti 1 integral format.
 Two-electron integral symmetry is turned on.
 Leave Link  301 at Tue Oct 19 16:09:54 2021, MaxMem= 16106127360 cpu:               1.5 elap:               0.1
 (Enter /sw/contrib/gaussian/g16/B01/g16/l302.exe)
 NPDir=0 NMtPBC=     1 NCelOv=     1 NCel=       1 NClECP=     1 NCelD=      1
         NCelK=      1 NCelE2=     1 NClLst=     1 CellRange=     0.0.
 One-electron integrals computed using PRISM.
 One-electron integral symmetry used in STVInt
 NBasis=   151 RedAO= T EigKep=  2.92D-04  NBF=   101    50
 NBsUse=   151 1.00D-06 EigRej= -1.00D+00 NBFU=   101    50
 Leave Link  302 at Tue Oct 19 16:09:54 2021, MaxMem= 16106127360 cpu:               4.8 elap:               0.2
 (Enter /sw/contrib/gaussian/g16/B01/g16/l303.exe)
 DipDrv:  MaxL=1.
 Leave Link  303 at Tue Oct 19 16:09:54 2021, MaxMem= 16106127360 cpu:               1.0 elap:               0.1
 (Enter /sw/contrib/gaussian/g16/B01/g16/l401.exe)
 ExpMin= 2.53D-02 ExpMax= 1.06D+07 ExpMxC= 1.21D+04 IAcc=3 IRadAn=         5 AccDes= 0.00D+00
 Harris functional with IExCor=  205 and IRadAn=       5 diagonalized for initial guess.
 HarFok:  IExCor=  205 AccDes= 0.00D+00 IRadAn=         5 IDoV= 1 UseB2=F ITyADJ=14
 ICtDFT=  3500011 ScaDFX=  1.000000  1.000000  1.000000  1.000000
 FoFCou: FMM=F IPFlag=           0 FMFlag=      100000 FMFlg1=           0
         NFxFlg=           0 DoJE=T BraDBF=F KetDBF=T FulRan=T
         wScrn=  0.000000 ICntrl=       500 IOpCl=  0 I1Cent=   200000004 NGrid=           0
         NMat0=    1 NMatS0=      1 NMatT0=    0 NMatD0=    1 NMtDS0=    0 NMtDT0=    0
 Petite list used in FoFCou.
 Harris En= -2648.01671859473    
 JPrj=0 DoOrth=F DoCkMO=F.
 Initial guess orbital symmetries:
       Occupied  (A') (A') (A') (A') (A") (A') (A') (A') (A') (A")
                 (A') (A') (A") (A') (A") (A') (A') (A') (A') (A")
                 (A') (A') (A")
       Virtual   (A') (A') (A') (A') (A") (A') (A') (A") (A') (A")
                 (A') (A') (A") (A') (A') (A') (A") (A') (A') (A")
                 (A') (A') (A") (A') (A') (A') (A') (A") (A') (A")
                 (A') (A') (A") (A') (A') (A") (A") (A') (A') (A')
                 (A") (A') (A") (A") (A') (A') (A") (A') (A") (A')
                 (A') (A') (A') (A') (A") (A') (A") (A') (A') (A")
                 (A") (A') (A') (A') (A') (A") (A') (A') (A") (A')
                 (A") (A") (A') (A') (A") (A") (A') (A') (A') (A")
                 (A') (A') (A") (A') (A") (A') (A') (A') (A") (A')
                 (A') (A") (A') (A') (A') (A") (A") (A') (A") (A')
                 (A') (A") (A") (A') (A') (A') (A') (A") (A') (A')
                 (A') (A") (A') (A') (A') (A") (A') (A") (A") (A')
                 (A') (A") (A") (A') (A') (A') (A') (A')
 The electronic state of the initial guess is 1-A'.
 Leave Link  401 at Tue Oct 19 16:09:54 2021, MaxMem= 16106127360 cpu:               6.5 elap:               0.3
 (Enter /sw/contrib/gaussian/g16/B01/g16/l502.exe)
 Keep R1 ints in memory in symmetry-blocked form, NReq=99284943.
 FoFCou: FMM=F IPFlag=           0 FMFlag=           0 FMFlg1=           0
         NFxFlg=           0 DoJE=F BraDBF=F KetDBF=F FulRan=T
         wScrn=  0.000000 ICntrl=       600 IOpCl=  0 I1Cent=           0 NGrid=           0
         NMat0=    1 NMatS0=  11476 NMatT0=    0 NMatD0=    1 NMtDS0=    0 NMtDT0=    0
 Petite list used in FoFCou.
 Closed shell SCF:
 Using DIIS extrapolation, IDIIS=  1040.
 NGot= 16106127360 LenX= 16072631395 LenY= 16072600678
 Requested convergence on RMS density matrix=1.00D-08 within 128 cycles.
 Requested convergence on MAX density matrix=1.00D-06.
 Requested convergence on             energy=1.00D-06.
 No special actions if energy rises.

 Cycle   1  Pass 1  IDiag  1:
 E= -2648.44096809390    
 DIIS: error= 7.50D-02 at cycle   1 NSaved=   1.
 NSaved= 1 IEnMin= 1 EnMin= -2648.44096809390     IErMin= 1 ErrMin= 7.50D-02
 ErrMax= 7.50D-02  0.00D+00 EMaxC= 1.00D-01 BMatC= 5.45D-01 BMatP= 5.45D-01
 IDIUse=3 WtCom= 2.50D-01 WtEn= 7.50D-01
 Coeff-Com:  0.100D+01
 Coeff-En:   0.100D+01
 Coeff:      0.100D+01
 Gap=     0.388 Goal=   None    Shift=    0.000
 GapD=    0.388 DampG=1.000 DampE=0.500 DampFc=0.5000 IDamp=-1.
 Damping current iteration by 5.00D-01
 RMSDP=3.20D-03 MaxDP=9.62D-02              OVMax= 1.24D-01

 Cycle   2  Pass 1  IDiag  1:
 E= -2648.52808755178     Delta-E=       -0.087119457881 Rises=F Damp=T
 DIIS: error= 3.51D-02 at cycle   2 NSaved=   2.
 NSaved= 2 IEnMin= 2 EnMin= -2648.52808755178     IErMin= 2 ErrMin= 3.51D-02
 ErrMax= 3.51D-02  0.00D+00 EMaxC= 1.00D-01 BMatC= 1.02D-01 BMatP= 5.45D-01
 IDIUse=3 WtCom= 6.49D-01 WtEn= 3.51D-01
 Coeff-Com: -0.599D+00 0.160D+01
 Coeff-En:   0.000D+00 0.100D+01
 Coeff:     -0.389D+00 0.139D+01
 Gap=     0.275 Goal=   None    Shift=    0.000
 RMSDP=1.29D-03 MaxDP=3.46D-02 DE=-8.71D-02 OVMax= 6.08D-02

 Cycle   3  Pass 1  IDiag  1:
 E= -2648.60586636413     Delta-E=       -0.077778812347 Rises=F Damp=F
 DIIS: error= 3.42D-03 at cycle   3 NSaved=   3.
 NSaved= 3 IEnMin= 3 EnMin= -2648.60586636413     IErMin= 3 ErrMin= 3.42D-03
 ErrMax= 3.42D-03  0.00D+00 EMaxC= 1.00D-01 BMatC= 1.97D-03 BMatP= 1.02D-01
 IDIUse=3 WtCom= 9.66D-01 WtEn= 3.42D-02
 Coeff-Com: -0.136D+00 0.293D+00 0.842D+00
 Coeff-En:   0.000D+00 0.000D+00 0.100D+01
 Coeff:     -0.131D+00 0.283D+00 0.848D+00
 Gap=     0.297 Goal=   None    Shift=    0.000
 RMSDP=2.63D-04 MaxDP=7.72D-03 DE=-7.78D-02 OVMax= 1.04D-02

 Cycle   4  Pass 1  IDiag  1:
 E= -2648.60715533182     Delta-E=       -0.001288967686 Rises=F Damp=F
 DIIS: error= 4.20D-04 at cycle   4 NSaved=   4.
 NSaved= 4 IEnMin= 4 EnMin= -2648.60715533182     IErMin= 4 ErrMin= 4.20D-04
 ErrMax= 4.20D-04  0.00D+00 EMaxC= 1.00D-01 BMatC= 3.10D-05 BMatP= 1.97D-03
 IDIUse=3 WtCom= 9.96D-01 WtEn= 4.20D-03
 Coeff-Com:  0.171D-01-0.406D-01 0.549D-02 0.102D+01
 Coeff-En:   0.000D+00 0.000D+00 0.000D+00 0.100D+01
 Coeff:      0.170D-01-0.404D-01 0.547D-02 0.102D+01
 Gap=     0.296 Goal=   None    Shift=    0.000
 RMSDP=4.29D-05 MaxDP=1.26D-03 DE=-1.29D-03 OVMax= 1.83D-03

 Cycle   5  Pass 1  IDiag  1:
 E= -2648.60719531393     Delta-E=       -0.000039982113 Rises=F Damp=F
 DIIS: error= 1.45D-04 at cycle   5 NSaved=   5.
 NSaved= 5 IEnMin= 5 EnMin= -2648.60719531393     IErMin= 5 ErrMin= 1.45D-04
 ErrMax= 1.45D-04  0.00D+00 EMaxC= 1.00D-01 BMatC= 1.55D-06 BMatP= 3.10D-05
 IDIUse=3 WtCom= 9.99D-01 WtEn= 1.45D-03
 Coeff-Com: -0.224D-02 0.645D-02-0.257D-01-0.372D+00 0.139D+01
 Coeff-En:   0.000D+00 0.000D+00 0.000D+00 0.000D+00 0.100D+01
 Coeff:     -0.223D-02 0.644D-02-0.257D-01-0.371D+00 0.139D+01
 Gap=     0.297 Goal=   None    Shift=    0.000
 RMSDP=1.88D-05 MaxDP=5.12D-04 DE=-4.00D-05 OVMax= 8.91D-04

 Cycle   6  Pass 1  IDiag  1:
 E= -2648.60720005811     Delta-E=       -0.000004744183 Rises=F Damp=F
 DIIS: error= 3.03D-05 at cycle   6 NSaved=   6.
 NSaved= 6 IEnMin= 6 EnMin= -2648.60720005811     IErMin= 6 ErrMin= 3.03D-05
 ErrMax= 3.03D-05  0.00D+00 EMaxC= 1.00D-01 BMatC= 6.12D-08 BMatP= 1.55D-06
 IDIUse=1 WtCom= 1.00D+00 WtEn= 0.00D+00
 Coeff-Com: -0.384D-03 0.699D-03 0.386D-02 0.202D-01-0.228D+00 0.120D+01
 Coeff:     -0.384D-03 0.699D-03 0.386D-02 0.202D-01-0.228D+00 0.120D+01
 Gap=     0.297 Goal=   None    Shift=    0.000
 RMSDP=3.18D-06 MaxDP=8.67D-05 DE=-4.74D-06 OVMax= 1.95D-04

 Cycle   7  Pass 1  IDiag  1:
 E= -2648.60720024466     Delta-E=       -0.000000186547 Rises=F Damp=F
 DIIS: error= 6.93D-06 at cycle   7 NSaved=   7.
 NSaved= 7 IEnMin= 7 EnMin= -2648.60720024466     IErMin= 7 ErrMin= 6.93D-06
 ErrMax= 6.93D-06  0.00D+00 EMaxC= 1.00D-01 BMatC= 6.01D-09 BMatP= 6.12D-08
 IDIUse=1 WtCom= 1.00D+00 WtEn= 0.00D+00
 Coeff-Com: -0.432D-04-0.678D-04 0.267D-02 0.247D-01-0.123D+00 0.140D+00
 Coeff-Com:  0.956D+00
 Coeff:     -0.432D-04-0.678D-04 0.267D-02 0.247D-01-0.123D+00 0.140D+00
 Coeff:      0.956D+00
 Gap=     0.297 Goal=   None    Shift=    0.000
 RMSDP=7.20D-07 MaxDP=1.87D-05 DE=-1.87D-07 OVMax= 4.98D-05

 Cycle   8  Pass 1  IDiag  1:
 E= -2648.60720025678     Delta-E=       -0.000000012119 Rises=F Damp=F
 DIIS: error= 1.61D-06 at cycle   8 NSaved=   8.
 NSaved= 8 IEnMin= 8 EnMin= -2648.60720025678     IErMin= 8 ErrMin= 1.61D-06
 ErrMax= 1.61D-06  0.00D+00 EMaxC= 1.00D-01 BMatC= 4.12D-10 BMatP= 6.01D-09
 IDIUse=1 WtCom= 1.00D+00 WtEn= 0.00D+00
 Coeff-Com:  0.851D-04-0.160D-03-0.535D-03-0.331D-03 0.194D-01-0.101D+00
 Coeff-Com: -0.661D-01 0.115D+01
 Coeff:      0.851D-04-0.160D-03-0.535D-03-0.331D-03 0.194D-01-0.101D+00
 Coeff:     -0.661D-01 0.115D+01
 Gap=     0.297 Goal=   None    Shift=    0.000
 RMSDP=2.91D-07 MaxDP=8.29D-06 DE=-1.21D-08 OVMax= 1.62D-05

 Cycle   9  Pass 1  IDiag  1:
 E= -2648.60720025773     Delta-E=       -0.000000000947 Rises=F Damp=F
 DIIS: error= 4.01D-07 at cycle   9 NSaved=   9.
 NSaved= 9 IEnMin= 9 EnMin= -2648.60720025773     IErMin= 9 ErrMin= 4.01D-07
 ErrMax= 4.01D-07  0.00D+00 EMaxC= 1.00D-01 BMatC= 2.46D-11 BMatP= 4.12D-10
 IDIUse=1 WtCom= 1.00D+00 WtEn= 0.00D+00
 Coeff-Com: -0.133D-04 0.351D-04-0.110D-03-0.178D-02 0.685D-02-0.358D-02
 Coeff-Com: -0.510D-01-0.831D-02 0.106D+01
 Coeff:     -0.133D-04 0.351D-04-0.110D-03-0.178D-02 0.685D-02-0.358D-02
 Coeff:     -0.510D-01-0.831D-02 0.106D+01
 Gap=     0.297 Goal=   None    Shift=    0.000
 RMSDP=5.23D-08 MaxDP=1.11D-06 DE=-9.47D-10 OVMax= 2.99D-06

 Cycle  10  Pass 1  IDiag  1:
 E= -2648.60720025778     Delta-E=       -0.000000000052 Rises=F Damp=F
 DIIS: error= 1.09D-07 at cycle  10 NSaved=  10.
 NSaved=10 IEnMin=10 EnMin= -2648.60720025778     IErMin=10 ErrMin= 1.09D-07
 ErrMax= 1.09D-07  0.00D+00 EMaxC= 1.00D-01 BMatC= 2.73D-12 BMatP= 2.46D-11
 IDIUse=1 WtCom= 1.00D+00 WtEn= 0.00D+00
 Coeff-Com: -0.600D-05 0.109D-04 0.465D-04 0.116D-03-0.199D-02 0.991D-02
 Coeff-Com:  0.666D-02-0.124D+00 0.619D-01 0.105D+01
 Coeff:     -0.600D-05 0.109D-04 0.465D-04 0.116D-03-0.199D-02 0.991D-02
 Coeff:      0.666D-02-0.124D+00 0.619D-01 0.105D+01
 Gap=     0.297 Goal=   None    Shift=    0.000
 RMSDP=1.47D-08 MaxDP=2.52D-07 DE=-5.23D-11 OVMax= 1.15D-06

 Cycle  11  Pass 1  IDiag  1:
 E= -2648.60720025779     Delta-E=       -0.000000000006 Rises=F Damp=F
 DIIS: error= 2.26D-08 at cycle  11 NSaved=  11.
 NSaved=11 IEnMin=11 EnMin= -2648.60720025779     IErMin=11 ErrMin= 2.26D-08
 ErrMax= 2.26D-08  0.00D+00 EMaxC= 1.00D-01 BMatC= 1.13D-13 BMatP= 2.73D-12
 IDIUse=1 WtCom= 1.00D+00 WtEn= 0.00D+00
 Coeff-Com:  0.138D-05-0.301D-05-0.486D-06 0.607D-04-0.262D-04-0.130D-02
 Coeff-Com:  0.148D-02 0.185D-01-0.748D-01-0.148D+00 0.120D+01
 Coeff:      0.138D-05-0.301D-05-0.486D-06 0.607D-04-0.262D-04-0.130D-02
 Coeff:      0.148D-02 0.185D-01-0.748D-01-0.148D+00 0.120D+01
 Gap=     0.297 Goal=   None    Shift=    0.000
 RMSDP=6.81D-09 MaxDP=2.47D-07 DE=-5.91D-12 OVMax= 3.06D-07

 SCF Done:  E(RHF) =  -2648.60720026     A.U. after   11 cycles
            NFock= 11  Conv=0.68D-08     -V/T= 2.0000
 KE= 2.648515755254D+03 PE=-6.483670413478D+03 EE= 1.118667650417D+03
 Leave Link  502 at Tue Oct 19 16:09:56 2021, MaxMem= 16106127360 cpu:              41.4 elap:               1.8
 (Enter /sw/contrib/gaussian/g16/B01/g16/l801.exe)
 ExpMin= 2.53D-02 ExpMax= 1.06D+07 ExpMxC= 1.21D+04 IAcc=3 IRadAn=         5 AccDes= 0.00D+00
 HarFok:  IExCor=  205 AccDes= 0.00D+00 IRadAn=         5 IDoV=-2 UseB2=F ITyADJ=14
 ICtDFT= 12500011 ScaDFX=  1.000000  1.000000  1.000000  1.000000
 Largest valence mixing into a core orbital is  1.27D-04
 Largest core mixing into a valence orbital is  3.62D-05
 Range of M.O.s used for correlation:    11   151
 NBasis=   151 NAE=    23 NBE=    23 NFC=    10 NFV=     0
 NROrb=    141 NOA=    13 NOB=    13 NVA=   128 NVB=   128

 **** Warning!!: The largest alpha MO coefficient is  0.14808251D+02

 Leave Link  801 at Tue Oct 19 16:09:56 2021, MaxMem= 16106127360 cpu:               2.9 elap:               0.2
 (Enter /sw/contrib/gaussian/g16/B01/g16/l906.exe)
 Frozen-core derivative calculation, NFC=  10 NFV=   0.
 FulOut=F Deriv=T AODrv=T NAtomX=     4
   MMem=         211  MDisk=          13 MDiskD=          13
  W3Min=      604302 MinDsk=     1007783 NBas6D=         174
 NBas2D=       15618    NTT=       15225    LW2=     9911920
    MDV= 16105742171 MDiskM=      462751 NBas2p=       15545
 Fully direct method using O(ONN) memory.
 IMap=   1   2   3   4   5   6   7   8   9  10  11  12  13  14  15  16  17  18  19  20
 IMap=  21  22  23
 JobTyp=1 Pass  1:  I=  11 to  23 NPSUse= 28 ParTrn=T ParDer=T DoDerP=T.
 Spin components of T(2) and E(2):
     alpha-alpha T2 =       0.2056950169D-01 E2=     -0.6995515339D-01
     alpha-beta  T2 =       0.1089710771D+00 E2=     -0.3790744587D+00
     beta-beta   T2 =       0.2056950169D-01 E2=     -0.6995515339D-01
 The integrals were generated   1 times.
 ANorm=    0.1072431854D+01
 E2 =    -0.5189847655D+00 EUMP2 =    -0.26491261850232D+04
 Leave Link  906 at Tue Oct 19 16:10:03 2021, MaxMem= 16106127360 cpu:             199.5 elap:               7.2
 (Enter /sw/contrib/gaussian/g16/B01/g16/l1002.exe)
 Minotr:  Closed shell wavefunction.
          Computing MP2/KS-MP2 derivatives.
          Using Z-Vector for PSCF gradient.
          Skipping F1 and S1 gradient terms here.
          IDoAtm=1111
          Frozen-core window.
          Direct CPHF calculation.
          Differentiating once with respect to electric field.
                with respect to dipole field.
          Differentiating once with respect to nuclear coordinates.
          Using symmetry in CPHF.
          Requested convergence is 1.0D-10 RMS, and 1.0D-09 maximum.
          NewPWx=F KeepS1=T KeepF1=T KeepIn=T MapXYZ=F SortEE=F KeepMc=T.
 Keep R1 ints in memory in symmetry-blocked form, NReq=99285930.
 FoFCou: FMM=F IPFlag=           0 FMFlag=           0 FMFlg1=           0
         NFxFlg=           0 DoJE=F BraDBF=F KetDBF=F FulRan=T
         wScrn=  0.000000 ICntrl=       600 IOpCl=  0 I1Cent=           0 NGrid=           0
         NMat0=    1 NMatS0=  11476 NMatT0=    0 NMatD0=    1 NMtDS0=    0 NMtDT0=    0
 Petite list used in FoFCou.
          MDV=   16106127360 using IRadAn=       5.
          Solving linear equations separately, MaxMat=       0.
          There are     1 degrees of freedom in the 1st order CPHF.  IDoFFX=0 NUNeed=     1.
 LinEq1:  Iter=  0 NonCon=     1 RMS=2.40D-03 Max=4.90D-02 NDo=     1
 AX will form     1 AO Fock derivatives at one time.
 LinEq1:  Iter=  1 NonCon=     1 RMS=3.98D-04 Max=5.15D-03 NDo=     1
 LinEq1:  Iter=  2 NonCon=     1 RMS=1.87D-04 Max=2.32D-03 NDo=     1
 LinEq1:  Iter=  3 NonCon=     1 RMS=5.22D-05 Max=1.00D-03 NDo=     1
 LinEq1:  Iter=  4 NonCon=     1 RMS=1.04D-05 Max=1.31D-04 NDo=     1
 LinEq1:  Iter=  5 NonCon=     1 RMS=4.56D-06 Max=6.59D-05 NDo=     1
 LinEq1:  Iter=  6 NonCon=     1 RMS=8.98D-07 Max=1.94D-05 NDo=     1
 LinEq1:  Iter=  7 NonCon=     1 RMS=2.02D-07 Max=3.32D-06 NDo=     1
 LinEq1:  Iter=  8 NonCon=     1 RMS=5.73D-08 Max=9.16D-07 NDo=     1
 LinEq1:  Iter=  9 NonCon=     1 RMS=7.32D-09 Max=1.38D-07 NDo=     1
 LinEq1:  Iter= 10 NonCon=     1 RMS=9.10D-10 Max=1.17D-08 NDo=     1
 LinEq1:  Iter= 11 NonCon=     1 RMS=2.63D-10 Max=5.23D-09 NDo=     1
 LinEq1:  Iter= 12 NonCon=     0 RMS=5.18D-11 Max=7.03D-10 NDo=     1
 Linear equations converged to 1.000D-10 1.000D-09 after    12 iterations.
 End of Minotr F.D. properties file   721 does not exist.
 End of Minotr F.D. properties file   722 does not exist.
 End of Minotr F.D. properties file   788 does not exist.
 Leave Link 1002 at Tue Oct 19 16:10:06 2021, MaxMem= 16106127360 cpu:              47.0 elap:               2.2
 (Enter /sw/contrib/gaussian/g16/B01/g16/l601.exe)
 Copying SCF densities to generalized density rwf, IOpCl= 0 IROHF=0.

 **********************************************************************

            Population analysis using the MP2 Density.

 **********************************************************************

 Orbital symmetries:
       Occupied  (A') (A') (A') (A') (A") (A') (A') (A') (A') (A")
                 (A') (A') (A") (A") (A') (A') (A') (A') (A') (A")
                 (A') (A') (A")
       Virtual   (A') (A') (A') (A") (A') (A') (A") (A') (A') (A')
                 (A') (A") (A') (A") (A') (A") (A') (A') (A') (A")
                 (A') (A') (A') (A') (A") (A') (A') (A') (A') (A")
                 (A") (A") (A') (A') (A") (A') (A") (A') (A') (A')
                 (A") (A') (A') (A") (A') (A") (A') (A') (A") (A")
                 (A') (A') (A') (A') (A") (A') (A") (A') (A') (A")
                 (A') (A") (A') (A') (A') (A') (A") (A') (A") (A')
                 (A") (A") (A') (A") (A') (A") (A') (A') (A') (A')
                 (A") (A") (A') (A') (A") (A') (A') (A") (A') (A')
                 (A') (A") (A') (A') (A') (A") (A') (A") (A") (A')
                 (A") (A') (A") (A') (A') (A') (A') (A") (A') (A')
                 (A') (A") (A') (A') (A') (A") (A') (A") (A') (A")
                 (A") (A') (A") (A') (A') (A') (A') (A')
 The electronic state is 1-A'.
 Alpha  occ. eigenvalues -- -489.74063 -64.88088 -58.23537 -58.23535 -58.23535
 Alpha  occ. eigenvalues --  -20.38846  -9.55334  -7.16090  -7.16068  -7.16065
 Alpha  occ. eigenvalues --   -2.90256  -2.90247  -2.90243  -2.90221  -2.90220
 Alpha  occ. eigenvalues --   -1.16963  -0.71224  -0.52696  -0.41563  -0.33320
 Alpha  occ. eigenvalues --   -0.16652  -0.16122  -0.16079
 Alpha virt. eigenvalues --    0.13587   0.17396   0.23371   0.24171   0.24847
 Alpha virt. eigenvalues --    0.27526   0.29607   0.29908   0.33883   0.34904
 Alpha virt. eigenvalues --    0.39865   0.41076   0.41663   0.46396   0.48132
 Alpha virt. eigenvalues --    0.48549   0.51826   0.53488   0.57418   0.59837
 Alpha virt. eigenvalues --    0.61579   0.63454   0.70786   0.73811   0.75169
 Alpha virt. eigenvalues --    0.75690   0.82418   0.87641   0.88544   0.88555
 Alpha virt. eigenvalues --    0.90329   0.96157   0.99241   1.01099   1.01565
 Alpha virt. eigenvalues --    1.02009   1.03542   1.04653   1.07586   1.09483
 Alpha virt. eigenvalues --    1.09596   1.10984   1.16604   1.17645   1.17929
 Alpha virt. eigenvalues --    1.19311   1.19312   1.22926   1.22927   1.25495
 Alpha virt. eigenvalues --    1.33232   1.36711   1.41855   1.45038   1.46862
 Alpha virt. eigenvalues --    1.52404   1.63448   1.64248   1.68910   1.69831
 Alpha virt. eigenvalues --    1.77818   1.81945   2.05657   2.07164   2.18827
 Alpha virt. eigenvalues --    2.41116   2.41174   2.42743   2.44605   2.49866
 Alpha virt. eigenvalues --    2.53016   2.54620   2.55418   2.55803   2.56302
 Alpha virt. eigenvalues --    2.56387   2.57321   2.59130   2.62071   2.62739
 Alpha virt. eigenvalues --    2.66000   2.66495   2.67693   2.70235   2.74457
 Alpha virt. eigenvalues --    2.76445   2.81553   2.91861   2.92808   2.99666
 Alpha virt. eigenvalues --    3.11525   3.13453   3.14287   3.87059   4.12593
 Alpha virt. eigenvalues --    4.22460   4.33477   4.35186   4.44205   4.44702
 Alpha virt. eigenvalues --    4.55656   4.57179   4.62875   4.71406   4.79502
 Alpha virt. eigenvalues --    4.98044   5.14262   5.29064   5.37488   5.46209
 Alpha virt. eigenvalues --    5.51314   5.67708   5.83819   6.39305   6.70473
 Alpha virt. eigenvalues --    6.89765   7.10575   7.28768   7.43688   7.44460
 Alpha virt. eigenvalues --    7.47427   7.54931   7.61202   7.81409   8.07844
 Alpha virt. eigenvalues --    8.12524   8.96067  16.26779
          Condensed to atoms (all electrons):
               1          2          3          4
     1  O    8.263450   0.212417  -0.063749   0.125366
     2  H    0.212417   0.607262   0.004330   0.008429
     3  Br  -0.063749   0.004330  35.950595   0.030521
     4  H    0.125366   0.008429   0.030521   0.544064
 Mulliken charges:
               1
     1  O   -0.537484
     2  H    0.167562
     3  Br  -0.921697
     4  H    0.291619
 Sum of Mulliken charges =  -1.00000
 Mulliken charges with hydrogens summed into heavy atoms:
               1
     1  O   -0.078303
     3  Br  -0.921697
 Electronic spatial extent (au):  <R**2>=            362.7682
 Charge=             -1.0000 electrons
 Dipole moment (field-independent basis, Debye):
    X=             -1.3797    Y=              0.6625    Z=             -0.0000  Tot=              1.5305
 Quadrupole moment (field-independent basis, Debye-Ang):
   XX=            -29.3726   YY=            -40.9871   ZZ=            -31.6898
   XY=             -4.1821   XZ=              0.0000   YZ=              0.0000
 Traceless Quadrupole moment (field-independent basis, Debye-Ang):
   XX=              4.6439   YY=             -6.9706   ZZ=              2.3267
   XY=             -4.1821   XZ=              0.0000   YZ=              0.0000
 Octapole moment (field-independent basis, Debye-Ang**2):
  XXX=             -1.3842  YYY=            -28.3662  ZZZ=              0.0000  XYY=            -12.3682
  XXY=              2.4350  XXZ=             -0.0000  XZZ=              0.0866  YZZ=             -3.8993
  YYZ=              0.0000  XYZ=              0.0000
 Hexadecapole moment (field-independent basis, Debye-Ang**3):
 XXXX=            -49.4084 YYYY=           -460.3011 ZZZZ=            -50.2133 XXXY=             -0.1298
 XXXZ=              0.0000 YYYX=            -31.9313 YYYZ=              0.0000 ZZZX=             -0.0000
 ZZZY=              0.0000 XXYY=            -63.0505 XXZZ=            -16.9061 YYZZ=            -80.1629
 XXYZ=              0.0000 YYXZ=              0.0000 ZZXY=              1.4963
 N-N= 6.787980754928D+01 E-N=-6.482141508573D+03  KE= 2.648363718301D+03
 Symmetry A'   KE= 2.268557291019D+03
 Symmetry A"   KE= 3.798064272818D+02
 No NMR shielding tensors so no spin-rotation constants.
 Leave Link  601 at Tue Oct 19 16:10:06 2021, MaxMem= 16106127360 cpu:               4.3 elap:               0.2
 (Enter /sw/contrib/gaussian/g16/B01/g16/l701.exe)
 ... and contract with generalized density number  2.
 Compute integral first derivatives.
 Leave Link  701 at Tue Oct 19 16:10:06 2021, MaxMem= 16106127360 cpu:               6.4 elap:               0.3
 (Enter /sw/contrib/gaussian/g16/B01/g16/l702.exe)
 L702 exits ... SP integral derivatives will be done elsewhere.
 Leave Link  702 at Tue Oct 19 16:10:07 2021, MaxMem= 16106127360 cpu:               1.5 elap:               0.1
 (Enter /sw/contrib/gaussian/g16/B01/g16/l703.exe)
 Integral derivatives from FoFJK, PRISM(SPDF).
 Compute integral first derivatives, UseDBF=F ICtDFT=           0.
 Calling FoFJK, ICntrl=  10002127 FMM=F ISym2X=1 I1Cent= 0 IOpClX= 0 NMat=1 NMatS=1 NMatT=0.
 FoFJK:  IHMeth= 1 ICntrl=10002127 DoSepK=F KAlg= 0 I1Cent=           0 FoldK=F
 IRaf=         0 NMat=       1 IRICut=       1 DoRegI=T DoRafI=F ISym2E= 1 IDoP0=0 IntGTp=1.
 FoFCou: FMM=F IPFlag=           0 FMFlag=      100000 FMFlg1=         800
         NFxFlg=           0 DoJE=F BraDBF=F KetDBF=F FulRan=T
         wScrn=  0.000000 ICntrl=  10002127 IOpCl=  0 I1Cent=           0 NGrid=           0
         NMat0=    1 NMatS0=      1 NMatT0=    0 NMatD0=    1 NMtDS0=    0 NMtDT0=    0
 Petite list used in FoFCou.
 Leave Link  703 at Tue Oct 19 16:10:08 2021, MaxMem= 16106127360 cpu:              38.0 elap:               1.4
 (Enter /sw/contrib/gaussian/g16/B01/g16/l716.exe)
 Dipole        =-5.42830974D-01 2.60638005D-01-6.24422438D-33
 ***** Axes restored to original set *****
 -------------------------------------------------------------------
 Center     Atomic                   Forces (Hartrees/Bohr)
 Number     Number              X              Y              Z
 -------------------------------------------------------------------
      1        8           0.002192796   -0.000458317   -0.000000000
      2        1           0.000002645   -0.000001503    0.000000000
      3       35           0.000956482   -0.000200032   -0.000000000
      4        1          -0.003151924    0.000659852    0.000000000
 -------------------------------------------------------------------
 Cartesian Forces:  Max     0.003151924 RMS     0.001167023
 -----------------------------------------------------------------------------------------------
                       Internal Coordinate Forces (Hartree/Bohr or radian)
  Cent   Atom   N1       Length/X         N2         Alpha/Y        N3         Beta/Z          J
 -----------------------------------------------------------------------------------------------
      1  O 
         X        1   0.000000(     1)
      2  H        1   0.000003(     2)      2   0.000000(     5)
      3  Br       1   0.000001(     3)      2   0.000000(     6)      3  -0.006014(     8)     0
      4  H        1  -0.000005(     4)      2  -0.000000(     7)      3   0.006011(     9)     0
 -----------------------------------------------------------------------------------------------
 Internal  Forces:  Max     0.006013648 RMS     0.002834221
 Force constants in Cartesian coordinates: 
                1             2             3             4             5 
      1  0.643837D+00
      2  0.281047D-01  0.619709D+00
      3  0.000000D+00  0.000000D+00  0.222892D-01
      4 -0.553043D+00  0.000000D+00  0.000000D+00  0.553043D+00
      5  0.602434D-01 -0.109591D+00  0.000000D+00  0.000000D+00  0.970728D-01
      6  0.000000D+00  0.000000D+00  0.000000D+00  0.000000D+00  0.000000D+00
      7  0.455288D-02  0.956236D-02  0.000000D+00  0.000000D+00 -0.140200D-01
      8 -0.445765D-02 -0.188860D-01  0.000000D+00  0.000000D+00  0.291332D-02
      9  0.000000D+00  0.000000D+00  0.970379D-02  0.000000D+00  0.000000D+00
     10 -0.953467D-01 -0.376670D-01  0.000000D+00  0.000000D+00 -0.462234D-01
     11 -0.838904D-01 -0.491232D+00  0.000000D+00  0.000000D+00  0.960512D-02
     12  0.000000D+00  0.000000D+00 -0.319930D-01  0.000000D+00  0.000000D+00
                6             7             8             9            10 
      6  0.100000D+01
      7  0.000000D+00  0.879901D-02
      8  0.000000D+00  0.168316D-02  0.165492D-01
      9  0.000000D+00  0.000000D+00  0.000000D+00  0.422463D-02
     10  0.000000D+00 -0.133519D-01  0.277449D-02  0.000000D+00  0.108699D+00
     11  0.000000D+00  0.277449D-02 -0.576533D-03  0.000000D+00  0.811159D-01
     12  0.000000D+00  0.000000D+00  0.000000D+00 -0.139284D-01  0.000000D+00
               11            12 
     11  0.482203D+00
     12  0.000000D+00  0.459214D-01
 Force constants in internal coordinates: 
                1             2             3             4             5 
      1  0.000000D+00
      2  0.000000D+00  0.553043D+00
      3  0.000000D+00  0.000000D+00  0.168990D-01
      4  0.000000D+00  0.000000D+00  0.000000D+00  0.499059D+00
      5  0.000000D+00  0.000000D+00  0.000000D+00  0.000000D+00  0.329650D+01
      6  0.000000D+00  0.000000D+00  0.000000D+00  0.000000D+00  0.000000D+00
      7  0.000000D+00  0.000000D+00  0.000000D+00  0.000000D+00  0.000000D+00
      8  0.000000D+00  0.000000D+00  0.000000D+00  0.000000D+00  0.000000D+00
      9  0.000000D+00  0.000000D+00  0.000000D+00  0.000000D+00  0.000000D+00
                6             7             8             9 
      6  0.160000D+00
      7 -0.160000D+00  0.160000D+00
      8  0.000000D+00  0.000000D+00  0.320000D+00
      9  0.000000D+00  0.000000D+00 -0.160000D+00  0.320000D+00
 Leave Link  716 at Tue Oct 19 16:10:09 2021, MaxMem= 16106127360 cpu:               4.1 elap:               0.3
 (Enter /sw/contrib/gaussian/g16/B01/g16/l103.exe)

 GradGradGradGradGradGradGradGradGradGradGradGradGradGradGradGradGradGrad
 Berny optimization.
 Search for a local minimum.
 Step number   1 out of a maximum of   20 on scan point     1 out of    11
 All quantities printed in internal units (Hartrees-Bohrs-Radians)
 Second derivative matrix not updated -- first step.
 The second derivative matrix:
                          r1        r2        r3        a1        OOP
           r1           0.55304
           r2          -0.00000   0.01690
           r3           0.00000   0.00000   0.49906
           a1          -0.00000  -0.00000  -0.00000   0.32000
           OOP          0.00000  -0.00000  -0.00000  -0.00000   0.16000
 ITU=  0
     Eigenvalues ---    0.499061000.000001000.000001000.000001000.00000
 RFO step:  Lambda= 0.00000000D+00 EMin= 4.99058736D-01
 Linear search not attempted -- first point.
 Variable       Old X    -DE/DX   Delta X   Delta X   Delta X     New X
                                 (Linear)    (Quad)   (Total)
    r1        1.81563   0.00000   0.00000   0.00000   0.00000   1.81563
    r2        6.15412   0.00000   0.00000   0.00000   0.00000   6.15412
    r3        1.86660  -0.00000   0.00000  -0.00001  -0.00001   1.86659
    a1        1.77568  -0.00000   0.00000   0.00000   0.00000   1.77568
   OOP        1.57080  -0.00000   0.00000   0.00000   0.00000   1.57080
         Item               Value     Threshold  Converged?
 Maximum Force            0.000005     0.000450     YES
 RMS     Force            0.000005     0.000300     YES
 Maximum Displacement     0.000010     0.001800     YES
 RMS     Displacement     0.000004     0.001200     YES
 Predicted change in Energy=-2.295822D-11
 Optimization completed.
    -- Stationary point found.
                       ----------------------------
                       !   Optimized Parameters   !
                       ! (Angstroms and Degrees)  !
 ----------------------                            ----------------------
 !      Name          Value   Derivative information (Atomic Units)     !
 ------------------------------------------------------------------------
 !       r1          0.9608   -DE/DX =    0.0                           !
 !       r2          3.2566   -DE/DX =    0.0                           !
 !       r3          0.9878   -DE/DX =    0.0                           !
 !       a1        101.7389   -DE/DX =    0.0                           !
 !       OOP        90.0      -DE/DX =    0.0                           !
 ------------------------------------------------------------------------
 Lowest energy point so far.  Saving SCF results.
 GradGradGradGradGradGradGradGradGradGradGradGradGradGradGradGradGradGrad

 Leave Link  103 at Tue Oct 19 16:10:09 2021, MaxMem= 16106127360 cpu:               2.9 elap:               0.1
 (Enter /sw/contrib/gaussian/g16/B01/g16/l202.exe)
 ---------------------------------------------------------------------------------------------------
                            Z-MATRIX (ANGSTROMS AND DEGREES)
   CD    Cent   Atom    N1       Length/X        N2       Alpha/Y        N3        Beta/Z          J
 ---------------------------------------------------------------------------------------------------
      1      1  O 
      2         X        1  10.000000(     1)
      3      2  H        1   0.960788(     2)      2   90.000(     5)
      4      3  Br       1   3.256620(     3)      2   90.000(     6)      3  101.739(     8)      0
      5      4  H        1   0.987764(     4)      2   85.000(     7)      3  101.739(     9)      0
 ---------------------------------------------------------------------------------------------------
                         Z-Matrix orientation:                         
 ---------------------------------------------------------------------
 Center     Atomic      Atomic             Coordinates (Angstroms)
 Number     Number       Type             X           Y           Z
 ---------------------------------------------------------------------
      1          8           0        0.000000    0.000000    0.000000
      2         -1           0        0.000000    0.000000   10.000000
      3          1           0        0.960788    0.000000    0.000000
      4         35           0       -0.662564   -3.188507    0.000000
      5          1           0       -0.200198   -0.963425    0.086089
 ---------------------------------------------------------------------
                    Distance matrix (angstroms):
                    1          2          3          4          5
     1  O    0.000000
     2  X   10.000000   0.000000
     3  H    0.960788  10.046050   0.000000
     4  Br   3.256620  10.516918   3.577967   0.000000
     5  H    0.987764   9.962625   1.511121   2.274244   0.000000
 Stoichiometry    BrH2O(1-)
 Framework group  C1[X(BrH2O)]
 Deg. of freedom     6
 Full point group                 C1      NOp   1
 Omega: Change in point group or standard orientation.

 Old FWG=CS   [SG(Br1H2O1)]
 New FWG=C01  [X(Br1H2O1)]
 RotChk:  IX=1 Diff= 1.97D+00
 Largest Abelian subgroup         C1      NOp   1
 Largest concise Abelian subgroup C1      NOp   1
                         Standard orientation:                         
 ---------------------------------------------------------------------
 Center     Atomic      Atomic             Coordinates (Angstroms)
 Number     Number       Type             X           Y           Z
 ---------------------------------------------------------------------
      1          8           0       -2.548384    0.104499    0.007069
      2          1           0       -2.774609   -0.829249   -0.000059
      3         35           0        0.706478   -0.002276    0.000699
      4          1           0       -1.565055    0.072928   -0.080942
 ---------------------------------------------------------------------
 Rotational constants (GHZ):         321.3934187           3.1464237           3.1161972
 Leave Link  202 at Tue Oct 19 16:10:09 2021, MaxMem= 16106127360 cpu:               0.5 elap:               0.0
 (Enter /sw/contrib/gaussian/g16/B01/g16/l301.exe)
 Standard basis: Aug-CC-pVTZ (5D, 7F)
 Ernie: Thresh=  0.10000D-02 Tol=  0.10000D-05 Strict=F.
 Ernie:  35 primitive shells out of 175 were deleted.
 There are   174 symmetry adapted cartesian basis functions of A   symmetry.
 There are   151 symmetry adapted basis functions of A   symmetry.
   151 basis functions,   343 primitive gaussians,   174 cartesian basis functions
    23 alpha electrons       23 beta electrons
       nuclear repulsion energy        67.8605776695 Hartrees.
 IExCor=    0 DFT=F Ex=HF Corr=None ExCW=0 ScaHFX=  1.000000
 ScaDFX=  1.000000  1.000000  1.000000  1.000000 ScalE2=  1.000000  1.000000
 IRadAn=      5 IRanWt=     -1 IRanGd=            0 ICorTp=0 IEmpDi=  4
 NAtoms=    4 NActive=    4 NUniq=    4 SFac= 1.00D+00 NAtFMM=   60 NAOKFM=F Big=F
 Integral buffers will be    131072 words long.
 Raffenetti 1 integral format.
 Two-electron integral symmetry is turned on.
 Leave Link  301 at Tue Oct 19 16:10:09 2021, MaxMem= 16106127360 cpu:               1.6 elap:               0.1
 (Enter /sw/contrib/gaussian/g16/B01/g16/l302.exe)
 NPDir=0 NMtPBC=     1 NCelOv=     1 NCel=       1 NClECP=     1 NCelD=      1
         NCelK=      1 NCelE2=     1 NClLst=     1 CellRange=     0.0.
 One-electron integrals computed using PRISM.
 One-electron integral symmetry used in STVInt
 NBasis=   151 RedAO= T EigKep=  2.94D-04  NBF=   151
 NBsUse=   151 1.00D-06 EigRej= -1.00D+00 NBFU=   151
 Leave Link  302 at Tue Oct 19 16:10:10 2021, MaxMem= 16106127360 cpu:               4.4 elap:               0.2
 (Enter /sw/contrib/gaussian/g16/B01/g16/l303.exe)
 DipDrv:  MaxL=1.
 Leave Link  303 at Tue Oct 19 16:10:10 2021, MaxMem= 16106127360 cpu:               1.4 elap:               0.1
 (Enter /sw/contrib/gaussian/g16/B01/g16/l401.exe)
 Initial guess from the checkpoint file:  "/gscratch/ilahie/mccoygrp/coire_hocl/oop_s_rOH_opt/brhod/brhod_oop_s.chk"
 B after Tr=    -0.000000   -0.000000   -0.000000
         Rot=    0.718610   -0.000032    0.000028   -0.695413 Ang= -88.12 deg.
 Guess basis will be translated and rotated to current coordinates.
 JPrj=2 DoOrth=T DoCkMO=T.
 Generating alternative initial guess.
 ExpMin= 2.53D-02 ExpMax= 1.06D+07 ExpMxC= 1.21D+04 IAcc=3 IRadAn=         5 AccDes= 0.00D+00
 Harris functional with IExCor=  205 and IRadAn=       5 diagonalized for initial guess.
 HarFok:  IExCor=  205 AccDes= 0.00D+00 IRadAn=         5 IDoV= 1 UseB2=F ITyADJ=14
 ICtDFT=  3500011 ScaDFX=  1.000000  1.000000  1.000000  1.000000
 FoFCou: FMM=F IPFlag=           0 FMFlag=      100000 FMFlg1=           0
         NFxFlg=           0 DoJE=T BraDBF=F KetDBF=T FulRan=T
         wScrn=  0.000000 ICntrl=       500 IOpCl=  0 I1Cent=   200000004 NGrid=           0
         NMat0=    1 NMatS0=      1 NMatT0=    0 NMatD0=    1 NMtDS0=    0 NMtDT0=    0
 Petite list used in FoFCou.
 Harris En= -2648.01666458379    
 Leave Link  401 at Tue Oct 19 16:10:10 2021, MaxMem= 16106127360 cpu:               8.7 elap:               0.4
 (Enter /sw/contrib/gaussian/g16/B01/g16/l502.exe)
 Keep R1 ints in memory in canonical form, NReq=88257573.
 FoFCou: FMM=F IPFlag=           0 FMFlag=           0 FMFlg1=           0
         NFxFlg=           0 DoJE=F BraDBF=F KetDBF=F FulRan=T
         wScrn=  0.000000 ICntrl=       600 IOpCl=  0 I1Cent=           0 NGrid=           0
         NMat0=    1 NMatS0=  11476 NMatT0=    0 NMatD0=    1 NMtDS0=    0 NMtDT0=    0
 Symmetry not used in FoFCou.
 Two-electron integral symmetry not used.
 Closed shell SCF:
 Using DIIS extrapolation, IDIIS=  1040.
 NGot= 16106127360 LenX= 16040205390 LenY= 16040174673
 Requested convergence on RMS density matrix=1.00D-08 within 128 cycles.
 Requested convergence on MAX density matrix=1.00D-06.
 Requested convergence on             energy=1.00D-06.
 No special actions if energy rises.

 Cycle   1  Pass 1  IDiag  1:
 E= -2648.60599590076    
 DIIS: error= 3.24D-03 at cycle   1 NSaved=   1.
 NSaved= 1 IEnMin= 1 EnMin= -2648.60599590076     IErMin= 1 ErrMin= 3.24D-03
 ErrMax= 3.24D-03  0.00D+00 EMaxC= 1.00D-01 BMatC= 9.72D-04 BMatP= 9.72D-04
 IDIUse=3 WtCom= 9.68D-01 WtEn= 3.24D-02
 Coeff-Com:  0.100D+01
 Coeff-En:   0.100D+01
 Coeff:      0.100D+01
 Gap=     0.605 Goal=   None    Shift=    0.000
 GapD=    0.605 DampG=2.000 DampE=1.000 DampFc=2.0000 IDamp=-1.
 RMSDP=2.28D-04 MaxDP=8.20D-03              OVMax= 1.24D-02

 Cycle   2  Pass 1  IDiag  1:
 E= -2648.60690696354     Delta-E=       -0.000911062781 Rises=F Damp=F
 DIIS: error= 8.71D-04 at cycle   2 NSaved=   2.
 NSaved= 2 IEnMin= 2 EnMin= -2648.60690696354     IErMin= 2 ErrMin= 8.71D-04
 ErrMax= 8.71D-04  0.00D+00 EMaxC= 1.00D-01 BMatC= 5.18D-05 BMatP= 9.72D-04
 IDIUse=3 WtCom= 9.91D-01 WtEn= 8.71D-03
 Coeff-Com: -0.214D+00 0.121D+01
 Coeff-En:   0.000D+00 0.100D+01
 Coeff:     -0.212D+00 0.121D+01
 Gap=     0.296 Goal=   None    Shift=    0.000
 RMSDP=6.41D-05 MaxDP=2.91D-03 DE=-9.11D-04 OVMax= 5.46D-03

 Cycle   3  Pass 1  IDiag  1:
 E= -2648.60699763966     Delta-E=       -0.000090676117 Rises=F Damp=F
 DIIS: error= 2.57D-04 at cycle   3 NSaved=   3.
 NSaved= 3 IEnMin= 3 EnMin= -2648.60699763966     IErMin= 3 ErrMin= 2.57D-04
 ErrMax= 2.57D-04  0.00D+00 EMaxC= 1.00D-01 BMatC= 2.76D-06 BMatP= 5.18D-05
 IDIUse=3 WtCom= 9.97D-01 WtEn= 2.57D-03
 Coeff-Com:  0.214D-01-0.252D+00 0.123D+01
 Coeff-En:   0.000D+00 0.000D+00 0.100D+01
 Coeff:      0.213D-01-0.251D+00 0.123D+01
 Gap=     0.296 Goal=   None    Shift=    0.000
 RMSDP=1.48D-05 MaxDP=7.17D-04 DE=-9.07D-05 OVMax= 1.82D-03

 Cycle   4  Pass 1  IDiag  1:
 E= -2648.60700427973     Delta-E=       -0.000006640067 Rises=F Damp=F
 DIIS: error= 6.11D-05 at cycle   4 NSaved=   4.
 NSaved= 4 IEnMin= 4 EnMin= -2648.60700427973     IErMin= 4 ErrMin= 6.11D-05
 ErrMax= 6.11D-05  0.00D+00 EMaxC= 1.00D-01 BMatC= 4.89D-07 BMatP= 2.76D-06
 IDIUse=1 WtCom= 1.00D+00 WtEn= 0.00D+00
 Coeff-Com:  0.225D-01-0.169D+00 0.342D+00 0.804D+00
 Coeff:      0.225D-01-0.169D+00 0.342D+00 0.804D+00
 Gap=     0.296 Goal=   None    Shift=    0.000
 RMSDP=3.77D-06 MaxDP=1.21D-04 DE=-6.64D-06 OVMax= 4.51D-04

 Cycle   5  Pass 1  IDiag  1:
 E= -2648.60700489853     Delta-E=       -0.000000618801 Rises=F Damp=F
 DIIS: error= 1.66D-05 at cycle   5 NSaved=   5.
 NSaved= 5 IEnMin= 5 EnMin= -2648.60700489853     IErMin= 5 ErrMin= 1.66D-05
 ErrMax= 1.66D-05  0.00D+00 EMaxC= 1.00D-01 BMatC= 3.29D-08 BMatP= 4.89D-07
 IDIUse=1 WtCom= 1.00D+00 WtEn= 0.00D+00
 Coeff-Com: -0.164D-02 0.199D-01-0.127D+00 0.214D-01 0.109D+01
 Coeff:     -0.164D-02 0.199D-01-0.127D+00 0.214D-01 0.109D+01
 Gap=     0.296 Goal=   None    Shift=    0.000
 RMSDP=1.65D-06 MaxDP=8.13D-05 DE=-6.19D-07 OVMax= 1.89D-04

 Cycle   6  Pass 1  IDiag  1:
 E= -2648.60700496580     Delta-E=       -0.000000067271 Rises=F Damp=F
 DIIS: error= 4.47D-06 at cycle   6 NSaved=   6.
 NSaved= 6 IEnMin= 6 EnMin= -2648.60700496580     IErMin= 6 ErrMin= 4.47D-06
 ErrMax= 4.47D-06  0.00D+00 EMaxC= 1.00D-01 BMatC= 1.81D-09 BMatP= 3.29D-08
 IDIUse=1 WtCom= 1.00D+00 WtEn= 0.00D+00
 Coeff-Com: -0.171D-02 0.137D-01-0.275D-01-0.634D-01 0.165D-01 0.106D+01
 Coeff:     -0.171D-02 0.137D-01-0.275D-01-0.634D-01 0.165D-01 0.106D+01
 Gap=     0.296 Goal=   None    Shift=    0.000
 RMSDP=4.45D-07 MaxDP=2.14D-05 DE=-6.73D-08 OVMax= 3.54D-05

 Cycle   7  Pass 1  IDiag  1:
 E= -2648.60700496974     Delta-E=       -0.000000003944 Rises=F Damp=F
 DIIS: error= 1.11D-06 at cycle   7 NSaved=   7.
 NSaved= 7 IEnMin= 7 EnMin= -2648.60700496974     IErMin= 7 ErrMin= 1.11D-06
 ErrMax= 1.11D-06  0.00D+00 EMaxC= 1.00D-01 BMatC= 1.10D-10 BMatP= 1.81D-09
 IDIUse=1 WtCom= 1.00D+00 WtEn= 0.00D+00
 Coeff-Com:  0.209D-03-0.199D-02 0.929D-02 0.304D-02-0.608D-01-0.729D-01
 Coeff-Com:  0.112D+01
 Coeff:      0.209D-03-0.199D-02 0.929D-02 0.304D-02-0.608D-01-0.729D-01
 Coeff:      0.112D+01
 Gap=     0.296 Goal=   None    Shift=    0.000
 RMSDP=1.09D-07 MaxDP=2.84D-06 DE=-3.94D-09 OVMax= 7.40D-06

 Cycle   8  Pass 1  IDiag  1:
 E= -2648.60700497003     Delta-E=       -0.000000000283 Rises=F Damp=F
 DIIS: error= 2.10D-07 at cycle   8 NSaved=   8.
 NSaved= 8 IEnMin= 8 EnMin= -2648.60700497003     IErMin= 8 ErrMin= 2.10D-07
 ErrMax= 2.10D-07  0.00D+00 EMaxC= 1.00D-01 BMatC= 8.28D-12 BMatP= 1.10D-10
 IDIUse=1 WtCom= 1.00D+00 WtEn= 0.00D+00
 Coeff-Com:  0.127D-03-0.105D-02 0.215D-02 0.449D-02-0.385D-02-0.828D-01
 Coeff-Com:  0.305D-01 0.105D+01
 Coeff:      0.127D-03-0.105D-02 0.215D-02 0.449D-02-0.385D-02-0.828D-01
 Coeff:      0.305D-01 0.105D+01
 Gap=     0.296 Goal=   None    Shift=    0.000
 RMSDP=3.16D-08 MaxDP=8.09D-07 DE=-2.83D-10 OVMax= 2.41D-06

 Cycle   9  Pass 1  IDiag  1:
 E= -2648.60700497005     Delta-E=       -0.000000000023 Rises=F Damp=F
 DIIS: error= 5.38D-08 at cycle   9 NSaved=   9.
 NSaved= 9 IEnMin= 9 EnMin= -2648.60700497005     IErMin= 9 ErrMin= 5.38D-08
 ErrMax= 5.38D-08  0.00D+00 EMaxC= 1.00D-01 BMatC= 5.22D-13 BMatP= 8.28D-12
 IDIUse=1 WtCom= 1.00D+00 WtEn= 0.00D+00
 Coeff-Com: -0.912D-05 0.936D-04-0.463D-03-0.994D-04 0.323D-02 0.379D-02
 Coeff-Com: -0.610D-01 0.249D-02 0.105D+01
 Coeff:     -0.912D-05 0.936D-04-0.463D-03-0.994D-04 0.323D-02 0.379D-02
 Coeff:     -0.610D-01 0.249D-02 0.105D+01
 Gap=     0.296 Goal=   None    Shift=    0.000
 RMSDP=8.74D-09 MaxDP=2.42D-07 DE=-2.27D-11 OVMax= 5.77D-07

 SCF Done:  E(RHF) =  -2648.60700497     A.U. after    9 cycles
            NFock=  9  Conv=0.87D-08     -V/T= 2.0000
 KE= 2.648515402307D+03 PE=-6.483636692861D+03 EE= 1.118653707914D+03
 Leave Link  502 at Tue Oct 19 16:10:12 2021, MaxMem= 16106127360 cpu:              44.9 elap:               2.4
 (Enter /sw/contrib/gaussian/g16/B01/g16/l801.exe)
 ExpMin= 2.53D-02 ExpMax= 1.06D+07 ExpMxC= 1.21D+04 IAcc=3 IRadAn=         5 AccDes= 0.00D+00
 HarFok:  IExCor=  205 AccDes= 0.00D+00 IRadAn=         5 IDoV=-2 UseB2=F ITyADJ=14
 ICtDFT= 12500011 ScaDFX=  1.000000  1.000000  1.000000  1.000000
 Largest valence mixing into a core orbital is  1.27D-04
 Largest core mixing into a valence orbital is  3.62D-05
 Range of M.O.s used for correlation:    11   151
 NBasis=   151 NAE=    23 NBE=    23 NFC=    10 NFV=     0
 NROrb=    141 NOA=    13 NOB=    13 NVA=   128 NVB=   128

 **** Warning!!: The largest alpha MO coefficient is  0.14928878D+02

 Leave Link  801 at Tue Oct 19 16:10:13 2021, MaxMem= 16106127360 cpu:               1.7 elap:               0.1
 (Enter /sw/contrib/gaussian/g16/B01/g16/l906.exe)
 Frozen-core derivative calculation, NFC=  10 NFV=   0.
 FulOut=F Deriv=T AODrv=T NAtomX=     4
   MMem=         211  MDisk=          13 MDiskD=          13
  W3Min=      604302 MinDsk=     1007783 NBas6D=         174
 NBas2D=       15618    NTT=       15225    LW2=     9911920
    MDV= 16105775001 MDiskM=      462752 NBas2p=       15545
 Fully direct method using O(ONN) memory.
 IMap=   1   2   3   4   5   6   7   8   9  10  11  12  13  14  15  16  17  18  19  20
 IMap=  21  22  23
 JobTyp=1 Pass  1:  I=  11 to  23 NPSUse= 28 ParTrn=T ParDer=T DoDerP=T.
 Spin components of T(2) and E(2):
     alpha-alpha T2 =       0.2056872208D-01 E2=     -0.6994439568D-01
     alpha-beta  T2 =       0.1089778883D+00 E2=     -0.3790473650D+00
     beta-beta   T2 =       0.2056872208D-01 E2=     -0.6994439568D-01
 The integrals were generated   1 times.
 ANorm=    0.1072434302D+01
 E2 =    -0.5189361563D+00 EUMP2 =    -0.26491259411264D+04
 Leave Link  906 at Tue Oct 19 16:10:20 2021, MaxMem= 16106127360 cpu:             212.6 elap:               7.7
 (Enter /sw/contrib/gaussian/g16/B01/g16/l1002.exe)
 Minotr:  Closed shell wavefunction.
          Computing MP2/KS-MP2 derivatives.
          Using Z-Vector for PSCF gradient.
          Skipping F1 and S1 gradient terms here.
          IDoAtm=1111
          Frozen-core window.
          Direct CPHF calculation.
          Differentiating once with respect to electric field.
                with respect to dipole field.
          Differentiating once with respect to nuclear coordinates.
          Requested convergence is 1.0D-10 RMS, and 1.0D-09 maximum.
          NewPWx=F KeepS1=T KeepF1=T KeepIn=T MapXYZ=F SortEE=F KeepMc=T.
 Keep R1 ints in memory in canonical form, NReq=88260425.
 FoFCou: FMM=F IPFlag=           0 FMFlag=           0 FMFlg1=           0
         NFxFlg=           0 DoJE=F BraDBF=F KetDBF=F FulRan=T
         wScrn=  0.000000 ICntrl=       600 IOpCl=  0 I1Cent=           0 NGrid=           0
         NMat0=    1 NMatS0=  11476 NMatT0=    0 NMatD0=    1 NMtDS0=    0 NMtDT0=    0
 Symmetry not used in FoFCou.
 Two-electron integral symmetry not used.
          MDV=   16106127360 using IRadAn=       5.
          Solving linear equations separately, MaxMat=       0.
          There are     1 degrees of freedom in the 1st order CPHF.  IDoFFX=0 NUNeed=     1.
 LinEq1:  Iter=  0 NonCon=     1 RMS=2.40D-03 Max=4.80D-02 NDo=     1
 AX will form     1 AO Fock derivatives at one time.
 LinEq1:  Iter=  1 NonCon=     1 RMS=3.98D-04 Max=5.06D-03 NDo=     1
 LinEq1:  Iter=  2 NonCon=     1 RMS=1.87D-04 Max=2.32D-03 NDo=     1
 LinEq1:  Iter=  3 NonCon=     1 RMS=5.22D-05 Max=9.93D-04 NDo=     1
 LinEq1:  Iter=  4 NonCon=     1 RMS=1.04D-05 Max=1.21D-04 NDo=     1
 LinEq1:  Iter=  5 NonCon=     1 RMS=4.57D-06 Max=5.56D-05 NDo=     1
 LinEq1:  Iter=  6 NonCon=     1 RMS=9.03D-07 Max=1.90D-05 NDo=     1
 LinEq1:  Iter=  7 NonCon=     1 RMS=2.03D-07 Max=3.23D-06 NDo=     1
 LinEq1:  Iter=  8 NonCon=     1 RMS=5.79D-08 Max=8.82D-07 NDo=     1
 LinEq1:  Iter=  9 NonCon=     1 RMS=7.57D-09 Max=1.37D-07 NDo=     1
 LinEq1:  Iter= 10 NonCon=     1 RMS=1.03D-09 Max=1.31D-08 NDo=     1
 LinEq1:  Iter= 11 NonCon=     1 RMS=3.13D-10 Max=5.33D-09 NDo=     1
 LinEq1:  Iter= 12 NonCon=     0 RMS=7.10D-11 Max=9.08D-10 NDo=     1
 Linear equations converged to 1.000D-10 1.000D-09 after    12 iterations.
 End of Minotr F.D. properties file   721 does not exist.
 End of Minotr F.D. properties file   722 does not exist.
 End of Minotr F.D. properties file   788 does not exist.
 Leave Link 1002 at Tue Oct 19 16:10:23 2021, MaxMem= 16106127360 cpu:              46.3 elap:               3.0
 (Enter /sw/contrib/gaussian/g16/B01/g16/l701.exe)
 ... and contract with generalized density number  2.
 Compute integral first derivatives.
 Leave Link  701 at Tue Oct 19 16:10:24 2021, MaxMem= 16106127360 cpu:               5.8 elap:               0.3
 (Enter /sw/contrib/gaussian/g16/B01/g16/l702.exe)
 L702 exits ... SP integral derivatives will be done elsewhere.
 Leave Link  702 at Tue Oct 19 16:10:24 2021, MaxMem= 16106127360 cpu:               0.8 elap:               0.1
 (Enter /sw/contrib/gaussian/g16/B01/g16/l703.exe)
 Integral derivatives from FoFJK, PRISM(SPDF).
 Compute integral first derivatives, UseDBF=F ICtDFT=           0.
 Calling FoFJK, ICntrl=  10002127 FMM=F ISym2X=0 I1Cent= 0 IOpClX= 0 NMat=1 NMatS=1 NMatT=0.
 FoFJK:  IHMeth= 1 ICntrl=10002127 DoSepK=F KAlg= 0 I1Cent=           0 FoldK=F
 IRaf=         0 NMat=       1 IRICut=       1 DoRegI=T DoRafI=F ISym2E= 0 IDoP0=0 IntGTp=1.
 FoFCou: FMM=F IPFlag=           0 FMFlag=      100000 FMFlg1=         800
         NFxFlg=           0 DoJE=F BraDBF=F KetDBF=F FulRan=T
         wScrn=  0.000000 ICntrl=  10002127 IOpCl=  0 I1Cent=           0 NGrid=           0
         NMat0=    1 NMatS0=      1 NMatT0=    0 NMatD0=    1 NMtDS0=    0 NMtDT0=    0
 Symmetry not used in FoFCou.
 Leave Link  703 at Tue Oct 19 16:10:25 2021, MaxMem= 16106127360 cpu:              36.8 elap:               1.3
 (Enter /sw/contrib/gaussian/g16/B01/g16/l716.exe)
 Dipole        =-2.85742425D-01-5.33467781D-01-3.20535666D-02
 ***** Axes restored to original set *****
 -------------------------------------------------------------------
 Center     Atomic                   Forces (Hartrees/Bohr)
 Number     Number              X              Y              Z
 -------------------------------------------------------------------
      1        8           0.002205780   -0.000536880    0.002411400
      2        1           0.000041418    0.000035671   -0.000300529
      3       35           0.000957040   -0.000219696    0.000886076
      4        1          -0.003204239    0.000720905   -0.002996948
 -------------------------------------------------------------------
 Cartesian Forces:  Max     0.003204239 RMS     0.001647719
 -----------------------------------------------------------------------------------------------
                       Internal Coordinate Forces (Hartree/Bohr or radian)
  Cent   Atom   N1       Length/X         N2         Alpha/Y        N3         Beta/Z          J
 -----------------------------------------------------------------------------------------------
      1  O 
         X        1   0.000000(     1)
      2  H        1   0.000041(     2)      2   0.000546(     5)
      3  Br       1   0.000020(     3)      2  -0.005453(     6)      3  -0.006042(     8)     0
      4  H        1  -0.000315(     4)      2   0.005564(     7)      3   0.006106(     9)     0
 -----------------------------------------------------------------------------------------------
 Internal  Forces:  Max     0.006106400 RMS     0.003871299
 Leave Link  716 at Tue Oct 19 16:10:25 2021, MaxMem= 16106127360 cpu:               1.0 elap:               0.1
 (Enter /sw/contrib/gaussian/g16/B01/g16/l103.exe)

 GradGradGradGradGradGradGradGradGradGradGradGradGradGradGradGradGradGrad
 Berny optimization.
 Search for a local minimum.
 Step number   1 out of a maximum of   20 on scan point     2 out of    11
 All quantities printed in internal units (Hartrees-Bohrs-Radians)
 Second derivative matrix not updated -- first step.
 The second derivative matrix:
                          r1        r2        r3        a1        OOP
           r1           0.55304
           r2          -0.00000   0.01690
           r3           0.00000   0.00000   0.49906
           a1          -0.00000  -0.00000  -0.00000   0.32000
           OOP          0.00000  -0.00000  -0.00000  -0.00000   0.16000
 ITU=  0
     Eigenvalues ---    0.499061000.000001000.000001000.000001000.00000
 RFO step:  Lambda=-1.98717903D-07 EMin= 4.99058736D-01
 Linear search not attempted -- first point.
 Variable       Old X    -DE/DX   Delta X   Delta X   Delta X     New X
                                 (Linear)    (Quad)   (Total)
    r1        1.81563   0.00004   0.00000   0.00000   0.00000   1.81563
    r2        6.15412   0.00002   0.00000   0.00000   0.00000   6.15412
    r3        1.86660  -0.00031   0.00000  -0.00063  -0.00063   1.86597
    a1        1.77568   0.00006   0.00000   0.00000   0.00000   1.77568
   OOP        1.48353   0.00556   0.00000   0.00000   0.00000   1.48353
         Item               Value     Threshold  Converged?
 Maximum Force            0.000315     0.000450     YES
 RMS     Force            0.000315     0.000300     NO 
 Maximum Displacement     0.000631     0.001800     YES
 RMS     Displacement     0.000282     0.001200     YES
 Predicted change in Energy=-9.935895D-08
 Lowest energy point so far.  Saving SCF results.
 GradGradGradGradGradGradGradGradGradGradGradGradGradGradGradGradGradGrad

 Leave Link  103 at Tue Oct 19 16:10:25 2021, MaxMem= 16106127360 cpu:               1.1 elap:               0.1
 (Enter /sw/contrib/gaussian/g16/B01/g16/l202.exe)
 ---------------------------------------------------------------------------------------------------
                            Z-MATRIX (ANGSTROMS AND DEGREES)
   CD    Cent   Atom    N1       Length/X        N2       Alpha/Y        N3        Beta/Z          J
 ---------------------------------------------------------------------------------------------------
      1      1  O 
      2         X        1  10.000000(     1)
      3      2  H        1   0.960788(     2)      2   90.000(     5)
      4      3  Br       1   3.256620(     3)      2   90.000(     6)      3  101.739(     8)      0
      5      4  H        1   0.987430(     4)      2   85.000(     7)      3  101.739(     9)      0
 ---------------------------------------------------------------------------------------------------
                         Z-Matrix orientation:                         
 ---------------------------------------------------------------------
 Center     Atomic      Atomic             Coordinates (Angstroms)
 Number     Number       Type             X           Y           Z
 ---------------------------------------------------------------------
      1          8           0        0.000000    0.000000    0.000000
      2         -1           0        0.000000    0.000000   10.000000
      3          1           0        0.960788    0.000000    0.000000
      4         35           0       -0.662564   -3.188507    0.000000
      5          1           0       -0.200130   -0.963099    0.086060
 ---------------------------------------------------------------------
                    Distance matrix (angstroms):
                    1          2          3          4          5
     1  O    0.000000
     2  X   10.000000   0.000000
     3  H    0.960788  10.046050   0.000000
     4  Br   3.256620  10.516918   3.577967   0.000000
     5  H    0.987430   9.962621   1.510859   2.274575   0.000000
 Stoichiometry    BrH2O(1-)
 Framework group  C1[X(BrH2O)]
 Deg. of freedom     6
 Full point group                 C1      NOp   1
 RotChk:  IX=1 Diff= 2.52D-06
 Largest Abelian subgroup         C1      NOp   1
 Largest concise Abelian subgroup C1      NOp   1
                         Standard orientation:                         
 ---------------------------------------------------------------------
 Center     Atomic      Atomic             Coordinates (Angstroms)
 Number     Number       Type             X           Y           Z
 ---------------------------------------------------------------------
      1          8           0       -2.548377    0.104497    0.007068
      2          1           0       -2.774601   -0.829251   -0.000059
      3         35           0        0.706486   -0.002276    0.000698
      4          1           0       -1.565380    0.072938   -0.080914
 ---------------------------------------------------------------------
 Rotational constants (GHZ):         321.3940875           3.1464022           3.1161759
 Leave Link  202 at Tue Oct 19 16:10:25 2021, MaxMem= 16106127360 cpu:               0.8 elap:               0.1
 (Enter /sw/contrib/gaussian/g16/B01/g16/l301.exe)
 Standard basis: Aug-CC-pVTZ (5D, 7F)
 Ernie: Thresh=  0.10000D-02 Tol=  0.10000D-05 Strict=F.
 Ernie:  35 primitive shells out of 175 were deleted.
 There are   174 symmetry adapted cartesian basis functions of A   symmetry.
 There are   151 symmetry adapted basis functions of A   symmetry.
   151 basis functions,   343 primitive gaussians,   174 cartesian basis functions
    23 alpha electrons       23 beta electrons
       nuclear repulsion energy        67.8609013614 Hartrees.
 IExCor=    0 DFT=F Ex=HF Corr=None ExCW=0 ScaHFX=  1.000000
 ScaDFX=  1.000000  1.000000  1.000000  1.000000 ScalE2=  1.000000  1.000000
 IRadAn=      5 IRanWt=     -1 IRanGd=            0 ICorTp=0 IEmpDi=  4
 NAtoms=    4 NActive=    4 NUniq=    4 SFac= 1.00D+00 NAtFMM=   60 NAOKFM=F Big=F
 Integral buffers will be    131072 words long.
 Raffenetti 1 integral format.
 Two-electron integral symmetry is turned on.
 Leave Link  301 at Tue Oct 19 16:10:25 2021, MaxMem= 16106127360 cpu:               2.9 elap:               0.1
 (Enter /sw/contrib/gaussian/g16/B01/g16/l302.exe)
 NPDir=0 NMtPBC=     1 NCelOv=     1 NCel=       1 NClECP=     1 NCelD=      1
         NCelK=      1 NCelE2=     1 NClLst=     1 CellRange=     0.0.
 One-electron integrals computed using PRISM.
 One-electron integral symmetry used in STVInt
 NBasis=   151 RedAO= T EigKep=  2.94D-04  NBF=   151
 NBsUse=   151 1.00D-06 EigRej= -1.00D+00 NBFU=   151
 Leave Link  302 at Tue Oct 19 16:10:25 2021, MaxMem= 16106127360 cpu:               3.9 elap:               0.2
 (Enter /sw/contrib/gaussian/g16/B01/g16/l303.exe)
 DipDrv:  MaxL=1.
 Leave Link  303 at Tue Oct 19 16:10:26 2021, MaxMem= 16106127360 cpu:               2.4 elap:               0.1
 (Enter /sw/contrib/gaussian/g16/B01/g16/l401.exe)
 Initial guess from the checkpoint file:  "/gscratch/ilahie/mccoygrp/coire_hocl/oop_s_rOH_opt/brhod/brhod_oop_s.chk"
 B after Tr=    -0.000000    0.000000    0.000000
         Rot=    1.000000   -0.000001   -0.000000   -0.000000 Ang=  -0.00 deg.
 Guess basis will be translated and rotated to current coordinates.
 JPrj=2 DoOrth=T DoCkMO=T.
 Leave Link  401 at Tue Oct 19 16:10:26 2021, MaxMem= 16106127360 cpu:               2.8 elap:               0.1
 (Enter /sw/contrib/gaussian/g16/B01/g16/l502.exe)
 Keep R1 ints in memory in canonical form, NReq=88257573.
 FoFCou: FMM=F IPFlag=           0 FMFlag=           0 FMFlg1=           0
         NFxFlg=           0 DoJE=F BraDBF=F KetDBF=F FulRan=T
         wScrn=  0.000000 ICntrl=       600 IOpCl=  0 I1Cent=           0 NGrid=           0
         NMat0=    1 NMatS0=  11476 NMatT0=    0 NMatD0=    1 NMtDS0=    0 NMtDT0=    0
 Symmetry not used in FoFCou.
 Two-electron integral symmetry not used.
 Closed shell SCF:
 Using DIIS extrapolation, IDIIS=  1040.
 NGot= 16106127360 LenX= 16040205390 LenY= 16040174673
 Requested convergence on RMS density matrix=1.00D-08 within 128 cycles.
 Requested convergence on MAX density matrix=1.00D-06.
 Requested convergence on             energy=1.00D-06.
 No special actions if energy rises.

 Cycle   1  Pass 1  IDiag  1:
 E= -2648.60702275710    
 DIIS: error= 1.86D-05 at cycle   1 NSaved=   1.
 NSaved= 1 IEnMin= 1 EnMin= -2648.60702275710     IErMin= 1 ErrMin= 1.86D-05
 ErrMax= 1.86D-05  0.00D+00 EMaxC= 1.00D-01 BMatC= 4.96D-08 BMatP= 4.96D-08
 IDIUse=1 WtCom= 1.00D+00 WtEn= 0.00D+00
 Coeff-Com:  0.100D+01
 Coeff:      0.100D+01
 Gap=     0.605 Goal=   None    Shift=    0.000
 RMSDP=1.88D-06 MaxDP=7.01D-05              OVMax= 5.67D-05

 Cycle   2  Pass 1  IDiag  1:
 E= -2648.60702279325     Delta-E=       -0.000000036143 Rises=F Damp=F
 DIIS: error= 3.62D-06 at cycle   2 NSaved=   2.
 NSaved= 2 IEnMin= 2 EnMin= -2648.60702279325     IErMin= 2 ErrMin= 3.62D-06
 ErrMax= 3.62D-06  0.00D+00 EMaxC= 1.00D-01 BMatC= 2.95D-09 BMatP= 4.96D-08
 IDIUse=1 WtCom= 1.00D+00 WtEn= 0.00D+00
 Coeff-Com:  0.123D-01 0.988D+00
 Coeff:      0.123D-01 0.988D+00
 Gap=     0.296 Goal=   None    Shift=    0.000
 RMSDP=3.34D-07 MaxDP=1.10D-05 DE=-3.61D-08 OVMax= 1.90D-05

 Cycle   3  Pass 1  IDiag  1:
 E= -2648.60702279549     Delta-E=       -0.000000002243 Rises=F Damp=F
 DIIS: error= 2.04D-06 at cycle   3 NSaved=   3.
 NSaved= 3 IEnMin= 3 EnMin= -2648.60702279549     IErMin= 3 ErrMin= 2.04D-06
 ErrMax= 2.04D-06  0.00D+00 EMaxC= 1.00D-01 BMatC= 6.96D-10 BMatP= 2.95D-09
 IDIUse=1 WtCom= 1.00D+00 WtEn= 0.00D+00
 Coeff-Com: -0.503D-01 0.288D+00 0.762D+00
 Coeff:     -0.503D-01 0.288D+00 0.762D+00
 Gap=     0.296 Goal=   None    Shift=    0.000
 RMSDP=1.06D-07 MaxDP=3.17D-06 DE=-2.24D-09 OVMax= 7.22D-06

 Cycle   4  Pass 1  IDiag  1:
 E= -2648.60702279602     Delta-E=       -0.000000000529 Rises=F Damp=F
 DIIS: error= 4.65D-07 at cycle   4 NSaved=   4.
 NSaved= 4 IEnMin= 4 EnMin= -2648.60702279602     IErMin= 4 ErrMin= 4.65D-07
 ErrMax= 4.65D-07  0.00D+00 EMaxC= 1.00D-01 BMatC= 2.60D-11 BMatP= 6.96D-10
 IDIUse=1 WtCom= 1.00D+00 WtEn= 0.00D+00
 Coeff-Com: -0.406D-02-0.481D-01 0.664D-01 0.986D+00
 Coeff:     -0.406D-02-0.481D-01 0.664D-01 0.986D+00
 Gap=     0.296 Goal=   None    Shift=    0.000
 RMSDP=3.71D-08 MaxDP=1.04D-06 DE=-5.29D-10 OVMax= 2.58D-06

 Cycle   5  Pass 1  IDiag  1:
 E= -2648.60702279607     Delta-E=       -0.000000000049 Rises=F Damp=F
 DIIS: error= 1.25D-07 at cycle   5 NSaved=   5.
 NSaved= 5 IEnMin= 5 EnMin= -2648.60702279607     IErMin= 5 ErrMin= 1.25D-07
 ErrMax= 1.25D-07  0.00D+00 EMaxC= 1.00D-01 BMatC= 1.11D-12 BMatP= 2.60D-11
 IDIUse=1 WtCom= 1.00D+00 WtEn= 0.00D+00
 Coeff-Com:  0.310D-02-0.122D-01-0.514D-01-0.118D+00 0.118D+01
 Coeff:      0.310D-02-0.122D-01-0.514D-01-0.118D+00 0.118D+01
 Gap=     0.296 Goal=   None    Shift=    0.000
 RMSDP=1.34D-08 MaxDP=3.72D-07 DE=-4.91D-11 OVMax= 1.01D-06

 Cycle   6  Pass 1  IDiag  1:
 E= -2648.60702279607     Delta-E=        0.000000000003 Rises=F Damp=F
 DIIS: error= 2.07D-08 at cycle   6 NSaved=   6.
 NSaved= 6 IEnMin= 5 EnMin= -2648.60702279607     IErMin= 6 ErrMin= 2.07D-08
 ErrMax= 2.07D-08  0.00D+00 EMaxC= 1.00D-01 BMatC= 5.38D-14 BMatP= 1.11D-12
 IDIUse=1 WtCom= 1.00D+00 WtEn= 0.00D+00
 Coeff-Com: -0.552D-03 0.429D-02 0.836D-02-0.745D-02-0.256D+00 0.125D+01
 Coeff:     -0.552D-03 0.429D-02 0.836D-02-0.745D-02-0.256D+00 0.125D+01
 Gap=     0.296 Goal=   None    Shift=    0.000
 RMSDP=3.41D-09 MaxDP=9.92D-08 DE= 2.73D-12 OVMax= 2.04D-07

 SCF Done:  E(RHF) =  -2648.60702280     A.U. after    6 cycles
            NFock=  6  Conv=0.34D-08     -V/T= 2.0000
 KE= 2.648515947474D+03 PE=-6.483637917102D+03 EE= 1.118654045471D+03
 Leave Link  502 at Tue Oct 19 16:10:27 2021, MaxMem= 16106127360 cpu:              32.3 elap:               1.7
 (Enter /sw/contrib/gaussian/g16/B01/g16/l801.exe)
 ExpMin= 2.53D-02 ExpMax= 1.06D+07 ExpMxC= 1.21D+04 IAcc=3 IRadAn=         5 AccDes= 0.00D+00
 HarFok:  IExCor=  205 AccDes= 0.00D+00 IRadAn=         5 IDoV=-2 UseB2=F ITyADJ=14
 ICtDFT= 12500011 ScaDFX=  1.000000  1.000000  1.000000  1.000000
 Largest valence mixing into a core orbital is  1.27D-04
 Largest core mixing into a valence orbital is  3.62D-05
 Range of M.O.s used for correlation:    11   151
 NBasis=   151 NAE=    23 NBE=    23 NFC=    10 NFV=     0
 NROrb=    141 NOA=    13 NOB=    13 NVA=   128 NVB=   128

 **** Warning!!: The largest alpha MO coefficient is  0.14944219D+02

 Leave Link  801 at Tue Oct 19 16:10:28 2021, MaxMem= 16106127360 cpu:               1.9 elap:               0.1
 (Enter /sw/contrib/gaussian/g16/B01/g16/l906.exe)
 Frozen-core derivative calculation, NFC=  10 NFV=   0.
 FulOut=F Deriv=T AODrv=T NAtomX=     4
   MMem=         211  MDisk=          13 MDiskD=          13
  W3Min=      604302 MinDsk=     1007783 NBas6D=         174
 NBas2D=       15618    NTT=       15225    LW2=     9911920
    MDV= 16105775001 MDiskM=      462752 NBas2p=       15545
 Fully direct method using O(ONN) memory.
 IMap=   1   2   3   4   5   6   7   8   9  10  11  12  13  14  15  16  17  18  19  20
 IMap=  21  22  23
 JobTyp=1 Pass  1:  I=  11 to  23 NPSUse= 28 ParTrn=T ParDer=T DoDerP=T.
 Spin components of T(2) and E(2):
     alpha-alpha T2 =       0.2056689403D-01 E2=     -0.6994161179D-01
     alpha-beta  T2 =       0.1089687958D+00 E2=     -0.3790352294D+00
     beta-beta   T2 =       0.2056689403D-01 E2=     -0.6994161179D-01
 The integrals were generated   1 times.
 ANorm=    0.1072428358D+01
 E2 =    -0.5189184530D+00 EUMP2 =    -0.26491259412490D+04
 Leave Link  906 at Tue Oct 19 16:10:35 2021, MaxMem= 16106127360 cpu:             210.0 elap:               7.6
 (Enter /sw/contrib/gaussian/g16/B01/g16/l1002.exe)
 Minotr:  Closed shell wavefunction.
          Computing MP2/KS-MP2 derivatives.
          Using Z-Vector for PSCF gradient.
          Skipping F1 and S1 gradient terms here.
          IDoAtm=1111
          Frozen-core window.
          Direct CPHF calculation.
          Differentiating once with respect to electric field.
                with respect to dipole field.
          Differentiating once with respect to nuclear coordinates.
          Requested convergence is 1.0D-10 RMS, and 1.0D-09 maximum.
          NewPWx=F KeepS1=T KeepF1=T KeepIn=T MapXYZ=F SortEE=F KeepMc=T.
 Keep R1 ints in memory in canonical form, NReq=88260425.
 FoFCou: FMM=F IPFlag=           0 FMFlag=           0 FMFlg1=           0
         NFxFlg=           0 DoJE=F BraDBF=F KetDBF=F FulRan=T
         wScrn=  0.000000 ICntrl=       600 IOpCl=  0 I1Cent=           0 NGrid=           0
         NMat0=    1 NMatS0=  11476 NMatT0=    0 NMatD0=    1 NMtDS0=    0 NMtDT0=    0
 Symmetry not used in FoFCou.
 Two-electron integral symmetry not used.
          MDV=   16106127360 using IRadAn=       5.
          Solving linear equations separately, MaxMat=       0.
          There are     1 degrees of freedom in the 1st order CPHF.  IDoFFX=0 NUNeed=     1.
 LinEq1:  Iter=  0 NonCon=     1 RMS=2.40D-03 Max=4.79D-02 NDo=     1
 AX will form     1 AO Fock derivatives at one time.
 LinEq1:  Iter=  1 NonCon=     1 RMS=3.98D-04 Max=5.06D-03 NDo=     1
 LinEq1:  Iter=  2 NonCon=     1 RMS=1.87D-04 Max=2.32D-03 NDo=     1
 LinEq1:  Iter=  3 NonCon=     1 RMS=5.22D-05 Max=9.92D-04 NDo=     1
 LinEq1:  Iter=  4 NonCon=     1 RMS=1.04D-05 Max=1.21D-04 NDo=     1
 LinEq1:  Iter=  5 NonCon=     1 RMS=4.57D-06 Max=5.56D-05 NDo=     1
 LinEq1:  Iter=  6 NonCon=     1 RMS=9.03D-07 Max=1.90D-05 NDo=     1
 LinEq1:  Iter=  7 NonCon=     1 RMS=2.03D-07 Max=3.23D-06 NDo=     1
 LinEq1:  Iter=  8 NonCon=     1 RMS=5.79D-08 Max=8.81D-07 NDo=     1
 LinEq1:  Iter=  9 NonCon=     1 RMS=7.57D-09 Max=1.36D-07 NDo=     1
 LinEq1:  Iter= 10 NonCon=     1 RMS=1.03D-09 Max=1.30D-08 NDo=     1
 LinEq1:  Iter= 11 NonCon=     1 RMS=3.13D-10 Max=5.33D-09 NDo=     1
 LinEq1:  Iter= 12 NonCon=     0 RMS=7.10D-11 Max=9.07D-10 NDo=     1
 Linear equations converged to 1.000D-10 1.000D-09 after    12 iterations.
 End of Minotr F.D. properties file   721 does not exist.
 End of Minotr F.D. properties file   722 does not exist.
 End of Minotr F.D. properties file   788 does not exist.
 Leave Link 1002 at Tue Oct 19 16:10:38 2021, MaxMem= 16106127360 cpu:              38.6 elap:               2.7
 (Enter /sw/contrib/gaussian/g16/B01/g16/l701.exe)
 ... and contract with generalized density number  2.
 Compute integral first derivatives.
 Leave Link  701 at Tue Oct 19 16:10:38 2021, MaxMem= 16106127360 cpu:               5.3 elap:               0.2
 (Enter /sw/contrib/gaussian/g16/B01/g16/l702.exe)
 L702 exits ... SP integral derivatives will be done elsewhere.
 Leave Link  702 at Tue Oct 19 16:10:38 2021, MaxMem= 16106127360 cpu:               1.7 elap:               0.1
 (Enter /sw/contrib/gaussian/g16/B01/g16/l703.exe)
 Integral derivatives from FoFJK, PRISM(SPDF).
 Compute integral first derivatives, UseDBF=F ICtDFT=           0.
 Calling FoFJK, ICntrl=  10002127 FMM=F ISym2X=0 I1Cent= 0 IOpClX= 0 NMat=1 NMatS=1 NMatT=0.
 FoFJK:  IHMeth= 1 ICntrl=10002127 DoSepK=F KAlg= 0 I1Cent=           0 FoldK=F
 IRaf=         0 NMat=       1 IRICut=       1 DoRegI=T DoRafI=F ISym2E= 0 IDoP0=0 IntGTp=1.
 FoFCou: FMM=F IPFlag=           0 FMFlag=      100000 FMFlg1=         800
         NFxFlg=           0 DoJE=F BraDBF=F KetDBF=F FulRan=T
         wScrn=  0.000000 ICntrl=  10002127 IOpCl=  0 I1Cent=           0 NGrid=           0
         NMat0=    1 NMatS0=      1 NMatT0=    0 NMatD0=    1 NMtDS0=    0 NMtDT0=    0
 Symmetry not used in FoFCou.
 Leave Link  703 at Tue Oct 19 16:10:39 2021, MaxMem= 16106127360 cpu:              36.4 elap:               1.3
 (Enter /sw/contrib/gaussian/g16/B01/g16/l716.exe)
 Dipole        =-2.86426068D-01-5.33488613D-01-3.20529598D-02
 ***** Axes restored to original set *****
 -------------------------------------------------------------------
[...]
          NewPWx=F KeepS1=T KeepF1=T KeepIn=T MapXYZ=F SortEE=F KeepMc=T.
 Keep R1 ints in memory in canonical form, NReq=88259545.
 FoFCou: FMM=F IPFlag=           0 FMFlag=           0 FMFlg1=           0
         NFxFlg=           0 DoJE=F BraDBF=F KetDBF=F FulRan=T
         wScrn=  0.000000 ICntrl=       600 IOpCl=  0 I1Cent=           0 NGrid=           0
         NMat0=    1 NMatS0=  11476 NMatT0=    0 NMatD0=    1 NMtDS0=    0 NMtDT0=    0
 Symmetry not used in FoFCou.
 Two-electron integral symmetry not used.
          MDV=   16106127360 using IRadAn=       5.
          Solving linear equations separately, MaxMat=       0.
          There are     1 degrees of freedom in the 1st order CPHF.  IDoFFX=0 NUNeed=     1.
 LinEq1:  Iter=  0 NonCon=     1 RMS=2.38D-03 Max=3.12D-02 NDo=     1
 AX will form     1 AO Fock derivatives at one time.
 LinEq1:  Iter=  1 NonCon=     1 RMS=4.02D-04 Max=4.09D-03 NDo=     1
 LinEq1:  Iter=  2 NonCon=     1 RMS=1.96D-04 Max=2.34D-03 NDo=     1
 LinEq1:  Iter=  3 NonCon=     1 RMS=5.27D-05 Max=7.96D-04 NDo=     1
 LinEq1:  Iter=  4 NonCon=     1 RMS=1.01D-05 Max=1.14D-04 NDo=     1
 LinEq1:  Iter=  5 NonCon=     1 RMS=4.86D-06 Max=5.79D-05 NDo=     1
 LinEq1:  Iter=  6 NonCon=     1 RMS=1.15D-06 Max=1.36D-05 NDo=     1
 LinEq1:  Iter=  7 NonCon=     1 RMS=2.19D-07 Max=1.90D-06 NDo=     1
 LinEq1:  Iter=  8 NonCon=     1 RMS=6.16D-08 Max=5.99D-07 NDo=     1
 LinEq1:  Iter=  9 NonCon=     1 RMS=1.11D-08 Max=1.46D-07 NDo=     1
 LinEq1:  Iter= 10 NonCon=     1 RMS=1.69D-09 Max=1.73D-08 NDo=     1
 LinEq1:  Iter= 11 NonCon=     1 RMS=3.36D-10 Max=3.14D-09 NDo=     1
 LinEq1:  Iter= 12 NonCon=     0 RMS=7.89D-11 Max=9.04D-10 NDo=     1
 Linear equations converged to 1.000D-10 1.000D-09 after    12 iterations.
 End of Minotr F.D. properties file   721 does not exist.
 End of Minotr F.D. properties file   722 does not exist.
 End of Minotr F.D. properties file   788 does not exist.
 Leave Link 1002 at Tue Oct 19 16:15:04 2021, MaxMem= 16106127360 cpu:              36.1 elap:               3.0
 (Enter /sw/contrib/gaussian/g16/B01/g16/l701.exe)
 ... and contract with generalized density number  2.
 Compute integral first derivatives.
 Leave Link  701 at Tue Oct 19 16:15:04 2021, MaxMem= 16106127360 cpu:               5.1 elap:               0.2
 (Enter /sw/contrib/gaussian/g16/B01/g16/l702.exe)
 L702 exits ... SP integral derivatives will be done elsewhere.
 Leave Link  702 at Tue Oct 19 16:15:04 2021, MaxMem= 16106127360 cpu:               0.5 elap:               0.0
 (Enter /sw/contrib/gaussian/g16/B01/g16/l703.exe)
 Integral derivatives from FoFJK, PRISM(SPDF).
 Compute integral first derivatives, UseDBF=F ICtDFT=           0.
 Calling FoFJK, ICntrl=  10002127 FMM=F ISym2X=0 I1Cent= 0 IOpClX= 0 NMat=1 NMatS=1 NMatT=0.
 FoFJK:  IHMeth= 1 ICntrl=10002127 DoSepK=F KAlg= 0 I1Cent=           0 FoldK=F
 IRaf=         0 NMat=       1 IRICut=       1 DoRegI=T DoRafI=F ISym2E= 0 IDoP0=0 IntGTp=1.
 FoFCou: FMM=F IPFlag=           0 FMFlag=      100000 FMFlg1=         800
         NFxFlg=           0 DoJE=F BraDBF=F KetDBF=F FulRan=T
         wScrn=  0.000000 ICntrl=  10002127 IOpCl=  0 I1Cent=           0 NGrid=           0
         NMat0=    1 NMatS0=      1 NMatT0=    0 NMatD0=    1 NMtDS0=    0 NMtDT0=    0
 Symmetry not used in FoFCou.
 Leave Link  703 at Tue Oct 19 16:15:05 2021, MaxMem= 16106127360 cpu:              36.8 elap:               1.3
 (Enter /sw/contrib/gaussian/g16/B01/g16/l716.exe)
 Dipole        =-8.39447601D-01-4.35606321D-01-4.08777294D-01
 ***** Axes restored to original set *****
 -------------------------------------------------------------------
 Center     Atomic                   Forces (Hartrees/Bohr)
 Number     Number              X              Y              Z
 -------------------------------------------------------------------
      1        8           0.008375616    0.009828515    0.013629972
      2        1           0.003177722    0.002434742   -0.007909150
      3       35           0.000633260   -0.002844306    0.004068091
      4        1          -0.012186598   -0.009418951   -0.009788914
 -------------------------------------------------------------------
 Cartesian Forces:  Max     0.013629972 RMS     0.008109667
 -----------------------------------------------------------------------------------------------
                       Internal Coordinate Forces (Hartree/Bohr or radian)
  Cent   Atom   N1       Length/X         N2         Alpha/Y        N3         Beta/Z          J
 -----------------------------------------------------------------------------------------------
      1  O 
         X        1   0.000000(     1)
      2  H        1   0.003178(     2)      2   0.014360(     5)
      3  Br       1   0.002656(     3)      2  -0.025036(     6)      3  -0.007377(     8)     0
      4  H        1   0.000023(     4)      2   0.027957(     7)      3   0.011797(     9)     0
 -----------------------------------------------------------------------------------------------
 Internal  Forces:  Max     0.027957074 RMS     0.014241326
 Leave Link  716 at Tue Oct 19 16:15:05 2021, MaxMem= 16106127360 cpu:               0.8 elap:               0.1
 (Enter /sw/contrib/gaussian/g16/B01/g16/l103.exe)

 GradGradGradGradGradGradGradGradGradGradGradGradGradGradGradGradGradGrad
 Berny optimization.
 Search for a local minimum.
 Step number   2 out of a maximum of   20 on scan point    11 out of    11
 All quantities printed in internal units (Hartrees-Bohrs-Radians)
 Update second derivatives using D2CorN and points    1    2
 DE= -1.76D-06 DEPred=-1.78D-06 R= 9.86D-01
 TightC=F SS=  1.41D+00  RLast= 2.68D-03 DXNew= 5.0454D-01 8.0383D-03
 Trust test= 9.86D-01 RLast= 2.68D-03 DXMaxT set to 3.00D-01
 The second derivative matrix:
                          r1        r2        r3        a1        OOP
           r1           0.55304
           r2          -0.00000   0.01690
           r3          -0.00514   0.00135   0.50493
           a1          -0.00000  -0.00000   0.02020   0.32000
           OOP          0.00000  -0.00000  -0.01673  -0.00000   0.16000
 ITU=  1  0
     Eigenvalues ---    0.504931000.000001000.000001000.000001000.00000
 RFO step:  Lambda= 0.00000000D+00 EMin= 5.04926988D-01
 Quartic linear search produced a step of -0.01666.
 Variable       Old X    -DE/DX   Delta X   Delta X   Delta X     New X
                                 (Linear)    (Quad)   (Total)
    r1        1.81563   0.00318   0.00000   0.00000   0.00000   1.81563
    r2        6.15412   0.00266   0.00000   0.00000   0.00000   6.15412
    r3        1.83254   0.00002   0.00004   0.00000   0.00004   1.83258
    a1        1.77568   0.00442   0.00000   0.00000   0.00000   1.77568
   OOP        0.69813   0.02796   0.00000   0.00000   0.00000   0.69813
         Item               Value     Threshold  Converged?
 Maximum Force            0.000023     0.000450     YES
 RMS     Force            0.000023     0.000300     YES
 Maximum Displacement     0.000045     0.001800     YES
 RMS     Displacement     0.000020     0.001200     YES
 Predicted change in Energy=-5.116100D-10
 Optimization completed.
    -- Stationary point found.
                       ----------------------------
                       !   Optimized Parameters   !
                       ! (Angstroms and Degrees)  !
 ----------------------                            ----------------------
 !      Name          Value   Derivative information (Atomic Units)     !
 ------------------------------------------------------------------------
 !       r1          0.9608   -DE/DX =    0.0032                        !
 !       r2          3.2566   -DE/DX =    0.0027                        !
 !       r3          0.9697   -DE/DX =    0.0                           !
 !       a1        101.7389   -DE/DX =    0.0044                        !
 !       OOP        40.0      -DE/DX =    0.028                         !
 ------------------------------------------------------------------------
 Lowest energy point so far.  Saving SCF results.
 Summary of Optimized Potential Surface Scan (add -2649.0 to energies):
                           1         2         3         4         5
     Eigenvalues --    -0.12619  -0.12594  -0.12522  -0.12407  -0.12254
           r1           0.96079   0.96079   0.96079   0.96079   0.96079
           r2           3.25662   3.25662   3.25662   3.25662   3.25662
           r3           0.98776   0.98743   0.98642   0.98443   0.98224
           a1         101.73887 101.73887 101.73887 101.73887 101.73887
           OOP         90.00000  85.00000  80.00000  75.00000  70.00000
                           6         7         8         9        10
     Eigenvalues --    -0.12069  -0.11859  -0.11632  -0.11393  -0.11149
           r1           0.96079   0.96079   0.96079   0.96079   0.96079
           r2           3.25662   3.25662   3.25662   3.25662   3.25662
           r3           0.97982   0.97736   0.97503   0.97293   0.97115
           a1         101.73887 101.73887 101.73887 101.73887 101.73887
           OOP         65.00000  60.00000  55.00000  50.00000  45.00000
                          11
     Eigenvalues --    -0.10904
           r1           0.96079
           r2           3.25662
           r3           0.96974
           a1         101.73887
           OOP         40.00000
 Largest change from initial coordinates is atom    2       2.454 Angstoms.
 GradGradGradGradGradGradGradGradGradGradGradGradGradGradGradGradGradGrad

 Leave Link  103 at Tue Oct 19 16:15:05 2021, MaxMem= 16106127360 cpu:               0.5 elap:               0.0
 (Enter /sw/contrib/gaussian/g16/B01/g16/l202.exe)
 ---------------------------------------------------------------------------------------------------
                            Z-MATRIX (ANGSTROMS AND DEGREES)
   CD    Cent   Atom    N1       Length/X        N2       Alpha/Y        N3        Beta/Z          J
 ---------------------------------------------------------------------------------------------------
      1      1  O 
      2         X        1  10.000000(     1)
      3      2  H        1   0.960788(     2)      2   90.000(     5)
      4      3  Br       1   3.256620(     3)      2   90.000(     6)      3  101.739(     8)      0
      5      4  H        1   0.969737(     4)      2   40.000(     7)      3  101.739(     9)      0
 ---------------------------------------------------------------------------------------------------
                         Z-Matrix orientation:                         
 ---------------------------------------------------------------------
 Center     Atomic      Atomic             Coordinates (Angstroms)
 Number     Number       Type             X           Y           Z
 ---------------------------------------------------------------------
      1          8           0        0.000000    0.000000    0.000000
      2         -1           0        0.000000    0.000000   10.000000
      3          1           0        0.960788    0.000000    0.000000
      4         35           0       -0.662564   -3.188507    0.000000
      5          1           0       -0.126818   -0.610298    0.742862
 ---------------------------------------------------------------------
                    Distance matrix (angstroms):
                    1          2          3          4          5
     1  O    0.000000
     2  X   10.000000   0.000000
     3  H    0.960788  10.046050   0.000000
     4  Br   3.256620  10.516918   3.577967   0.000000
     5  H    0.969737   9.278101   1.451618   2.736061   0.000000
 Stoichiometry    BrH2O(1-)
 Framework group  C1[X(BrH2O)]
 Deg. of freedom     6
 Full point group                 C1      NOp   1
 RotChk:  IX=1 Diff= 3.16D-16
 Largest Abelian subgroup         C1      NOp   1
 Largest concise Abelian subgroup C1      NOp   1
                         Standard orientation:                         
 ---------------------------------------------------------------------
 Center     Atomic      Atomic             Coordinates (Angstroms)
 Number     Number       Type             X           Y           Z
 ---------------------------------------------------------------------
      1          8           0       -2.539753    0.087221    0.082040
      2          1           0       -2.765361   -0.826070   -0.113187
      3         35           0        0.714668   -0.002859    0.003302
      4          1           0       -1.930012    0.228352   -0.658695
 ---------------------------------------------------------------------
 Rotational constants (GHZ):         240.2352457           3.1103336           3.0905771
 Leave Link  202 at Tue Oct 19 16:15:05 2021, MaxMem= 16106127360 cpu:               0.7 elap:               0.0
 (Enter /sw/contrib/gaussian/g16/B01/g16/l601.exe)
 Copying SCF densities to generalized density rwf, IOpCl= 0 IROHF=0.

 **********************************************************************

            Population analysis using the MP2 Density.

 **********************************************************************

 Orbital symmetries:
       Occupied  (A) (A) (A) (A) (A) (A) (A) (A) (A) (A) (A) (A)
                 (A) (A) (A) (A) (A) (A) (A) (A) (A) (A) (A)
       Virtual   (A) (A) (A) (A) (A) (A) (A) (A) (A) (A) (A) (A)
                 (A) (A) (A) (A) (A) (A) (A) (A) (A) (A) (A) (A)
                 (A) (A) (A) (A) (A) (A) (A) (A) (A) (A) (A) (A)
                 (A) (A) (A) (A) (A) (A) (A) (A) (A) (A) (A) (A)
                 (A) (A) (A) (A) (A) (A) (A) (A) (A) (A) (A) (A)
                 (A) (A) (A) (A) (A) (A) (A) (A) (A) (A) (A) (A)
                 (A) (A) (A) (A) (A) (A) (A) (A) (A) (A) (A) (A)
                 (A) (A) (A) (A) (A) (A) (A) (A) (A) (A) (A) (A)
                 (A) (A) (A) (A) (A) (A) (A) (A) (A) (A) (A) (A)
                 (A) (A) (A) (A) (A) (A) (A) (A) (A) (A) (A) (A)
                 (A) (A) (A) (A) (A) (A) (A) (A)
 The electronic state is 1-A.
 Alpha  occ. eigenvalues -- -489.72556 -64.86576 -58.22026 -58.22024 -58.22018
 Alpha  occ. eigenvalues --  -20.40738  -9.53822  -7.14576  -7.14563  -7.14538
 Alpha  occ. eigenvalues --   -2.88753  -2.88752  -2.88717  -2.88702  -2.88694
 Alpha  occ. eigenvalues --   -1.19248  -0.69383  -0.53780  -0.43799  -0.35104
 Alpha  occ. eigenvalues --   -0.14792  -0.14614  -0.14379
 Alpha virt. eigenvalues --    0.13509   0.16185   0.23846   0.24421   0.25704
 Alpha virt. eigenvalues --    0.26714   0.28392   0.29882   0.32598   0.36093
 Alpha virt. eigenvalues --    0.37260   0.38727   0.42191   0.45468   0.47864
 Alpha virt. eigenvalues --    0.49329   0.53763   0.54090   0.55555   0.56414
 Alpha virt. eigenvalues --    0.58407   0.59389   0.63802   0.73720   0.74659
 Alpha virt. eigenvalues --    0.75841   0.78424   0.82825   0.88038   0.88130
 Alpha virt. eigenvalues --    0.88787   0.98002   0.98838   1.01967   1.02386
 Alpha virt. eigenvalues --    1.02996   1.03261   1.05165   1.06470   1.06852
 Alpha virt. eigenvalues --    1.08971   1.10028   1.11106   1.16786   1.17606
 Alpha virt. eigenvalues --    1.18843   1.19644   1.20841   1.21848   1.22776
 Alpha virt. eigenvalues --    1.26140   1.30627   1.35272   1.36008   1.40132
 Alpha virt. eigenvalues --    1.44170   1.50466   1.55738   1.65433   1.66106
 Alpha virt. eigenvalues --    1.70816   1.77561   2.03474   2.05929   2.13720
 Alpha virt. eigenvalues --    2.29908   2.40972   2.41531   2.44721   2.46042
 Alpha virt. eigenvalues --    2.49049   2.51325   2.55874   2.56323   2.56968
 Alpha virt. eigenvalues --    2.57418   2.57745   2.58125   2.58398   2.62069
 Alpha virt. eigenvalues --    2.63336   2.64555   2.65167   2.66500   2.70075
 Alpha virt. eigenvalues --    2.73557   2.79900   2.82089   2.90315   2.93442
 Alpha virt. eigenvalues --    2.94639   2.98070   3.09724   3.85360   3.88217
 Alpha virt. eigenvalues --    4.15681   4.25163   4.29527   4.33993   4.40046
 Alpha virt. eigenvalues --    4.46114   4.53444   4.59477   4.61572   4.72149
 Alpha virt. eigenvalues --    4.93171   5.04280   5.29897   5.34292   5.43127
 Alpha virt. eigenvalues --    5.45926   5.70644   5.77087   6.41547   6.67254
 Alpha virt. eigenvalues --    6.89540   7.16680   7.29010   7.35798   7.45035
 Alpha virt. eigenvalues --    7.50499   7.53308   7.58458   7.71568   7.96594
 Alpha virt. eigenvalues --    8.12826   8.99919  15.90334
          Condensed to atoms (all electrons):
               1          2          3          4
     1  O    8.118788   0.204654  -0.062584   0.182896
     2  H    0.204654   0.584951   0.002112   0.019851
     3  Br  -0.062584   0.002112  36.002510   0.029664
     4  H    0.182896   0.019851   0.029664   0.540565
 Mulliken charges:
               1
     1  O   -0.443754
     2  H    0.188432
     3  Br  -0.971703
     4  H    0.227025
 Sum of Mulliken charges =  -1.00000
 Mulliken charges with hydrogens summed into heavy atoms:
               1
     1  O   -0.028297
     3  Br  -0.971703
 Electronic spatial extent (au):  <R**2>=            367.6656
 Charge=             -1.0000 electrons
 Dipole moment (field-independent basis, Debye):
    X=             -2.1337    Y=             -1.1072    Z=             -1.0390  Tot=              2.6188
 Quadrupole moment (field-independent basis, Debye-Ang):
   XX=            -39.2246   YY=            -29.9244   ZZ=            -30.8010
   XY=              3.9629   XZ=              2.5451   YZ=             -0.1470
 Traceless Quadrupole moment (field-independent basis, Debye-Ang):
   XX=             -5.9079   YY=              3.3923   ZZ=              2.5157
   XY=              3.9629   XZ=              2.5451   YZ=             -0.1470
 Octapole moment (field-independent basis, Debye-Ang**2):
  XXX=             20.9450  YYY=             -1.2642  ZZZ=              0.2802  XYY=             -2.6758
  XXY=            -12.4001  XXZ=             -3.5743  XZZ=              0.2746  YZZ=              0.1235
  YYZ=              0.0735  XYZ=              0.1513
 Hexadecapole moment (field-independent basis, Debye-Ang**3):
 XXXX=           -469.9493 YYYY=            -52.3487 ZZZZ=            -53.1491 XXXY=             38.8530
 XXXZ=              5.7959 YYYX=              4.7173 YYYZ=              0.0789 ZZZX=              1.2224
 ZZZY=             -0.2222 XXYY=            -66.4986 XXZZ=            -75.5910 YYZZ=            -17.7876
 XXYZ=              0.0097 YYXZ=              0.5688 ZZXY=              0.2040
 N-N= 6.658000518648D+01 E-N=-6.479887091131D+03  KE= 2.648379281966D+03
 No NMR shielding tensors so no spin-rotation constants.
 Leave Link  601 at Tue Oct 19 16:15:06 2021, MaxMem= 16106127360 cpu:               4.8 elap:               0.2
 (Enter /sw/contrib/gaussian/g16/B01/g16/l9999.exe)
 1\1\GINC-N2098\Scan\RMP2-FC\Aug-CC-pVTZ\Br1H2O1(1-)\CGAVINH\19-Oct-202
 1\1\\#p opt=(z-matrix) mp2/aug-cc-pvtz density=current\\title\\-1,1\O\
 X,1,10.\H,1,r1,2,90.\Br,1,r2,2,90.,3,a1,0\H,1,r3,2,OOP,3,a1,0\\r1=0.96
 078759,s,-1000,0.\r2=3.25661955,s,-1000,0.\r3=0.96973706\a1=101.738871
 31,s,-1000,0.\OOP=40.,s,10,-5.\\Version=ES64L-G16RevB.01\State=1-A\HF=
 -2648.6072003,-2648.6070228,-2648.6064978,-2648.6056605,-2648.6045033,
 -2648.6030698,-2648.6013996,-2648.5995362,-2648.5975234,-2648.5954025,
 -2648.5932099\MP2=-2649.126185,-2649.1259412,-2649.1252241,-2649.12407
 2,-2649.1225392,-2649.1206898,-2649.1185931,-2649.1163187,-2649.113931
 9,-2649.1114903,-2649.1090412\RMSD=6.805e-09,3.405e-09,9.957e-09,5.923
 e-09,6.180e-09,6.397e-09,6.114e-09,5.506e-09,4.713e-09,3.846e-09,2.983
 e-09\PG=C01 [X(Br1H2O1)]\\@


 YOU CANNOT THROW TO THE GROUND THE LETTERS OF
 THE GREEK ALPHABET AND PICK UP THE ILIAD.
        - RUFUS CHOATE, 1799-1859
 Job cpu time:       0 days  1 hours 59 minutes 48.1 seconds.
 Elapsed time:       0 days  0 hours  5 minutes  9.2 seconds.
 File lengths (MBytes):  RWF=     17 Int=      0 D2E=      0 Chk=      8 Scr=      1
 Normal termination of Gaussian 16 at Tue Oct 19 16:15:06 2021.
