 Entering Gaussian System, Link 0=g16
 Input=brhod_oop_45_sp.gjf
 Output=brhod_oop_45_sp.log
 Initial command:
 /sw/contrib/gaussian/g16/B01/g16/l1.exe "/scr/Gau-26515.inp" -scrdir="/scr/"
 Entering Link 1 = /sw/contrib/gaussian/g16/B01/g16/l1.exe PID=     26516.
  
 Copyright (c) 1988-2017, Gaussian, Inc.  All Rights Reserved.
  
 This is part of the Gaussian(R) 16 program.  It is based on
 the Gaussian(R) 09 system (copyright 2009, Gaussian, Inc.),
 the Gaussian(R) 03 system (copyright 2003, Gaussian, Inc.),
 the Gaussian(R) 98 system (copyright 1998, Gaussian, Inc.),
 the Gaussian(R) 94 system (copyright 1995, Gaussian, Inc.),
 the Gaussian 92(TM) system (copyright 1992, Gaussian, Inc.),
 the Gaussian 90(TM) system (copyright 1990, Gaussian, Inc.),
 the Gaussian 88(TM) system (copyright 1988, Gaussian, Inc.),
 the Gaussian 86(TM) system (copyright 1986, Carnegie Mellon
 University), and the Gaussian 82(TM) system (copyright 1983,
 Carnegie Mellon University). Gaussian is a federally registered
 trademark of Gaussian, Inc.
  
 This software contains proprietary and confidential information,
 including trade secrets, belonging to Gaussian, Inc.
  
 This software is provided under written license and may be
 used, copied, transmitted, or stored only in accord with that
 written license.
  
 The following legend is applicable only to US Government
 contracts under FAR:
  
                    RESTRICTED RIGHTS LEGEND
  
 Use, reproduction and disclosure by the US Government is
 subject to restrictions as set forth in subparagraphs (a)
 and (c) of the Commercial Computer Software - Restricted
 Rights clause in FAR 52.227-19.
  
 Gaussian, Inc.
 340 Quinnipiac St., Bldg. 40, Wallingford CT 06492
  
  
 ---------------------------------------------------------------
 Warning -- This program may not be used in any manner that
 competes with the business of Gaussian, Inc. or will provide
 assistance to any competitor of Gaussian, Inc.  The licensee
 of this program is prohibited from giving any competitor of
 Gaussian, Inc. access to this program.  By using this program,
 the user acknowledges that Gaussian, Inc. is engaged in the
 business of creating and licensing software in the field of
 computational chemistry and represents and warrants to the
 licensee that it is not a competitor of Gaussian, Inc. and that
 it will not use this program in any manner prohibited above.
 ---------------------------------------------------------------
  

 Cite this work as:
 Gaussian 16, Revision B.01,
 M. J. Frisch, G. W. Trucks, H. B. Schlegel, G. E. Scuseria, 
 M. A. Robb, J. R. Cheeseman, G. Scalmani, V. Barone, 
 G. A. Petersson, H. Nakatsuji, X. Li, M. Caricato, A. V. Marenich, 
 J. Bloino, B. G. Janesko, R. Gomperts, B. Mennucci, H. P. Hratchian, 
 J. V. Ortiz, A. F. Izmaylov, J. L. Sonnenberg, D. Williams-Young, 
 F. Ding, F. Lipparini, F. Egidi, J. Goings, B. Peng, A. Petrone, 
 T. Henderson, D. Ranasinghe, V. G. Zakrzewski, J. Gao, N. Rega, 
 G. Zheng, W. Liang, M. Hada, M. Ehara, K. Toyota, R. Fukuda, 
 J. Hasegawa, M. Ishida, T. Nakajima, Y. Honda, O. Kitao, H. Nakai, 
 T. Vreven, K. Throssell, J. A. Montgomery, Jr., J. E. Peralta, 
 F. Ogliaro, M. J. Bearpark, J. J. Heyd, E. N. Brothers, K. N. Kudin, 
 V. N. Staroverov, T. A. Keith, R. Kobayashi, J. Normand, 
 K. Raghavachari, A. P. Rendell, J. C. Burant, S. S. Iyengar, 
 J. Tomasi, M. Cossi, J. M. Millam, M. Klene, C. Adamo, R. Cammi, 
 J. W. Ochterski, R. L. Martin, K. Morokuma, O. Farkas, 
 J. B. Foresman, and D. J. Fox, Gaussian, Inc., Wallingford CT, 2016.
 
 ******************************************
 Gaussian 16:  ES64L-G16RevB.01 20-Dec-2017
                19-Oct-2021 
 ******************************************
 %nproc=28
 Will use up to   28 processors via shared memory.
 %mem=120GB
 %chk=/gscratch/ilahie/mccoygrp/coire_hocl/oop_s_rOH_opt/brhod/brhod_oop_45_sp.ch
 k
 ----------------------------------------------------
 #p pop=NBO SP NoSymm mp2/aug-cc-pvtz density=current
 ----------------------------------------------------
 1/30=1,38=1,172=1/1;
 2/12=2,15=1,17=6,18=5,40=1/2;
 3/5=16,6=1,7=10,11=9,25=1,30=1,71=1/1,2,3;
 4//1;
 5/5=2,38=5/2;
 8/6=4,10=1/1;
 9/15=1,16=-3/6;
 10/5=1,13=10,31=1/2;
 6/7=2,8=2,9=2,10=2,22=-1,40=1/1,7;
 99/5=1,9=1/99;
 Leave Link    1 at Tue Oct 19 16:41:51 2021, MaxMem= 16106127360 cpu:               3.2 elap:               0.1
 (Enter /sw/contrib/gaussian/g16/B01/g16/l101.exe)
 -----
 title
 -----
 Symbolic Z-matrix:
 Charge = -1 Multiplicity = 1
 O
 X                    1     10. 
 H(iso=2)             1    r1       2     90. 
 Br                   1    r2       2     90.      3    a1       0
 H                    1    r3       2    oop      3    a1       0
       Variables:
  r1                    0.96079                  
  r2                    3.25662                  
  r3                    0.97115                  
  a1                  101.73887                  
  OOP                  45.                       
 
 ITRead=  0  0  0  0
 MicOpt= -1 -1 -1 -1
 NAtoms=      4 NQM=        4 NQMF=       0 NMMI=      0 NMMIF=      0
                NMic=       0 NMicF=      0.
                    Isotopes and Nuclear Properties:
 (Nuclear quadrupole moments (NQMom) in fm**2, nuclear magnetic moments (NMagM)
  in nuclear magnetons)

  Atom         1           2           3           4
 IAtWgt=          16           2          79           1
 AtmWgt=  15.9949146   2.0141018  78.9183361   1.0078250
 NucSpn=           0           2           3           1
 AtZEff=  -0.0000000  -0.0000000  -0.0000000  -0.0000000
 NQMom=    0.0000000   0.2860000  31.3000000   0.0000000
 NMagM=    0.0000000   0.8574380   2.1063990   2.7928460
 AtZNuc=   8.0000000   1.0000000  35.0000000   1.0000000
 Leave Link  101 at Tue Oct 19 16:41:51 2021, MaxMem= 16106127360 cpu:               2.1 elap:               0.1
 (Enter /sw/contrib/gaussian/g16/B01/g16/l202.exe)
                          Input orientation:                          
 ---------------------------------------------------------------------
 Center     Atomic      Atomic             Coordinates (Angstroms)
 Number     Number       Type             X           Y           Z
 ---------------------------------------------------------------------
      1          8           0        0.000000    0.000000    0.000000
      2          1           0        0.960788    0.000000    0.000000
      3         35           0       -0.662564   -3.188507    0.000000
      4          1           0       -0.139712   -0.672344    0.686707
 ---------------------------------------------------------------------
                    Distance matrix (angstroms):
                    1          2          3          4
     1  O    0.000000
     2  H    0.960788   0.000000
     3  Br   3.256620   3.577967   0.000000
     4  H    0.971150   1.461065   2.660079   0.000000
 Symmetry turned off by external request.
 Stoichiometry    BrH2O(1-)
 Framework group  C1[X(BrH2O)]
 Deg. of freedom     6
 Full point group                 C1      NOp   1
 Rotational constants (GHZ):         249.4476104           3.1166756           3.0954155
 Leave Link  202 at Tue Oct 19 16:41:51 2021, MaxMem= 16106127360 cpu:               0.2 elap:               0.0
 (Enter /sw/contrib/gaussian/g16/B01/g16/l301.exe)
 Standard basis: Aug-CC-pVTZ (5D, 7F)
 Ernie: Thresh=  0.10000D-02 Tol=  0.10000D-05 Strict=F.
 Ernie:  35 primitive shells out of 175 were deleted.
   151 basis functions,   343 primitive gaussians,   174 cartesian basis functions
    23 alpha electrons       23 beta electrons
       nuclear repulsion energy        66.7646551571 Hartrees.
 IExCor=    0 DFT=F Ex=HF Corr=None ExCW=0 ScaHFX=  1.000000
 ScaDFX=  1.000000  1.000000  1.000000  1.000000 ScalE2=  1.000000  1.000000
 IRadAn=      5 IRanWt=     -1 IRanGd=            0 ICorTp=0 IEmpDi=  4
 NAtoms=    4 NActive=    4 NUniq=    4 SFac= 1.00D+00 NAtFMM=   60 NAOKFM=F Big=F
 Integral buffers will be    131072 words long.
 Raffenetti 1 integral format.
 Two-electron integral symmetry is turned off.
 Leave Link  301 at Tue Oct 19 16:41:51 2021, MaxMem= 16106127360 cpu:               1.5 elap:               0.1
 (Enter /sw/contrib/gaussian/g16/B01/g16/l302.exe)
 NPDir=0 NMtPBC=     1 NCelOv=     1 NCel=       1 NClECP=     1 NCelD=      1
         NCelK=      1 NCelE2=     1 NClLst=     1 CellRange=     0.0.
 One-electron integrals computed using PRISM.
 NBasis=   151 RedAO= T EigKep=  3.56D-04  NBF=   151
 NBsUse=   151 1.00D-06 EigRej= -1.00D+00 NBFU=   151
 Leave Link  302 at Tue Oct 19 16:41:51 2021, MaxMem= 16106127360 cpu:               4.3 elap:               0.2
 (Enter /sw/contrib/gaussian/g16/B01/g16/l303.exe)
 DipDrv:  MaxL=1.
 Leave Link  303 at Tue Oct 19 16:41:51 2021, MaxMem= 16106127360 cpu:               1.2 elap:               0.1
 (Enter /sw/contrib/gaussian/g16/B01/g16/l401.exe)
 ExpMin= 2.53D-02 ExpMax= 1.06D+07 ExpMxC= 1.21D+04 IAcc=3 IRadAn=         5 AccDes= 0.00D+00
 Harris functional with IExCor=  205 and IRadAn=       5 diagonalized for initial guess.
 HarFok:  IExCor=  205 AccDes= 0.00D+00 IRadAn=         5 IDoV= 1 UseB2=F ITyADJ=14
 ICtDFT=  3500011 ScaDFX=  1.000000  1.000000  1.000000  1.000000
 FoFCou: FMM=F IPFlag=           0 FMFlag=      100000 FMFlg1=           0
         NFxFlg=           0 DoJE=T BraDBF=F KetDBF=T FulRan=T
         wScrn=  0.000000 ICntrl=       500 IOpCl=  0 I1Cent=   200000004 NGrid=           0
         NMat0=    1 NMatS0=      1 NMatT0=    0 NMatD0=    1 NMtDS0=    0 NMtDT0=    0
 Symmetry not used in FoFCou.
 Harris En= -2648.01556690617    
 JPrj=0 DoOrth=F DoCkMO=F.
 Leave Link  401 at Tue Oct 19 16:41:51 2021, MaxMem= 16106127360 cpu:               6.3 elap:               0.3
 (Enter /sw/contrib/gaussian/g16/B01/g16/l502.exe)
 Keep R1 ints in memory in canonical form, NReq=88256141.
 FoFCou: FMM=F IPFlag=           0 FMFlag=           0 FMFlg1=           0
         NFxFlg=           0 DoJE=F BraDBF=F KetDBF=F FulRan=T
         wScrn=  0.000000 ICntrl=       600 IOpCl=  0 I1Cent=           0 NGrid=           0
         NMat0=    1 NMatS0=  11476 NMatT0=    0 NMatD0=    1 NMtDS0=    0 NMtDT0=    0
 Symmetry not used in FoFCou.
 Two-electron integral symmetry not used.
 Closed shell SCF:
 Using DIIS extrapolation, IDIIS=  1040.
 NGot= 16106127360 LenX= 16040205766 LenY= 16040175049
 Requested convergence on RMS density matrix=1.00D-08 within 128 cycles.
 Requested convergence on MAX density matrix=1.00D-06.
 Requested convergence on             energy=1.00D-06.
 No special actions if energy rises.

 Cycle   1  Pass 1  IDiag  1:
 E= -2648.42188659252    
 DIIS: error= 5.93D-02 at cycle   1 NSaved=   1.
 NSaved= 1 IEnMin= 1 EnMin= -2648.42188659252     IErMin= 1 ErrMin= 5.93D-02
 ErrMax= 5.93D-02  0.00D+00 EMaxC= 1.00D-01 BMatC= 5.29D-01 BMatP= 5.29D-01
 IDIUse=3 WtCom= 4.07D-01 WtEn= 5.93D-01
 Coeff-Com:  0.100D+01
 Coeff-En:   0.100D+01
 Coeff:      0.100D+01
 Gap=     0.345 Goal=   None    Shift=    0.000
 GapD=    0.345 DampG=1.000 DampE=0.500 DampFc=0.5000 IDamp=-1.
 Damping current iteration by 5.00D-01
 RMSDP=2.96D-03 MaxDP=8.82D-02              OVMax= 1.21D-01

 Cycle   2  Pass 1  IDiag  1:
 E= -2648.51276146610     Delta-E=       -0.090874873580 Rises=F Damp=T
 DIIS: error= 2.79D-02 at cycle   2 NSaved=   2.
 NSaved= 2 IEnMin= 2 EnMin= -2648.51276146610     IErMin= 2 ErrMin= 2.79D-02
 ErrMax= 2.79D-02  0.00D+00 EMaxC= 1.00D-01 BMatC= 9.94D-02 BMatP= 5.29D-01
 IDIUse=3 WtCom= 7.21D-01 WtEn= 2.79D-01
 Coeff-Com: -0.595D+00 0.159D+01
 Coeff-En:   0.000D+00 0.100D+01
 Coeff:     -0.429D+00 0.143D+01
 Gap=     0.263 Goal=   None    Shift=    0.000
 RMSDP=1.20D-03 MaxDP=3.42D-02 DE=-9.09D-02 OVMax= 6.26D-02

 Cycle   3  Pass 1  IDiag  1:
 E= -2648.59365591959     Delta-E=       -0.080894453481 Rises=F Damp=F
 DIIS: error= 4.32D-03 at cycle   3 NSaved=   3.
 NSaved= 3 IEnMin= 3 EnMin= -2648.59365591959     IErMin= 3 ErrMin= 4.32D-03
 ErrMax= 4.32D-03  0.00D+00 EMaxC= 1.00D-01 BMatC= 2.66D-03 BMatP= 9.94D-02
 IDIUse=3 WtCom= 9.57D-01 WtEn= 4.32D-02
 Coeff-Com: -0.158D+00 0.340D+00 0.818D+00
 Coeff-En:   0.000D+00 0.000D+00 0.100D+01
 Coeff:     -0.151D+00 0.326D+00 0.826D+00
 Gap=     0.281 Goal=   None    Shift=    0.000
 RMSDP=2.12D-04 MaxDP=5.72D-03 DE=-8.09D-02 OVMax= 1.22D-02

 Cycle   4  Pass 1  IDiag  1:
 E= -2648.59535164967     Delta-E=       -0.001695730089 Rises=F Damp=F
 DIIS: error= 5.12D-04 at cycle   4 NSaved=   4.
 NSaved= 4 IEnMin= 4 EnMin= -2648.59535164967     IErMin= 4 ErrMin= 5.12D-04
 ErrMax= 5.12D-04  0.00D+00 EMaxC= 1.00D-01 BMatC= 3.33D-05 BMatP= 2.66D-03
 IDIUse=3 WtCom= 9.95D-01 WtEn= 5.12D-03
 Coeff-Com:  0.199D-01-0.467D-01-0.846D-02 0.104D+01
 Coeff-En:   0.000D+00 0.000D+00 0.000D+00 0.100D+01
 Coeff:      0.198D-01-0.464D-01-0.842D-02 0.104D+01
 Gap=     0.281 Goal=   None    Shift=    0.000
 RMSDP=4.47D-05 MaxDP=1.31D-03 DE=-1.70D-03 OVMax= 2.54D-03

 Cycle   5  Pass 1  IDiag  1:
 E= -2648.59539699710     Delta-E=       -0.000045347422 Rises=F Damp=F
 DIIS: error= 1.03D-04 at cycle   5 NSaved=   5.
 NSaved= 5 IEnMin= 5 EnMin= -2648.59539699710     IErMin= 5 ErrMin= 1.03D-04
 ErrMax= 1.03D-04  0.00D+00 EMaxC= 1.00D-01 BMatC= 1.88D-06 BMatP= 3.33D-05
 IDIUse=3 WtCom= 9.99D-01 WtEn= 1.03D-03
 Coeff-Com: -0.282D-02 0.773D-02-0.202D-01-0.406D+00 0.142D+01
 Coeff-En:   0.000D+00 0.000D+00 0.000D+00 0.000D+00 0.100D+01
 Coeff:     -0.282D-02 0.772D-02-0.202D-01-0.406D+00 0.142D+01
 Gap=     0.281 Goal=   None    Shift=    0.000
 RMSDP=2.02D-05 MaxDP=5.22D-04 DE=-4.53D-05 OVMax= 1.17D-03

 Cycle   6  Pass 1  IDiag  1:
 E= -2648.59540255016     Delta-E=       -0.000005553064 Rises=F Damp=F
 DIIS: error= 2.05D-05 at cycle   6 NSaved=   6.
 NSaved= 6 IEnMin= 6 EnMin= -2648.59540255016     IErMin= 6 ErrMin= 2.05D-05
 ErrMax= 2.05D-05  0.00D+00 EMaxC= 1.00D-01 BMatC= 9.38D-08 BMatP= 1.88D-06
 IDIUse=1 WtCom= 1.00D+00 WtEn= 0.00D+00
 Coeff-Com: -0.506D-03 0.142D-02-0.218D-02-0.503D-01 0.606D-01 0.991D+00
 Coeff:     -0.506D-03 0.142D-02-0.218D-02-0.503D-01 0.606D-01 0.991D+00
 Gap=     0.281 Goal=   None    Shift=    0.000
 RMSDP=2.88D-06 MaxDP=7.95D-05 DE=-5.55D-06 OVMax= 1.95D-04

 Cycle   7  Pass 1  IDiag  1:
 E= -2648.59540273755     Delta-E=       -0.000000187385 Rises=F Damp=F
 DIIS: error= 6.79D-06 at cycle   7 NSaved=   7.
 NSaved= 7 IEnMin= 7 EnMin= -2648.59540273755     IErMin= 7 ErrMin= 6.79D-06
 ErrMax= 6.79D-06  0.00D+00 EMaxC= 1.00D-01 BMatC= 1.38D-08 BMatP= 9.38D-08
 IDIUse=1 WtCom= 1.00D+00 WtEn= 0.00D+00
 Coeff-Com: -0.200D-03 0.213D-03 0.319D-02 0.276D-01-0.145D+00 0.131D+00
 Coeff-Com:  0.984D+00
 Coeff:     -0.200D-03 0.213D-03 0.319D-02 0.276D-01-0.145D+00 0.131D+00
 Coeff:      0.984D+00
 Gap=     0.281 Goal=   None    Shift=    0.000
 RMSDP=1.19D-06 MaxDP=2.88D-05 DE=-1.87D-07 OVMax= 8.54D-05

 Cycle   8  Pass 1  IDiag  1:
 E= -2648.59540276233     Delta-E=       -0.000000024788 Rises=F Damp=F
 DIIS: error= 1.92D-06 at cycle   8 NSaved=   8.
 NSaved= 8 IEnMin= 8 EnMin= -2648.59540276233     IErMin= 8 ErrMin= 1.92D-06
 ErrMax= 1.92D-06  0.00D+00 EMaxC= 1.00D-01 BMatC= 5.77D-10 BMatP= 1.38D-08
 IDIUse=1 WtCom= 1.00D+00 WtEn= 0.00D+00
 Coeff-Com:  0.112D-03-0.221D-03-0.454D-03 0.977D-03 0.142D-01-0.780D-01
 Coeff-Com: -0.140D+00 0.120D+01
 Coeff:      0.112D-03-0.221D-03-0.454D-03 0.977D-03 0.142D-01-0.780D-01
 Coeff:     -0.140D+00 0.120D+01
 Gap=     0.281 Goal=   None    Shift=    0.000
 RMSDP=3.97D-07 MaxDP=1.13D-05 DE=-2.48D-08 OVMax= 2.10D-05

 Cycle   9  Pass 1  IDiag  1:
 E= -2648.59540276382     Delta-E=       -0.000000001488 Rises=F Damp=F
 DIIS: error= 5.00D-07 at cycle   9 NSaved=   9.
 NSaved= 9 IEnMin= 9 EnMin= -2648.59540276382     IErMin= 9 ErrMin= 5.00D-07
 ErrMax= 5.00D-07  0.00D+00 EMaxC= 1.00D-01 BMatC= 3.33D-11 BMatP= 5.77D-10
 IDIUse=1 WtCom= 1.00D+00 WtEn= 0.00D+00
 Coeff-Com: -0.572D-06 0.121D-04-0.154D-03-0.188D-02 0.816D-02-0.446D-02
 Coeff-Com: -0.535D-01-0.202D-01 0.107D+01
 Coeff:     -0.572D-06 0.121D-04-0.154D-03-0.188D-02 0.816D-02-0.446D-02
 Coeff:     -0.535D-01-0.202D-01 0.107D+01
 Gap=     0.281 Goal=   None    Shift=    0.000
 RMSDP=7.82D-08 MaxDP=2.41D-06 DE=-1.49D-09 OVMax= 4.31D-06

 Cycle  10  Pass 1  IDiag  1:
 E= -2648.59540276391     Delta-E=       -0.000000000089 Rises=F Damp=F
 DIIS: error= 1.36D-07 at cycle  10 NSaved=  10.
 NSaved=10 IEnMin=10 EnMin= -2648.59540276391     IErMin=10 ErrMin= 1.36D-07
 ErrMax= 1.36D-07  0.00D+00 EMaxC= 1.00D-01 BMatC= 2.97D-12 BMatP= 3.33D-11
 IDIUse=1 WtCom= 1.00D+00 WtEn= 0.00D+00
 Coeff-Com: -0.855D-05 0.160D-04 0.481D-04 0.792D-04-0.174D-02 0.658D-02
 Coeff-Com:  0.171D-01-0.107D+00-0.658D-01 0.115D+01
 Coeff:     -0.855D-05 0.160D-04 0.481D-04 0.792D-04-0.174D-02 0.658D-02
 Coeff:      0.171D-01-0.107D+00-0.658D-01 0.115D+01
 Gap=     0.281 Goal=   None    Shift=    0.000
 RMSDP=2.18D-08 MaxDP=4.86D-07 DE=-8.91D-11 OVMax= 1.49D-06

 Cycle  11  Pass 1  IDiag  1:
 E= -2648.59540276391     Delta-E=        0.000000000006 Rises=F Damp=F
 DIIS: error= 3.93D-08 at cycle  11 NSaved=  11.
 NSaved=11 IEnMin=10 EnMin= -2648.59540276391     IErMin=11 ErrMin= 3.93D-08
 ErrMax= 3.93D-08  0.00D+00 EMaxC= 1.00D-01 BMatC= 1.70D-13 BMatP= 2.97D-12
 IDIUse=1 WtCom= 1.00D+00 WtEn= 0.00D+00
 Coeff-Com:  0.242D-05-0.508D-05-0.485D-05 0.682D-04 0.722D-04-0.144D-02
 Coeff-Com: -0.186D-02 0.282D-01-0.485D-01-0.270D+00 0.129D+01
 Coeff:      0.242D-05-0.508D-05-0.485D-05 0.682D-04 0.722D-04-0.144D-02
 Coeff:     -0.186D-02 0.282D-01-0.485D-01-0.270D+00 0.129D+01
 Gap=     0.281 Goal=   None    Shift=    0.000
 RMSDP=6.92D-09 MaxDP=1.88D-07 DE= 5.91D-12 OVMax= 4.99D-07

 SCF Done:  E(RHF) =  -2648.59540276     A.U. after   11 cycles
            NFock= 11  Conv=0.69D-08     -V/T= 2.0000
 KE= 2.648529117458D+03 PE=-6.481753414985D+03 EE= 1.117864239606D+03
 Leave Link  502 at Tue Oct 19 16:41:54 2021, MaxMem= 16106127360 cpu:              33.6 elap:               2.2
 (Enter /sw/contrib/gaussian/g16/B01/g16/l801.exe)
 ExpMin= 2.53D-02 ExpMax= 1.06D+07 ExpMxC= 1.21D+04 IAcc=3 IRadAn=         5 AccDes= 0.00D+00
 HarFok:  IExCor=  205 AccDes= 0.00D+00 IRadAn=         5 IDoV=-2 UseB2=F ITyADJ=14
 ICtDFT= 12500011 ScaDFX=  1.000000  1.000000  1.000000  1.000000
 Largest valence mixing into a core orbital is  1.27D-04
 Largest core mixing into a valence orbital is  3.65D-05
 Range of M.O.s used for correlation:    11   151
 NBasis=   151 NAE=    23 NBE=    23 NFC=    10 NFV=     0
 NROrb=    141 NOA=    13 NOB=    13 NVA=   128 NVB=   128

 **** Warning!!: The largest alpha MO coefficient is  0.13848217D+02

 Leave Link  801 at Tue Oct 19 16:41:54 2021, MaxMem= 16106127360 cpu:               3.6 elap:               0.2
 (Enter /sw/contrib/gaussian/g16/B01/g16/l906.exe)
 Frozen-core derivative calculation, NFC=  10 NFV=   0.
 FulOut=F Deriv=T AODrv=F NAtomX=     4
   MMem=         214  MDisk=          13 MDiskD=          13
  W3Min=      604302 MinDsk=     1007783 NBas6D=         174
 NBas2D=       15618    NTT=       15225    LW2=     9911920
    MDV= 16105778051 MDiskM=      462752 NBas2p=       15367
 Fully in-core method, ICMem=   275550978.
 IMap=   1   2   3   4   5   6   7   8   9  10  11  12  13  14  15  16  17  18  19  20
 IMap=  21  22  23
 JobTyp=1 Pass  1 fully in-core, NPsUse= 28.
 Compute canonical integrals.
 FoFCou: FMM=F IPFlag=           0 FMFlag=           0 FMFlg1=           0
         NFxFlg=           0 DoJE=F BraDBF=F KetDBF=F FulRan=T
         wScrn=  0.000000 ICntrl=       600 IOpCl=  1 I1Cent=           0 NGrid=           0
         NMat0=    1 NMatS0=  15618 NMatT0=    0 NMatD0=    1 NMtDS0=    0 NMtDT0=    0
 Symmetry not used in FoFCou.
 Spin components of T(2) and E(2):
     alpha-alpha T2 =       0.2044594699D-01 E2=     -0.6934637006D-01
     alpha-beta  T2 =       0.1089208399D+00 E2=     -0.3773947614D+00
     beta-beta   T2 =       0.2044594699D-01 E2=     -0.6934637006D-01
 The integrals were generated   1 times.
 ANorm=    0.1072293213D+01
 E2 =    -0.5160875016D+00 EUMP2 =    -0.26491114902655D+04
 Leave Link  906 at Tue Oct 19 16:41:57 2021, MaxMem= 16106127360 cpu:              90.1 elap:               3.3
 (Enter /sw/contrib/gaussian/g16/B01/g16/l1002.exe)
 Minotr:  Closed shell wavefunction.
          Computing MP2/KS-MP2 derivatives.
          Using Z-Vector for PSCF gradient.
          Skipping F1 and S1 gradient terms here.
          Frozen-core window.
          Direct CPHF calculation.
          Differentiating once with respect to electric field.
                with respect to dipole field.
          Electric field/nuclear overlap derivatives assumed to be zero.
          Requested convergence is 1.0D-10 RMS, and 1.0D-09 maximum.
          NewPWx=F KeepS1=T KeepF1=T KeepIn=T MapXYZ=F SortEE=F KeepMc=T.
 Keep R1 ints in memory in canonical form, NReq=88259253.
 FoFCou: FMM=F IPFlag=           0 FMFlag=           0 FMFlg1=           0
         NFxFlg=           0 DoJE=F BraDBF=F KetDBF=F FulRan=T
         wScrn=  0.000000 ICntrl=       600 IOpCl=  0 I1Cent=           0 NGrid=           0
         NMat0=    1 NMatS0=  11476 NMatT0=    0 NMatD0=    1 NMtDS0=    0 NMtDT0=    0
 Symmetry not used in FoFCou.
 Two-electron integral symmetry not used.
          MDV=   16106127360 using IRadAn=       5.
          Solving linear equations separately, MaxMat=       0.
          There are     1 degrees of freedom in the 1st order CPHF.  IDoFFX=0 NUNeed=     1.
 LinEq1:  Iter=  0 NonCon=     1 RMS=2.38D-03 Max=2.93D-02 NDo=     1
 AX will form     1 AO Fock derivatives at one time.
 LinEq1:  Iter=  1 NonCon=     1 RMS=4.01D-04 Max=3.68D-03 NDo=     1
 LinEq1:  Iter=  2 NonCon=     1 RMS=1.95D-04 Max=2.26D-03 NDo=     1
 LinEq1:  Iter=  3 NonCon=     1 RMS=5.27D-05 Max=7.92D-04 NDo=     1
 LinEq1:  Iter=  4 NonCon=     1 RMS=1.02D-05 Max=1.14D-04 NDo=     1
 LinEq1:  Iter=  5 NonCon=     1 RMS=4.84D-06 Max=5.28D-05 NDo=     1
 LinEq1:  Iter=  6 NonCon=     1 RMS=1.12D-06 Max=1.30D-05 NDo=     1
 LinEq1:  Iter=  7 NonCon=     1 RMS=2.20D-07 Max=1.95D-06 NDo=     1
 LinEq1:  Iter=  8 NonCon=     1 RMS=6.29D-08 Max=6.35D-07 NDo=     1
 LinEq1:  Iter=  9 NonCon=     1 RMS=1.10D-08 Max=1.41D-07 NDo=     1
 LinEq1:  Iter= 10 NonCon=     1 RMS=1.69D-09 Max=1.68D-08 NDo=     1
 LinEq1:  Iter= 11 NonCon=     1 RMS=3.43D-10 Max=3.33D-09 NDo=     1
 LinEq1:  Iter= 12 NonCon=     0 RMS=8.15D-11 Max=9.42D-10 NDo=     1
 Linear equations converged to 1.000D-10 1.000D-09 after    12 iterations.
 End of Minotr F.D. properties file   721 does not exist.
 End of Minotr F.D. properties file   722 does not exist.
 End of Minotr F.D. properties file   788 does not exist.
 Leave Link 1002 at Tue Oct 19 16:42:00 2021, MaxMem= 16106127360 cpu:              36.1 elap:               2.6
 (Enter /sw/contrib/gaussian/g16/B01/g16/l601.exe)
 Copying SCF densities to generalized density rwf, IOpCl= 0 IROHF=0.

 **********************************************************************

            Population analysis using the MP2 Density.

 **********************************************************************

 Alpha  occ. eigenvalues -- -489.72759 -64.86779 -58.22229 -58.22227 -58.22221
 Alpha  occ. eigenvalues --  -20.40500  -9.54024  -7.14779  -7.14765  -7.14741
 Alpha  occ. eigenvalues --   -2.88955  -2.88954  -2.88921  -2.88904  -2.88897
 Alpha  occ. eigenvalues --   -1.18968  -0.69616  -0.53716  -0.43488  -0.34895
 Alpha  occ. eigenvalues --   -0.15032  -0.14816  -0.14606
 Alpha virt. eigenvalues --    0.13524   0.16393   0.23794   0.24360   0.25615
 Alpha virt. eigenvalues --    0.26830   0.28298   0.29912   0.32947   0.36100
 Alpha virt. eigenvalues --    0.37632   0.38952   0.42110   0.45562   0.47871
 Alpha virt. eigenvalues --    0.49201   0.53896   0.54177   0.55717   0.56943
 Alpha virt. eigenvalues --    0.58346   0.59879   0.64645   0.73813   0.74646
 Alpha virt. eigenvalues --    0.75865   0.78301   0.83172   0.87637   0.88529
 Alpha virt. eigenvalues --    0.88963   0.97956   0.99223   1.01734   1.01977
 Alpha virt. eigenvalues --    1.03035   1.03116   1.05191   1.06589   1.07000
 Alpha virt. eigenvalues --    1.09125   1.10185   1.11416   1.17245   1.17649
 Alpha virt. eigenvalues --    1.18471   1.19763   1.21269   1.22152   1.22872
 Alpha virt. eigenvalues --    1.27235   1.32093   1.35354   1.36701   1.40897
 Alpha virt. eigenvalues --    1.45732   1.53102   1.54717   1.66558   1.68069
 Alpha virt. eigenvalues --    1.71571   1.78355   2.03191   2.05668   2.14232
 Alpha virt. eigenvalues --    2.30024   2.40906   2.41490   2.44665   2.46620
 Alpha virt. eigenvalues --    2.48712   2.52510   2.55803   2.56201   2.56730
 Alpha virt. eigenvalues --    2.57363   2.57775   2.58334   2.58624   2.62467
 Alpha virt. eigenvalues --    2.63290   2.64605   2.65600   2.67409   2.69624
 Alpha virt. eigenvalues --    2.74020   2.80792   2.82803   2.91609   2.93272
 Alpha virt. eigenvalues --    2.94747   2.99169   3.10574   3.86940   3.88484
 Alpha virt. eigenvalues --    4.18558   4.26343   4.29605   4.36532   4.40772
 Alpha virt. eigenvalues --    4.46263   4.53651   4.59113   4.62332   4.72281
 Alpha virt. eigenvalues --    4.93149   5.04454   5.30101   5.35304   5.41726
 Alpha virt. eigenvalues --    5.46616   5.70272   5.77938   6.40953   6.67754
 Alpha virt. eigenvalues --    6.90246   7.16091   7.29033   7.37229   7.45178
 Alpha virt. eigenvalues --    7.50314   7.54691   7.57789   7.71828   7.97797
 Alpha virt. eigenvalues --    8.12705   8.99169  15.87213
          Condensed to atoms (all electrons):
               1          2          3          4
     1  O    8.128096   0.205909  -0.061625   0.177921
     2  H    0.205909   0.585340   0.002286   0.019933
     3  Br  -0.061625   0.002286  35.990566   0.034228
     4  H    0.177921   0.019933   0.034228   0.538696
 Mulliken charges:
               1
     1  O   -0.450301
     2  H    0.186533
     3  Br  -0.965454
     4  H    0.229222
 Sum of Mulliken charges =  -1.00000
 Mulliken charges with hydrogens summed into heavy atoms:
               1
     1  O   -0.034546
     3  Br  -0.965454
 Electronic spatial extent (au):  <R**2>=           1436.9619
 Charge=             -1.0000 electrons
 Dipole moment (field-independent basis, Debye):
    X=              4.1145    Y=             13.5416    Z=              0.6560  Tot=             14.1681
 Quadrupole moment (field-independent basis, Debye-Ang):
   XX=            -31.3789   YY=            -78.7074   ZZ=            -30.7873
   XY=             -9.2645   XZ=             -0.2094   YZ=             -0.3231
 Traceless Quadrupole moment (field-independent basis, Debye-Ang):
   XX=             15.5790   YY=            -31.7496   ZZ=             16.1706
   XY=             -9.2645   XZ=             -0.2094   YZ=             -0.3231
 Octapole moment (field-independent basis, Debye-Ang**2):
  XXX=             48.7602  YYY=            382.4001  ZZZ=             -1.7798  XYY=             45.7350
  XXY=             83.0123  XXZ=             -0.9190  XZZ=             15.0777  YZZ=             76.2245
  YYZ=             -2.9597  XYZ=             -0.4531
 Hexadecapole moment (field-independent basis, Debye-Ang**3):
 XXXX=           -114.7237 YYYY=          -2004.5368 ZZZZ=            -52.8152 XXXY=           -155.2808
 XXXZ=              0.4273 YYYX=           -248.8437 YYYZ=             10.9163 ZZZX=              0.2984
 ZZZY=              2.4136 XXYY=           -292.4461 XXZZ=            -28.1940 YYZZ=           -261.8589
 XXYZ=              1.2656 YYXZ=              1.7612 ZZXY=            -50.3330
 N-N= 6.676465515713D+01 E-N=-6.480208088019D+03  KE= 2.648376967773D+03
 No NMR shielding tensors so no spin-rotation constants.
 Leave Link  601 at Tue Oct 19 16:42:00 2021, MaxMem= 16106127360 cpu:               4.2 elap:               0.2
 (Enter /sw/contrib/gaussian/g16/B01/g16/l607.exe)
 ******************************Gaussian NBO Version 3.1******************************
             N A T U R A L   A T O M I C   O R B I T A L   A N D
          N A T U R A L   B O N D   O R B I T A L   A N A L Y S I S
 ******************************Gaussian NBO Version 3.1******************************
       /RESON  / : Allow strongly delocalized NBO set

 Analyzing the MP2 density

 Job title: title                                                           

 Storage needed:     69217 in NPA,     91732 in NBO (********** available)
 GSVD:  LWork=         337 too small for GESVD, short by       43655 words or       43655 for optimal perf.


 NATURAL POPULATIONS:  Natural atomic orbital occupancies 
                                                          
   NAO  Atom  No  lang   Type(AO)    Occupancy
 --------------------------------------------
     1    O    1  S      Cor( 1S)     1.99968
     2    O    1  S      Val( 2S)     1.74777
     3    O    1  S      Ryd( 3S)     0.00624
     4    O    1  S      Ryd( 4S)     0.00067
     5    O    1  S      Ryd( 5S)     0.00019
     6    O    1  px     Val( 2p)     1.52788
     7    O    1  px     Ryd( 3p)     0.00983
     8    O    1  px     Ryd( 4p)     0.00058
     9    O    1  px     Ryd( 5p)     0.00011
    10    O    1  py     Val( 2p)     1.79092
    11    O    1  py     Ryd( 3p)     0.01653
    12    O    1  py     Ryd( 4p)     0.00061
    13    O    1  py     Ryd( 5p)     0.00015
    14    O    1  pz     Val( 2p)     1.76845
    15    O    1  pz     Ryd( 3p)     0.01639
    16    O    1  pz     Ryd( 4p)     0.00064
    17    O    1  pz     Ryd( 5p)     0.00010
    18    O    1  dxy    Ryd( 3d)     0.00926
    19    O    1  dxy    Ryd( 4d)     0.00074
    20    O    1  dxy    Ryd( 5d)     0.00015
    21    O    1  dxz    Ryd( 3d)     0.00979
    22    O    1  dxz    Ryd( 4d)     0.00072
    23    O    1  dxz    Ryd( 5d)     0.00012
    24    O    1  dyz    Ryd( 3d)     0.01054
    25    O    1  dyz    Ryd( 4d)     0.00043
    26    O    1  dyz    Ryd( 5d)     0.00011
    27    O    1  dx2y2  Ryd( 3d)     0.00979
    28    O    1  dx2y2  Ryd( 4d)     0.00036
    29    O    1  dx2y2  Ryd( 5d)     0.00014
    30    O    1  dz2    Ryd( 3d)     0.00917
    31    O    1  dz2    Ryd( 4d)     0.00045
    32    O    1  dz2    Ryd( 5d)     0.00013
    33    O    1  f(0)   Ryd( 4f)     0.00057
    34    O    1  f(0)   Ryd( 5f)     0.00010
    35    O    1  f(C1)  Ryd( 4f)     0.00044
    36    O    1  f(C1)  Ryd( 5f)     0.00009
    37    O    1  f(S1)  Ryd( 4f)     0.00062
    38    O    1  f(S1)  Ryd( 5f)     0.00011
    39    O    1  f(C2)  Ryd( 4f)     0.00067
    40    O    1  f(C2)  Ryd( 5f)     0.00014
    41    O    1  f(S2)  Ryd( 4f)     0.00052
    42    O    1  f(S2)  Ryd( 5f)     0.00009
    43    O    1  f(C3)  Ryd( 4f)     0.00045
    44    O    1  f(C3)  Ryd( 5f)     0.00010
    45    O    1  f(S3)  Ryd( 4f)     0.00065
    46    O    1  f(S3)  Ryd( 5f)     0.00015

    47    H    2  S      Val( 1S)     0.54786
    48    H    2  S      Ryd( 2S)     0.00172
    49    H    2  S      Ryd( 3S)     0.00039
    50    H    2  S      Ryd( 4S)     0.00014
    51    H    2  px     Ryd( 3p)     0.00023
    52    H    2  px     Ryd( 2p)     0.00066
    53    H    2  px     Ryd( 4p)     0.00017
    54    H    2  py     Ryd( 2p)     0.00095
    55    H    2  py     Ryd( 3p)     0.00016
    56    H    2  py     Ryd( 4p)     0.00006
    57    H    2  pz     Ryd( 2p)     0.00092
    58    H    2  pz     Ryd( 3p)     0.00014
    59    H    2  pz     Ryd( 4p)     0.00006
    60    H    2  dxy    Ryd( 3d)     0.00023
    61    H    2  dxy    Ryd( 4d)     0.00007
    62    H    2  dxz    Ryd( 3d)     0.00021
    63    H    2  dxz    Ryd( 4d)     0.00007
    64    H    2  dyz    Ryd( 3d)     0.00010
    65    H    2  dyz    Ryd( 4d)     0.00005
    66    H    2  dx2y2  Ryd( 3d)     0.00015
    67    H    2  dx2y2  Ryd( 4d)     0.00006
    68    H    2  dz2    Ryd( 3d)     0.00011
    69    H    2  dz2    Ryd( 4d)     0.00006

    70   Br    3  S      Cor( 1S)     2.00003
    71   Br    3  S      Cor( 2S)     2.00000
    72   Br    3  S      Cor( 3S)     2.00000
    73   Br    3  S      Val( 4S)     1.98096
    74   Br    3  S      Ryd( 5S)     0.00426
    75   Br    3  S      Ryd( 6S)     0.00068
    76   Br    3  S      Ryd( 7S)     0.00016
    77   Br    3  px     Cor( 2p)     2.00002
    78   Br    3  px     Cor( 3p)     2.00000
    79   Br    3  px     Val( 4p)     1.95347
    80   Br    3  px     Ryd( 5p)     0.01240
    81   Br    3  px     Ryd( 6p)     0.00085
    82   Br    3  px     Ryd( 7p)     0.00005
    83   Br    3  py     Cor( 2p)     2.00002
    84   Br    3  py     Cor( 3p)     2.00000
    85   Br    3  py     Val( 4p)     1.94676
    86   Br    3  py     Ryd( 5p)     0.01161
    87   Br    3  py     Ryd( 6p)     0.00084
    88   Br    3  py     Ryd( 7p)     0.00006
    89   Br    3  pz     Cor( 2p)     2.00002
    90   Br    3  pz     Cor( 3p)     2.00000
    91   Br    3  pz     Val( 4p)     1.95184
    92   Br    3  pz     Ryd( 5p)     0.01232
    93   Br    3  pz     Ryd( 6p)     0.00085
    94   Br    3  pz     Ryd( 7p)     0.00005
    95   Br    3  dxy    Cor( 3d)     1.99768
    96   Br    3  dxy    Ryd( 4d)     0.01884
    97   Br    3  dxy    Ryd( 5d)     0.00168
    98   Br    3  dxy    Ryd( 6d)     0.00022
    99   Br    3  dxz    Cor( 3d)     1.99769
   100   Br    3  dxz    Ryd( 4d)     0.01880
   101   Br    3  dxz    Ryd( 5d)     0.00180
   102   Br    3  dxz    Ryd( 6d)     0.00023
   103   Br    3  dyz    Cor( 3d)     1.99768
   104   Br    3  dyz    Ryd( 4d)     0.01902
   105   Br    3  dyz    Ryd( 5d)     0.00168
   106   Br    3  dyz    Ryd( 6d)     0.00026
   107   Br    3  dx2y2  Cor( 3d)     1.99768
   108   Br    3  dx2y2  Ryd( 4d)     0.01869
   109   Br    3  dx2y2  Ryd( 5d)     0.00171
   110   Br    3  dx2y2  Ryd( 6d)     0.00027
   111   Br    3  dz2    Cor( 3d)     1.99769
   112   Br    3  dz2    Ryd( 4d)     0.01875
   113   Br    3  dz2    Ryd( 5d)     0.00177
   114   Br    3  dz2    Ryd( 6d)     0.00024
   115   Br    3  f(0)   Ryd( 4f)     0.00176
   116   Br    3  f(0)   Ryd( 5f)     0.00026
   117   Br    3  f(C1)  Ryd( 4f)     0.00176
   118   Br    3  f(C1)  Ryd( 5f)     0.00025
   119   Br    3  f(S1)  Ryd( 4f)     0.00176
   120   Br    3  f(S1)  Ryd( 5f)     0.00026
   121   Br    3  f(C2)  Ryd( 4f)     0.00176
   122   Br    3  f(C2)  Ryd( 5f)     0.00027
   123   Br    3  f(S2)  Ryd( 4f)     0.00177
   124   Br    3  f(S2)  Ryd( 5f)     0.00025
   125   Br    3  f(C3)  Ryd( 4f)     0.00175
   126   Br    3  f(C3)  Ryd( 5f)     0.00026
   127   Br    3  f(S3)  Ryd( 4f)     0.00175
   128   Br    3  f(S3)  Ryd( 5f)     0.00026

   129    H    4  S      Val( 1S)     0.50086
   130    H    4  S      Ryd( 2S)     0.00355
   131    H    4  S      Ryd( 3S)     0.00042
   132    H    4  S      Ryd( 4S)     0.00012
   133    H    4  px     Ryd( 2p)     0.00303
   134    H    4  px     Ryd( 3p)     0.00034
   135    H    4  px     Ryd( 4p)     0.00009
   136    H    4  py     Ryd( 2p)     0.00458
   137    H    4  py     Ryd( 3p)     0.00042
   138    H    4  py     Ryd( 4p)     0.00017
   139    H    4  pz     Ryd( 2p)     0.00288
   140    H    4  pz     Ryd( 3p)     0.00044
   141    H    4  pz     Ryd( 4p)     0.00016
   142    H    4  dxy    Ryd( 3d)     0.00017
   143    H    4  dxy    Ryd( 4d)     0.00008
   144    H    4  dxz    Ryd( 3d)     0.00010
   145    H    4  dxz    Ryd( 4d)     0.00007
   146    H    4  dyz    Ryd( 3d)     0.00024
   147    H    4  dyz    Ryd( 4d)     0.00007
   148    H    4  dx2y2  Ryd( 3d)     0.00026
   149    H    4  dx2y2  Ryd( 4d)     0.00009
   150    H    4  dz2    Ryd( 3d)     0.00012
   151    H    4  dz2    Ryd( 4d)     0.00008

 WARNING:  5 low occupancy (<1.9990e) core orbitals found on Br    3


 Summary of Natural Population Analysis:                  
                                                          
                                       Natural Population 
                Natural  -----------------------------------------------
    Atom  No    Charge         Core      Valence    Rydberg      Total
 -----------------------------------------------------------------------
      O    1   -0.94331      1.99968     6.83502    0.10862     8.94331
      H    2    0.44543      0.00000     0.54786    0.00672     0.55457
     Br    3   -0.98377     27.98852     7.83303    0.16222    35.98377
      H    4    0.48166      0.00000     0.50086    0.01748     0.51834
 =======================================================================
   * Total *   -1.00000     29.98820    15.71677    0.29504    46.00000

                                 Natural Population      
 --------------------------------------------------------
   Core                      29.98820 ( 99.9607% of  30)
   Valence                   15.71677 ( 98.2298% of  16)
   Natural Minimal Basis     45.70496 ( 99.3586% of  46)
   Natural Rydberg Basis      0.29504 (  0.6414% of  46)
 --------------------------------------------------------

    Atom  No          Natural Electron Configuration
 ----------------------------------------------------------------------------
      O    1      [core]2S( 1.75)2p( 5.09)3S( 0.01)3p( 0.04)3d( 0.05)
      H    2            1S( 0.55)
     Br    3      [core]4S( 1.98)4p( 5.85)4d( 0.09)5p( 0.04)4f( 0.01)5d( 0.01)
      H    4            1S( 0.50)2p( 0.01)


 NATURAL BOND ORBITAL ANALYSIS:
 Warning:  a bond orbital has occupanc of -0.00001

                       Occupancies       Lewis Structure    Low   High
           Occ.    -------------------  -----------------   occ   occ
  Cycle   Thresh.   Lewis   Non-Lewis     CR  BD  3C  LP    (L)   (NL)   Dev
 =============================================================================
   1(1)    1.90    45.68727   0.31273     15   2   0   6     0      0    0.01
 -----------------------------------------------------------------------------

 Structure accepted: No low occupancy Lewis orbitals

 WARNING:  5 low occupancy (<1.9990e) core orbitals found on Br    3

 --------------------------------------------------------
   Core                     29.98820 ( 99.961% of  30)
   Valence Lewis            15.69907 ( 98.119% of  16)
  ==================       ============================
   Total Lewis              45.68727 ( 99.320% of  46)
  -----------------------------------------------------
   Valence non-Lewis         0.04925 (  0.107% of  46)
   Rydberg non-Lewis         0.26348 (  0.573% of  46)
  ==================       ============================
   Total non-Lewis           0.31273 (  0.680% of  46)
 --------------------------------------------------------


       (Occupancy)   Bond orbital/ Coefficients/ Hybrids
 ---------------------------------------------------------------------------------
     1. (1.96638) BD ( 1) O   1 - H   2  
                ( 72.91%)   0.8539* O   1 s( 20.66%)p 3.82( 78.86%)d 0.02(  0.46%)
                                                  f 0.00(  0.01%)
                                            0.0002  0.4545 -0.0052  0.0039 -0.0048
                                            0.8850 -0.0307  0.0081 -0.0003  0.0514
                                           -0.0106  0.0008 -0.0022 -0.0373  0.0129
                                           -0.0011  0.0016 -0.0112 -0.0003  0.0022
                                            0.0190 -0.0030 -0.0001 -0.0058 -0.0000
                                            0.0016  0.0554 -0.0031  0.0024 -0.0315
                                            0.0017 -0.0013 -0.0000  0.0004 -0.0045
                                           -0.0019 -0.0004  0.0002 -0.0004 -0.0001
                                           -0.0062  0.0018  0.0069  0.0019  0.0009
                                           -0.0001
                ( 27.09%)   0.5205* H   2 s( 99.90%)p 0.00(  0.09%)d 0.00(  0.01%)
                                            0.9995  0.0036 -0.0002  0.0002 -0.0029
                                            0.0298 -0.0040  0.0034  0.0012 -0.0006
                                            0.0004  0.0019 -0.0003  0.0029 -0.0017
                                            0.0011  0.0011 -0.0026 -0.0008  0.0078
                                           -0.0013 -0.0034  0.0008
     2. (1.96713) BD ( 1) O   1 - H   4  
                ( 75.57%)   0.8693* O   1 s( 22.80%)p 3.36( 76.71%)d 0.02(  0.47%)
                                                  f 0.00(  0.01%)
                                           -0.0003 -0.4775 -0.0006 -0.0015  0.0012
                                            0.1825 -0.0186 -0.0004  0.0024  0.5845
                                           -0.0145  0.0058 -0.0009 -0.6256  0.0124
                                           -0.0073  0.0050  0.0093 -0.0044  0.0021
                                           -0.0087  0.0043 -0.0020  0.0598 -0.0025
                                           -0.0020  0.0217 -0.0012  0.0008 -0.0211
                                            0.0024 -0.0014  0.0067 -0.0016  0.0005
                                            0.0008  0.0072  0.0011  0.0029  0.0028
                                           -0.0027 -0.0008 -0.0005 -0.0010  0.0037
                                           -0.0030
                ( 24.43%)   0.4943* H   4 s( 99.85%)p 0.00(  0.14%)d 0.00(  0.01%)
                                           -0.9992 -0.0090 -0.0003 -0.0001 -0.0195
                                            0.0014  0.0009 -0.0059 -0.0152 -0.0054
                                           -0.0185  0.0179  0.0080 -0.0001  0.0018
                                            0.0008 -0.0020  0.0023  0.0007 -0.0072
                                           -0.0003  0.0022  0.0007
     3. (1.99968) CR ( 1) O   1           s(100.00%)
                                            1.0000 -0.0004  0.0000 -0.0000  0.0000
                                           -0.0001  0.0000 -0.0000  0.0000  0.0001
                                           -0.0000  0.0000  0.0000 -0.0000  0.0000
                                           -0.0000  0.0000  0.0000 -0.0000  0.0000
                                            0.0000  0.0000 -0.0000  0.0000 -0.0000
                                           -0.0000 -0.0000  0.0000  0.0000  0.0000
                                            0.0000 -0.0000  0.0000 -0.0000  0.0000
                                            0.0000  0.0000  0.0000  0.0000  0.0000
                                            0.0000 -0.0000 -0.0000 -0.0000  0.0000
                                           -0.0000
     4. (2.00003) CR ( 1)Br   3           s(100.00%)
                                            1.0000 -0.0000 -0.0000 -0.0000 -0.0000
                                           -0.0000  0.0000  0.0000 -0.0000 -0.0000
                                           -0.0000 -0.0000  0.0000  0.0000 -0.0000
                                           -0.0000 -0.0000  0.0000  0.0000  0.0000
                                            0.0000 -0.0000 -0.0000  0.0000 -0.0000
                                            0.0000 -0.0000  0.0000 -0.0000  0.0000
                                           -0.0000  0.0000 -0.0000  0.0000 -0.0000
                                            0.0000 -0.0000 -0.0000  0.0000 -0.0000
                                           -0.0000 -0.0000 -0.0000  0.0000 -0.0000
                                            0.0000  0.0000 -0.0000  0.0000 -0.0000
                                           -0.0000  0.0000  0.0000 -0.0000 -0.0000
                                            0.0000  0.0000  0.0000  0.0000
     5. (2.00000) CR ( 2)Br   3           s(100.00%)
                                           -0.0000  1.0000 -0.0000 -0.0000 -0.0000
                                           -0.0000  0.0000  0.0000 -0.0000 -0.0000
                                           -0.0000 -0.0000  0.0000  0.0000 -0.0000
                                           -0.0000 -0.0000  0.0000  0.0000  0.0000
                                            0.0000 -0.0000 -0.0000  0.0000 -0.0000
                                            0.0000 -0.0000  0.0000 -0.0000  0.0000
                                           -0.0000  0.0000 -0.0000  0.0000 -0.0000
                                            0.0000 -0.0000 -0.0000  0.0000 -0.0000
                                           -0.0000 -0.0000  0.0000  0.0000 -0.0000
                                            0.0000  0.0000  0.0000  0.0000 -0.0000
                                            0.0000  0.0000  0.0000 -0.0000 -0.0000
                                            0.0000  0.0000  0.0000  0.0000
     6. (2.00000) CR ( 3)Br   3           s(100.00%)
                                           -0.0000 -0.0000  1.0000 -0.0000 -0.0000
                                           -0.0000  0.0000  0.0000 -0.0000 -0.0000
                                           -0.0000 -0.0000  0.0000  0.0000 -0.0000
                                           -0.0000 -0.0000  0.0000  0.0000  0.0000
                                            0.0000 -0.0000 -0.0000  0.0000 -0.0000
                                            0.0000 -0.0000  0.0000 -0.0000  0.0000
                                           -0.0000  0.0000 -0.0000  0.0000 -0.0000
                                            0.0000 -0.0000 -0.0000  0.0000 -0.0000
                                           -0.0000 -0.0000  0.0000  0.0000 -0.0000
                                            0.0000  0.0000  0.0000  0.0000 -0.0000
                                            0.0000  0.0000  0.0000 -0.0000 -0.0000
                                            0.0000  0.0000  0.0000  0.0000
     7. (2.00002) CR ( 4)Br   3           s(  0.00%)p 1.00(100.00%)
                                            0.0000  0.0000  0.0000  0.0000 -0.0000
                                           -0.0000  0.0000  1.0000  0.0000 -0.0000
                                           -0.0000 -0.0000  0.0000 -0.0000  0.0000
                                            0.0000 -0.0000 -0.0000  0.0000 -0.0000
                                           -0.0000  0.0000  0.0000  0.0000  0.0000
                                            0.0000 -0.0000  0.0000  0.0000  0.0000
                                           -0.0000  0.0000 -0.0000 -0.0000  0.0000
                                           -0.0000  0.0000  0.0000 -0.0000  0.0000
                                           -0.0000 -0.0000  0.0000 -0.0000  0.0000
                                           -0.0000 -0.0000  0.0000  0.0000  0.0000
                                            0.0000 -0.0000 -0.0000 -0.0000 -0.0000
                                            0.0000  0.0000 -0.0000 -0.0000
     8. (2.00000) CR ( 5)Br   3           s(  0.00%)p 1.00(100.00%)
                                           -0.0000 -0.0000 -0.0000  0.0000  0.0000
                                            0.0000 -0.0000  0.0000  1.0000  0.0000
                                            0.0000  0.0000 -0.0000  0.0000 -0.0000
                                           -0.0000  0.0000  0.0000 -0.0000  0.0000
                                            0.0000 -0.0000 -0.0000 -0.0000 -0.0000
                                            0.0000  0.0000 -0.0000 -0.0000 -0.0000
                                            0.0000 -0.0000  0.0000  0.0000 -0.0000
                                            0.0000 -0.0000 -0.0000  0.0000 -0.0000
                                            0.0000 -0.0000 -0.0000  0.0000 -0.0000
                                            0.0000  0.0000 -0.0000 -0.0000 -0.0000
                                           -0.0000  0.0000  0.0000  0.0000  0.0000
                                           -0.0000  0.0000  0.0000  0.0000
     9. (2.00002) CR ( 6)Br   3           s(  0.00%)p 1.00(100.00%)
                                            0.0000  0.0000  0.0000  0.0000  0.0000
                                            0.0000 -0.0000 -0.0000  0.0000  0.0000
                                            0.0000  0.0000 -0.0000  1.0000  0.0000
                                            0.0000  0.0000 -0.0000 -0.0000 -0.0000
                                           -0.0000  0.0000  0.0000 -0.0000  0.0000
                                           -0.0000  0.0000 -0.0000  0.0000 -0.0000
                                            0.0000 -0.0000  0.0000 -0.0000  0.0000
                                           -0.0000  0.0000  0.0000 -0.0000  0.0000
                                            0.0000  0.0000 -0.0000 -0.0000  0.0000
                                           -0.0000 -0.0000 -0.0000 -0.0000  0.0000
                                            0.0000 -0.0000 -0.0000  0.0000  0.0000
                                           -0.0000 -0.0000 -0.0000 -0.0000
    10. (2.00000) CR ( 7)Br   3           s(  0.00%)p 1.00(100.00%)
                                           -0.0000 -0.0000 -0.0000 -0.0000 -0.0000
                                           -0.0000 -0.0000  0.0000 -0.0000 -0.0000
                                           -0.0000 -0.0000  0.0000  0.0000  1.0000
                                           -0.0000 -0.0000  0.0000  0.0000  0.0000
                                            0.0000 -0.0000 -0.0000  0.0000 -0.0000
                                            0.0000 -0.0000  0.0000 -0.0000  0.0000
                                           -0.0000  0.0000 -0.0000  0.0000 -0.0000
                                            0.0000 -0.0000 -0.0000  0.0000 -0.0000
                                           -0.0000 -0.0000  0.0000 -0.0000 -0.0000
                                            0.0000  0.0000  0.0000  0.0000 -0.0000
                                            0.0000  0.0000  0.0000 -0.0000 -0.0000
                                            0.0000  0.0000  0.0000  0.0000
    11. (2.00002) CR ( 8)Br   3           s(  0.00%)p 1.00(100.00%)
                                            0.0000  0.0000  0.0000  0.0000  0.0000
                                           -0.0000  0.0000 -0.0000  0.0000  0.0000
                                            0.0000  0.0000 -0.0000 -0.0000  0.0000
                                            0.0000 -0.0000 -0.0000  0.0000  1.0000
                                           -0.0000 -0.0000  0.0000 -0.0000  0.0000
                                           -0.0000  0.0000 -0.0000  0.0000 -0.0000
                                            0.0000 -0.0000 -0.0000 -0.0000  0.0000
                                           -0.0000  0.0000  0.0000 -0.0000  0.0000
                                            0.0000  0.0000 -0.0000  0.0000 -0.0000
                                           -0.0000 -0.0000 -0.0000 -0.0000 -0.0000
                                           -0.0000 -0.0000 -0.0000  0.0000  0.0000
                                           -0.0000 -0.0000 -0.0000 -0.0000
    12. (2.00000) CR ( 9)Br   3           s(  0.00%)p 1.00(100.00%)
                                            0.0000  0.0000  0.0000  0.0000  0.0000
                                            0.0000 -0.0000 -0.0000  0.0000  0.0000
                                            0.0000 -0.0000 -0.0000 -0.0000  0.0000
                                            0.0000  0.0000 -0.0000 -0.0000 -0.0000
                                            1.0000  0.0000  0.0000 -0.0000  0.0000
                                           -0.0000  0.0000 -0.0000  0.0000 -0.0000
                                            0.0000 -0.0000  0.0000 -0.0000  0.0000
                                           -0.0000  0.0000  0.0000 -0.0000  0.0000
                                           -0.0000 -0.0000  0.0000 -0.0000  0.0000
                                           -0.0000 -0.0000  0.0000  0.0000  0.0000
                                            0.0000 -0.0000 -0.0000  0.0000  0.0000
                                           -0.0000 -0.0000 -0.0000 -0.0000
    13. (1.99768) CR (10)Br   3           s(  0.00%)p 0.00(  0.00%)d 1.00(100.00%)
                                            0.0000  0.0000  0.0000  0.0000  0.0000
                                            0.0000 -0.0000  0.0000  0.0000  0.0000
                                            0.0000  0.0000 -0.0000 -0.0000  0.0000
                                            0.0000  0.0000 -0.0000 -0.0000 -0.0000
                                           -0.0000  0.0000  0.0000 -0.0000  0.0000
                                            1.0000  0.0000 -0.0000  0.0000 -0.0000
                                            0.0000 -0.0000  0.0000 -0.0000  0.0000
                                           -0.0000  0.0000  0.0000 -0.0000  0.0000
                                            0.0000  0.0000 -0.0000  0.0000 -0.0000
                                           -0.0000 -0.0000 -0.0000 -0.0000 -0.0000
                                           -0.0000 -0.0000 -0.0000  0.0000  0.0000
                                           -0.0000 -0.0000 -0.0000 -0.0000
    14. (1.99769) CR (11)Br   3           s(  0.00%)p 0.00(  0.00%)d 1.00(100.00%)
                                            0.0000  0.0000  0.0000  0.0000  0.0000
                                            0.0000 -0.0000  0.0000 -0.0000  0.0000
                                            0.0000  0.0000 -0.0000 -0.0000  0.0000
                                            0.0000  0.0000 -0.0000 -0.0000 -0.0000
                                           -0.0000  0.0000  0.0000 -0.0000  0.0000
                                           -0.0000  0.0000 -0.0000  0.0000  1.0000
                                            0.0000 -0.0000  0.0000 -0.0000  0.0000
                                           -0.0000  0.0000  0.0000 -0.0000 -0.0000
                                            0.0000  0.0000 -0.0000  0.0000  0.0000
                                           -0.0000 -0.0000 -0.0000 -0.0000  0.0000
                                            0.0000 -0.0000 -0.0000  0.0000  0.0000
                                           -0.0000 -0.0000  0.0000  0.0000
    15. (1.99768) CR (12)Br   3           s(  0.00%)p 0.00(  0.00%)d 1.00(100.00%)
                                            0.0000  0.0000  0.0000  0.0000  0.0000
                                            0.0000 -0.0000 -0.0000  0.0000  0.0000
                                            0.0000  0.0000 -0.0000 -0.0000  0.0000
                                            0.0000  0.0000 -0.0000 -0.0000 -0.0000
                                           -0.0000  0.0000  0.0000 -0.0000  0.0000
                                           -0.0000  0.0000 -0.0000  0.0000 -0.0000
                                            0.0000 -0.0000  0.0000  1.0000  0.0000
                                           -0.0000  0.0000  0.0000 -0.0000  0.0000
                                            0.0000  0.0000 -0.0000 -0.0000  0.0000
                                           -0.0000 -0.0000 -0.0000 -0.0000  0.0000
                                           -0.0000 -0.0000 -0.0000  0.0000  0.0000
                                           -0.0000 -0.0000 -0.0000 -0.0000
    16. (1.99768) CR (13)Br   3           s(  0.00%)p 0.00(  0.00%)d 1.00(100.00%)
                                           -0.0000 -0.0000 -0.0000 -0.0000 -0.0000
                                           -0.0000 -0.0000  0.0000 -0.0000 -0.0000
                                           -0.0000  0.0000  0.0000  0.0000 -0.0000
                                           -0.0000 -0.0000  0.0000  0.0000  0.0000
                                            0.0000 -0.0000 -0.0000  0.0000 -0.0000
                                            0.0000 -0.0000  0.0000 -0.0000  0.0000
                                           -0.0000  0.0000 -0.0000  0.0000 -0.0000
                                            0.0000 -0.0000  1.0000  0.0000 -0.0000
                                           -0.0000 -0.0000  0.0000 -0.0000 -0.0000
                                            0.0000  0.0000  0.0000  0.0000  0.0000
                                            0.0000  0.0000  0.0000 -0.0000 -0.0000
                                            0.0000  0.0000  0.0000  0.0000
    17. (1.99769) CR (14)Br   3           s(  0.00%)p 0.00(  0.00%)d 1.00(100.00%)
                                           -0.0000 -0.0000 -0.0000 -0.0000 -0.0000
                                            0.0000 -0.0000 -0.0000 -0.0000 -0.0000
                                           -0.0000 -0.0000  0.0000  0.0000 -0.0000
                                           -0.0000  0.0000  0.0000 -0.0000  0.0000
                                           -0.0000  0.0000 -0.0000  0.0000 -0.0000
                                            0.0000 -0.0000  0.0000 -0.0000  0.0000
                                           -0.0000  0.0000 -0.0000  0.0000 -0.0000
                                            0.0000 -0.0000 -0.0000  0.0000 -0.0000
                                           -0.0000  1.0000  0.0000 -0.0000  0.0000
                                            0.0000  0.0000  0.0000  0.0000  0.0000
                                            0.0000  0.0000  0.0000 -0.0000 -0.0000
                                            0.0000  0.0000  0.0000  0.0000
    18. (1.97088) LP ( 1) O   1           s( 56.36%)p 0.77( 43.51%)d 0.00(  0.13%)
                                                  f 0.00(  0.00%)
                                            0.0003  0.7507  0.0026 -0.0020  0.0026
                                           -0.4205 -0.0026  0.0036 -0.0013  0.3694
                                            0.0088 -0.0037  0.0011 -0.3488 -0.0068
                                            0.0029  0.0009  0.0210 -0.0019 -0.0022
                                           -0.0251  0.0039  0.0007  0.0137 -0.0021
                                            0.0002 -0.0026  0.0013 -0.0030 -0.0010
                                            0.0003  0.0007  0.0034 -0.0015 -0.0001
                                            0.0000  0.0016 -0.0004 -0.0010  0.0010
                                            0.0027 -0.0005 -0.0006  0.0003  0.0035
                                           -0.0019
    19. (1.96099) LP ( 2) O   1           s(  0.11%)p99.99( 99.55%)d 2.80(  0.31%)
                                                  f 0.23(  0.03%)
                                            0.0000  0.0293 -0.0134 -0.0087 -0.0002
                                           -0.0026 -0.0007  0.0008 -0.0019 -0.7169
                                           -0.0219  0.0045 -0.0013 -0.6932 -0.0242
                                            0.0058 -0.0019 -0.0306  0.0096 -0.0048
                                           -0.0299  0.0089 -0.0044 -0.0090  0.0028
                                           -0.0023 -0.0116 -0.0007  0.0030 -0.0284
                                            0.0007  0.0044  0.0000 -0.0012  0.0013
                                           -0.0004  0.0072 -0.0022 -0.0106  0.0039
                                           -0.0002  0.0003  0.0004  0.0006 -0.0075
                                            0.0040
    20. (1.98105) LP ( 1)Br   3           s( 99.83%)p 0.00(  0.17%)d 0.00(  0.00%)
                                                  f 0.00(  0.00%)
                                           -0.0000 -0.0000 -0.0000  0.9991 -0.0001
                                           -0.0000 -0.0000 -0.0000 -0.0000 -0.0063
                                            0.0004 -0.0000  0.0001 -0.0000 -0.0000
                                           -0.0398  0.0005 -0.0003 -0.0000 -0.0000
                                           -0.0000 -0.0105  0.0008 -0.0001  0.0002
                                           -0.0000  0.0007 -0.0003  0.0000 -0.0000
                                            0.0003 -0.0001 -0.0000 -0.0000  0.0018
                                           -0.0006  0.0001  0.0000 -0.0007  0.0002
                                            0.0002  0.0000 -0.0004  0.0001 -0.0000
                                           -0.0004 -0.0003 -0.0000 -0.0000 -0.0001
                                           -0.0001 -0.0005 -0.0004  0.0002  0.0002
                                           -0.0002 -0.0002 -0.0002 -0.0001
    21. (1.95401) LP ( 2)Br   3           s(  0.00%)p 1.00( 99.99%)d 0.00(  0.00%)
                                                  f 0.00(  0.00%)
                                           -0.0000 -0.0000 -0.0000  0.0037 -0.0002
                                           -0.0005  0.0009  0.0000 -0.0000  0.8090
                                            0.0004  0.0006 -0.0002  0.0000  0.0000
                                            0.1175 -0.0009 -0.0000 -0.0003 -0.0000
                                            0.0000 -0.5758  0.0010 -0.0001 -0.0000
                                           -0.0000  0.0029 -0.0011  0.0004 -0.0000
                                            0.0018 -0.0009  0.0009  0.0000 -0.0004
                                           -0.0003  0.0008 -0.0000  0.0025 -0.0013
                                            0.0016  0.0000 -0.0028  0.0017 -0.0017
                                           -0.0003 -0.0003 -0.0003 -0.0003 -0.0011
                                           -0.0010  0.0001 -0.0000  0.0009  0.0008
                                           -0.0005 -0.0004  0.0006  0.0006
    22. (1.95382) LP ( 3)Br   3           s(  0.01%)p99.99( 99.99%)d 0.27(  0.00%)
                                                  f 0.06(  0.00%)
                                           -0.0000 -0.0000 -0.0000  0.0087 -0.0019
                                           -0.0033  0.0044 -0.0000  0.0000 -0.5528
                                           -0.0002 -0.0004  0.0000  0.0000  0.0000
                                            0.4847 -0.0028 -0.0005  0.0010 -0.0000
                                            0.0000 -0.6777  0.0016  0.0000 -0.0000
                                            0.0000 -0.0013  0.0002  0.0003  0.0000
                                           -0.0029  0.0016 -0.0017 -0.0000  0.0013
                                           -0.0012  0.0019  0.0000 -0.0013  0.0008
                                           -0.0001  0.0000 -0.0019  0.0011 -0.0007
                                           -0.0004 -0.0005 -0.0002 -0.0002 -0.0012
                                           -0.0011 -0.0008 -0.0010 -0.0009 -0.0008
                                           -0.0000 -0.0001 -0.0006 -0.0006
    23. (1.94482) LP ( 4)Br   3           s(  0.16%)p99.99( 99.82%)d 0.11(  0.02%)
                                                  f 0.01(  0.00%)
                                            0.0000  0.0000  0.0000  0.0405  0.0017
                                            0.0010 -0.0002 -0.0000  0.0000  0.1994
                                            0.0013  0.0001 -0.0004 -0.0000  0.0000
                                            0.8657  0.0010 -0.0006 -0.0004 -0.0000
                                           -0.0000  0.4571  0.0035 -0.0001  0.0004
                                           -0.0000  0.0037 -0.0013  0.0007 -0.0000
                                            0.0028 -0.0010  0.0006 -0.0000  0.0106
                                           -0.0034  0.0021  0.0000 -0.0042  0.0009
                                            0.0005  0.0000 -0.0006 -0.0000  0.0004
                                           -0.0017 -0.0013 -0.0001 -0.0002  0.0002
                                           -0.0001 -0.0021 -0.0016  0.0010  0.0006
                                           -0.0009 -0.0007 -0.0007 -0.0006
    24. (0.02017) RY*( 1) O   1           s(  0.13%)p99.99( 96.96%)d21.01(  2.83%)
                                                  f 0.62(  0.08%)
                                            0.0000 -0.0008  0.0325  0.0168  0.0016
                                            0.0000  0.0018 -0.0027  0.0041 -0.0302
                                            0.7106  0.0277 -0.0110 -0.0293  0.6793
                                            0.0217 -0.0080  0.1060 -0.0261  0.0110
                                            0.0968 -0.0242  0.0109  0.0273 -0.0074
                                            0.0051  0.0234 -0.0028 -0.0020  0.0684
                                           -0.0088 -0.0029 -0.0035  0.0019  0.0031
                                            0.0003 -0.0075  0.0074  0.0145 -0.0116
                                            0.0019 -0.0013  0.0032 -0.0015  0.0145
                                           -0.0111
    25. (0.01491) RY*( 2) O   1           s( 21.58%)p 3.44( 74.32%)d 0.18(  3.95%)
                                                  f 0.01(  0.15%)
                                           -0.0000 -0.0108  0.4632 -0.0343  0.0038
                                            0.0106 -0.5033 -0.0138  0.0006 -0.0083
                                            0.4752  0.0100 -0.0107  0.0047 -0.5131
                                           -0.0124  0.0085  0.1151 -0.0076 -0.0046
                                           -0.1544  0.0173 -0.0009  0.0366 -0.0118
                                           -0.0035 -0.0162  0.0072 -0.0075 -0.0102
                                           -0.0039  0.0046  0.0126 -0.0093 -0.0125
                                            0.0050 -0.0089  0.0026 -0.0174  0.0082
                                            0.0117 -0.0049  0.0105 -0.0027  0.0149
                                           -0.0091
    26. (0.00708) RY*( 3) O   1           s(  3.64%)p16.17( 58.80%)d10.12( 36.82%)
                                                  f 0.20(  0.74%)
                                            0.0000  0.0039  0.1872 -0.0332  0.0141
                                           -0.0555 -0.6032 -0.0195 -0.0152 -0.0205
                                           -0.3183 -0.0100 -0.0105  0.0179  0.3421
                                            0.0254 -0.0216 -0.3938 -0.0035 -0.0047
                                            0.1226 -0.0078  0.0078  0.2289  0.0318
                                           -0.0117  0.3714  0.0455 -0.0220  0.0592
                                           -0.0150  0.0123  0.0102 -0.0034 -0.0140
                                            0.0065  0.0161 -0.0018  0.0417 -0.0159
                                           -0.0225  0.0078  0.0168 -0.0069 -0.0575
                                            0.0253
    27. (0.00627) RY*( 4) O   1           s(  0.25%)p26.57(  6.74%)d99.99( 91.80%)
                                                  f 4.79(  1.21%)
                                           -0.0000  0.0028  0.0497 -0.0075  0.0011
                                           -0.0226 -0.2008 -0.0159  0.0039 -0.0179
                                           -0.1425 -0.0183  0.0113  0.0064  0.0717
                                            0.0003  0.0003  0.4299  0.0437 -0.0148
                                            0.5316  0.0430 -0.0130  0.0987  0.0127
                                           -0.0037 -0.2231 -0.0139 -0.0006 -0.6189
                                           -0.0573  0.0150 -0.0710  0.0294  0.0010
                                           -0.0010  0.0366 -0.0151  0.0322 -0.0121
                                           -0.0009 -0.0005  0.0146 -0.0068  0.0528
                                           -0.0210
    28. (0.00621) RY*( 5) O   1           s( 12.37%)p 0.73(  9.04%)d 6.27( 77.54%)
                                                  f 0.09(  1.05%)
                                            0.0000  0.0129  0.3513  0.0076 -0.0013
                                            0.0125  0.2498  0.0186 -0.0069  0.0231
                                            0.1040  0.0062 -0.0108 -0.0291 -0.1226
                                           -0.0084 -0.0022 -0.5516 -0.0372  0.0189
                                            0.5649  0.0357 -0.0171  0.0062  0.0103
                                           -0.0059 -0.3573 -0.0400  0.0135  0.1374
                                            0.0121 -0.0042 -0.0243  0.0075  0.0440
                                           -0.0108 -0.0085  0.0091  0.0091  0.0016
                                           -0.0563  0.0225 -0.0552  0.0132 -0.0257
                                            0.0063
    29. (0.00591) RY*( 6) O   1           s(  0.10%)p27.40(  2.72%)d99.99( 96.27%)
                                                  f 9.21(  0.91%)
                                            0.0000  0.0001  0.0312 -0.0046  0.0004
                                           -0.0009  0.0242  0.0012 -0.0031 -0.0273
                                           -0.0822 -0.0027 -0.0170 -0.0376 -0.1313
                                           -0.0097 -0.0074  0.4758  0.0573 -0.0166
                                            0.4788  0.0558 -0.0170 -0.0153  0.0013
                                           -0.0014  0.3306  0.0323 -0.0025  0.6208
                                            0.0628 -0.0091  0.0168 -0.0088  0.0365
                                           -0.0130 -0.0520  0.0216  0.0507 -0.0197
                                            0.0016 -0.0004  0.0226 -0.0079  0.0228
                                           -0.0075
    30. (0.00565) RY*( 7) O   1           s(  5.93%)p 1.01(  6.02%)d14.72( 87.32%)
                                                  f 0.12(  0.73%)
                                           -0.0000  0.0223  0.2425  0.0035 -0.0064
                                            0.0356  0.1490  0.0134 -0.0038 -0.0365
                                           -0.1508 -0.0176 -0.0039  0.0232  0.1073
                                            0.0065  0.0025  0.2021  0.0210 -0.0039
                                           -0.2311 -0.0262  0.0081  0.7846  0.0964
                                           -0.0096 -0.3305 -0.0403  0.0038  0.2034
                                            0.0223 -0.0035  0.0415 -0.0164  0.0150
                                           -0.0052  0.0350 -0.0142  0.0108 -0.0058
                                            0.0472 -0.0175 -0.0227  0.0079  0.0180
                                           -0.0058
    31. (0.00282) RY*( 8) O   1           s(  6.23%)p 3.81( 23.73%)d11.08( 69.02%)
                                                  f 0.17(  1.03%)
                                            0.0000 -0.0030  0.2461  0.0409 -0.0061
                                            0.0293 -0.2647  0.0108 -0.0467  0.0199
                                           -0.2792 -0.0214 -0.0483 -0.0235  0.2848
                                            0.0343 -0.0061  0.1688  0.0492  0.0028
                                           -0.1602 -0.0439  0.0004 -0.5011 -0.0889
                                           -0.0341 -0.5293 -0.0715 -0.0624  0.2834
                                            0.0119  0.0428  0.0095 -0.0017  0.0163
                                           -0.0063 -0.0593  0.0384 -0.0502  0.0241
                                            0.0011 -0.0078 -0.0304  0.0128  0.0243
                                           -0.0074
    32. (0.00224) RY*( 9) O   1           s( 47.99%)p 0.46( 21.99%)d 0.61( 29.25%)
                                                  f 0.02(  0.77%)
                                            0.0000 -0.0068  0.6900  0.0347 -0.0511
                                           -0.0114  0.4161  0.0563 -0.0044 -0.0053
                                           -0.1415 -0.0261 -0.0746 -0.0037  0.1279
                                            0.0249  0.0115  0.1116  0.0461 -0.0031
                                           -0.1308 -0.0625  0.0133 -0.1689 -0.0747
                                           -0.0174  0.3801  0.1081  0.0489 -0.2330
                                           -0.0959 -0.0165  0.0045 -0.0040 -0.0317
                                            0.0405 -0.0340  0.0306  0.0081  0.0036
                                            0.0093 -0.0007  0.0264 -0.0437 -0.0134
                                            0.0006
    33. (0.00061) RY*(10) O   1           s( 53.60%)p 0.36( 19.04%)d 0.27( 14.39%)
                                                  f 0.24( 12.98%)
                                            0.0000 -0.0033 -0.0641  0.7251  0.0782
                                           -0.0028 -0.0341 -0.0033 -0.0685 -0.0062
                                            0.0185 -0.2374 -0.2444 -0.0072 -0.0552
                                            0.2546  0.0106 -0.0097 -0.1171  0.0051
                                            0.0294  0.0012  0.0400  0.0564 -0.0114
                                            0.1523  0.0066 -0.0412 -0.0688 -0.0071
                                           -0.3071  0.0155  0.2148 -0.0585 -0.0411
                                            0.0115 -0.2676  0.0224  0.0397 -0.0487
                                           -0.0372  0.0205 -0.0204  0.0105  0.0055
                                            0.0001
    34. (0.00057) RY*(11) O   1           s(  1.93%)p 5.12(  9.88%)d37.79( 72.89%)
                                                  f 7.94( 15.31%)
                                            0.0000 -0.0021 -0.0052  0.1370  0.0219
                                            0.0016  0.0004  0.0919 -0.0162  0.0094
                                            0.0462 -0.2713 -0.0035  0.0093  0.0353
                                           -0.1076  0.0359 -0.0326  0.6236  0.0117
                                           -0.0218  0.5166  0.0183  0.0022  0.0199
                                            0.0144 -0.0105  0.1499 -0.0083 -0.0318
                                            0.2164 -0.0010  0.1321 -0.0225 -0.0894
                                           -0.0016  0.0802 -0.0141 -0.2294  0.0270
                                           -0.0216  0.0022 -0.0924 -0.0044 -0.2390
                                            0.0317
    35. (0.00057) RY*(12) O   1           s(  1.05%)p56.18( 59.17%)d30.69( 32.32%)
                                                  f 7.08(  7.46%)
                                           -0.0000  0.0034  0.0295  0.0901 -0.0391
                                            0.0030  0.0100 -0.4102  0.0733 -0.0110
                                           -0.0155 -0.4719  0.0136 -0.0044  0.0348
                                           -0.4397  0.0100 -0.0114 -0.3510 -0.0272
                                           -0.0079  0.0720 -0.0303  0.0026 -0.1769
                                           -0.0177 -0.0289  0.2764 -0.0086 -0.0069
                                            0.2896  0.0110  0.0470  0.0005 -0.0503
                                            0.0040  0.0058 -0.0092  0.0546  0.0085
                                            0.0383 -0.0128  0.1050 -0.0160  0.2302
                                           -0.0266
    36. (0.00052) RY*(13) O   1           s(  0.36%)p99.99( 56.10%)d86.09( 30.89%)
                                                  f35.27( 12.65%)
                                            0.0000 -0.0057 -0.0326  0.0027  0.0499
                                           -0.0052 -0.0337  0.5228 -0.0499 -0.0004
                                            0.0381 -0.4766 -0.1003 -0.0082 -0.0219
                                           -0.2023 -0.0622 -0.0059  0.1159 -0.0121
                                           -0.0003 -0.4489 -0.0417 -0.0177  0.2496
                                            0.0227  0.0147 -0.0099  0.0048 -0.0135
                                            0.1660  0.0290 -0.2655  0.0076  0.1024
                                            0.0002 -0.0673 -0.0074  0.1617 -0.0087
                                           -0.0821  0.0086 -0.0875  0.0022  0.0132
                                            0.0041
    37. (0.00046) RY*(14) O   1           s(  0.79%)p31.53( 24.78%)d 8.29(  6.52%)
                                                  f86.43( 67.92%)
                                           -0.0000  0.0046 -0.0088  0.0865 -0.0169
                                            0.0027  0.0046 -0.2876 -0.0139  0.0034
                                            0.0070  0.1211 -0.0395 -0.0064 -0.0058
                                           -0.3729 -0.0971  0.0174  0.1326  0.0385
                                           -0.0130 -0.0996 -0.0120  0.0285 -0.0639
                                            0.0346 -0.0358 -0.0495 -0.0382  0.0083
                                           -0.1517 -0.0345 -0.3325 -0.0306  0.0431
                                            0.0011 -0.3264 -0.0407  0.1538 -0.0123
                                            0.1682  0.0117  0.1561  0.0195 -0.6164
                                           -0.0285
    38. (0.00044) RY*(15) O   1           s(  0.29%)p21.26(  6.26%)d13.26(  3.90%)
                                                  f99.99( 89.54%)
                                            0.0000 -0.0001  0.0044  0.0475 -0.0259
                                            0.0030  0.0072 -0.1837 -0.0006  0.0022
                                            0.0014 -0.1086 -0.0449 -0.0051 -0.0167
                                            0.1212  0.0025  0.0352 -0.0991 -0.0010
                                            0.0279 -0.1099 -0.0083 -0.0139  0.0635
                                            0.0032  0.0234 -0.0386  0.0172  0.0617
                                           -0.0555  0.0403 -0.3599 -0.0356 -0.6363
                                           -0.0675  0.3056  0.0497 -0.1266 -0.0301
                                            0.0983  0.0044 -0.4614 -0.0480 -0.1319
                                           -0.0088
    39. (0.00044) RY*(16) O   1           s(  0.54%)p54.29( 29.05%)d59.70( 31.94%)
                                                  f71.92( 38.48%)
                                           -0.0000  0.0007 -0.0179 -0.0031  0.0709
                                           -0.0037 -0.0125  0.1959 -0.0438 -0.0041
                                           -0.0074 -0.0496 -0.1244  0.0037  0.0059
                                           -0.4548 -0.1585  0.0060 -0.0897 -0.0177
                                            0.0357  0.0025  0.0459  0.0401 -0.2299
                                            0.0006  0.0485 -0.2260 -0.0222  0.0488
                                           -0.4406 -0.0524  0.0235 -0.0154  0.1234
                                            0.0052  0.2863  0.0302 -0.5237 -0.0496
                                            0.0521  0.0209  0.0256  0.0016  0.0717
                                            0.0145
    40. (0.00043) RY*(17) O   1           s(  0.40%)p 3.16(  1.27%)d 9.00(  3.63%)
                                                  f99.99( 94.69%)
                                           -0.0000  0.0000 -0.0028  0.0493  0.0399
                                            0.0028 -0.0089  0.0722  0.0158  0.0002
                                            0.0090  0.0344  0.0061 -0.0024 -0.0071
                                           -0.0699 -0.0306 -0.0600  0.1278 -0.0398
                                            0.0412 -0.0631  0.0323 -0.0449  0.0010
                                           -0.0208  0.0090 -0.0609 -0.0326 -0.0189
                                            0.0188 -0.0050  0.2512  0.0353  0.0170
                                            0.0111  0.0964  0.0133  0.2550  0.0277
                                            0.8690  0.1095 -0.1474 -0.0209  0.1313
                                            0.0204
    41. (0.00044) RY*(18) O   1           s(  2.41%)p13.99( 33.78%)d 7.39( 17.85%)
                                                  f19.04( 45.96%)
[...]
   126. (0.00004) RY*(40)Br   3           s(  0.62%)p99.99( 98.41%)d 0.94(  0.58%)
                                                  f 0.64(  0.39%)
   127. (0.00004) RY*(41)Br   3           s(  0.49%)p99.99( 98.50%)d 1.51(  0.73%)
                                                  f 0.58(  0.28%)
   128. (0.00548) RY*( 1) H   4           s( 26.61%)p 2.68( 71.38%)d 0.08(  2.01%)
                                           -0.0131  0.5092 -0.0788 -0.0193  0.1088
                                           -0.0259  0.0023  0.8343 -0.0309  0.0015
                                            0.0621  0.0087 -0.0202 -0.0109  0.0058
                                            0.0022 -0.0057 -0.1049 -0.0116  0.0747
                                           -0.0386  0.0220 -0.0354
   129. (0.00415) RY*( 2) H   4           s( 33.46%)p 1.95( 65.28%)d 0.04(  1.27%)
                                            0.0132  0.5754 -0.0472  0.0329 -0.2738
                                            0.0073 -0.0196 -0.2670 -0.0326 -0.0226
                                           -0.7003 -0.1161 -0.0254 -0.0521  0.0073
                                           -0.0238  0.0170 -0.0066 -0.0072 -0.0065
                                            0.0396  0.0792  0.0324
   130. (0.00320) RY*( 3) H   4           s( 16.38%)p 5.01( 81.97%)d 0.10(  1.65%)
                                           -0.0208  0.3786  0.1316 -0.0518  0.8283
                                            0.0014  0.0134 -0.3450 -0.0171 -0.0068
                                            0.1122 -0.0169 -0.0346 -0.0320  0.0129
                                           -0.0424  0.0022  0.0079 -0.0188  0.1071
                                            0.0109 -0.0350  0.0167
   131. (0.00148) RY*( 4) H   4           s( 31.70%)p 2.08( 65.87%)d 0.08(  2.43%)
                                           -0.0082  0.4683  0.3058  0.0639 -0.4202
                                           -0.0084  0.0088 -0.2209  0.2546 -0.0138
                                            0.5840  0.1021 -0.1293  0.0641 -0.0290
                                            0.0710 -0.0093  0.1088 -0.0304 -0.0311
                                            0.0159 -0.0092  0.0140
   132. (0.00051) RY*( 5) H   4           s( 22.47%)p 2.78( 62.40%)d 0.67( 15.13%)
                                            0.0069 -0.1282  0.4515  0.0658  0.1405
                                            0.2385 -0.0239  0.1864  0.3591 -0.0123
                                           -0.3386  0.4729 -0.2112  0.0602 -0.0021
                                            0.0877 -0.0631  0.3324 -0.0668 -0.0827
                                            0.0129  0.1183  0.0087
   133. (0.00038) RY*( 6) H   4           s(  3.02%)p28.50( 86.11%)d 3.60( 10.87%)
                                           -0.0015 -0.0223 -0.0007  0.1724  0.0774
                                           -0.8691  0.1297  0.0275  0.2564 -0.0227
                                           -0.0759  0.0725  0.0699 -0.1243 -0.1067
                                           -0.0443  0.0853  0.1048 -0.0338 -0.2417
                                           -0.0362  0.0251 -0.0129
   134. (0.00028) RY*( 7) H   4           s( 13.54%)p 3.94( 53.42%)d 2.44( 33.03%)
                                           -0.0009 -0.0339 -0.2455  0.2720  0.0093
                                            0.0616 -0.2007 -0.0515  0.2957 -0.5904
                                            0.0377  0.2206 -0.0375 -0.2433 -0.0446
                                           -0.0771  0.0813 -0.2792  0.1339  0.3181
                                            0.1803  0.1467 -0.0743
   135. (0.00022) RY*( 8) H   4           s(  7.19%)p 3.41( 24.49%)d 9.51( 68.32%)
                                           -0.0050  0.0430 -0.1750  0.1984  0.0655
                                            0.2925  0.0147 -0.0106  0.3175  0.2088
                                            0.0538 -0.0803  0.0316 -0.3575  0.1742
                                           -0.2694 -0.2170 -0.1876  0.0098 -0.5961
                                           -0.0575 -0.0565 -0.0910
   136. (0.00018) RY*( 9) H   4           s(  4.78%)p 5.25( 25.07%)d14.69( 70.15%)
                                            0.0077 -0.0084  0.1850 -0.1158 -0.0746
                                           -0.0309 -0.1217  0.0510 -0.4335 -0.1416
                                            0.0770  0.0356 -0.1079 -0.6450 -0.1144
                                           -0.3130 -0.1247  0.3646  0.0525 -0.0091
                                            0.0563  0.0567  0.1295
   137. (0.00014) RY*(10) H   4           s( 11.43%)p 4.04( 46.20%)d 3.71( 42.37%)
                                           -0.0139 -0.1319  0.3000 -0.0821 -0.0051
                                           -0.0731 -0.0519  0.0781  0.1767 -0.0221
                                           -0.0769 -0.3977 -0.5021 -0.0109 -0.2061
                                           -0.1558 -0.0380 -0.3927 -0.2287  0.0561
                                            0.1660 -0.2144  0.2688
   138. (0.00014) RY*(11) H   4           s(  5.99%)p 5.53( 33.13%)d10.16( 60.88%)
                                            0.0002  0.0116  0.0193  0.2437  0.0948
                                            0.0636  0.0141  0.0776 -0.1398 -0.4365
                                            0.0428 -0.3164 -0.0070  0.2456  0.0650
                                            0.2414 -0.0361  0.1935  0.2423 -0.4342
                                            0.2552  0.1111  0.3500
   139. (0.00009) RY*(12) H   4           s( 18.62%)p 2.61( 48.52%)d 1.77( 32.87%)
   140. (0.00009) RY*(13) H   4           s(  9.05%)p 4.31( 39.00%)d 5.74( 51.95%)
   141. (0.00008) RY*(14) H   4           s(  2.62%)p 7.08( 18.55%)d30.10( 78.83%)
   142. (0.00007) RY*(15) H   4           s(  6.43%)p 0.35(  2.28%)d14.20( 91.29%)
   143. (0.00007) RY*(16) H   4           s(  9.57%)p 3.74( 35.80%)d 5.71( 54.63%)
   144. (0.00006) RY*(17) H   4           s( 40.21%)p 0.64( 25.88%)d 0.84( 33.90%)
   145. (0.00004) RY*(18) H   4           s(  0.85%)p 5.44(  4.62%)d99.99( 94.53%)
   146. (0.00003) RY*(19) H   4           s( 32.71%)p 0.48( 15.80%)d 1.57( 51.49%)
   147. (0.00003) RY*(20) H   4           s(  1.26%)p22.60( 28.56%)d55.54( 70.18%)
   148. (0.00004) RY*(21) H   4           s(  1.47%)p18.99( 27.91%)d48.05( 70.62%)
   149. (0.00002) RY*(22) H   4           s(  0.80%)p47.29( 37.62%)d77.41( 61.58%)
   150. (0.02148) BD*( 1) O   1 - H   2  
                ( 27.09%)   0.5205* O   1 s( 20.66%)p 3.82( 78.86%)d 0.02(  0.46%)
                                                  f 0.00(  0.01%)
                                           -0.0002 -0.4545  0.0052 -0.0039  0.0048
                                           -0.8850  0.0307 -0.0081  0.0003 -0.0514
                                            0.0106 -0.0008  0.0022  0.0373 -0.0129
                                            0.0011 -0.0016  0.0112  0.0003 -0.0022
                                           -0.0190  0.0030  0.0001  0.0058  0.0000
                                           -0.0016 -0.0554  0.0031 -0.0024  0.0315
                                           -0.0017  0.0013  0.0000 -0.0004  0.0045
                                            0.0019  0.0004 -0.0002  0.0004  0.0001
                                            0.0062 -0.0018 -0.0069 -0.0019 -0.0009
                                            0.0001
                ( 72.91%)  -0.8539* H   2 s( 99.90%)p 0.00(  0.09%)d 0.00(  0.01%)
                                           -0.9995 -0.0036  0.0002 -0.0002  0.0029
                                           -0.0298  0.0040 -0.0034 -0.0012  0.0006
                                           -0.0004 -0.0019  0.0003 -0.0029  0.0017
                                           -0.0011 -0.0011  0.0026  0.0008 -0.0078
                                            0.0013  0.0034 -0.0008
   151. (0.02777) BD*( 1) O   1 - H   4  
                ( 24.43%)   0.4943* O   1 s( 22.80%)p 3.36( 76.71%)d 0.02(  0.47%)
                                                  f 0.00(  0.01%)
                                            0.0003  0.4775  0.0006  0.0015 -0.0012
                                           -0.1825  0.0186  0.0004 -0.0024 -0.5845
                                            0.0145 -0.0058  0.0009  0.6256 -0.0124
                                            0.0073 -0.0050 -0.0093  0.0044 -0.0021
                                            0.0087 -0.0043  0.0020 -0.0598  0.0025
                                            0.0020 -0.0217  0.0012 -0.0008  0.0211
                                           -0.0024  0.0014 -0.0067  0.0016 -0.0005
                                           -0.0008 -0.0072 -0.0011 -0.0029 -0.0028
                                            0.0027  0.0008  0.0005  0.0010 -0.0037
                                            0.0030
                ( 75.57%)  -0.8693* H   4 s( 99.85%)p 0.00(  0.14%)d 0.00(  0.01%)
                                            0.9992  0.0090  0.0003  0.0001  0.0195
                                           -0.0014 -0.0009  0.0059  0.0152  0.0054
                                            0.0185 -0.0179 -0.0080  0.0001 -0.0018
                                           -0.0008  0.0020 -0.0023 -0.0007  0.0072
                                            0.0003 -0.0022 -0.0007


 NHO Directionality and "Bond Bending" (deviations from line of nuclear centers)

         [Thresholds for printing:  angular deviation  >  1.0 degree]
                                    hybrid p-character > 25.0%
                                    orbital occupancy  >  0.10e

                                Line of Centers        Hybrid 1              Hybrid 2
                                ---------------  -------------------   ------------------
                NBO               Theta   Phi    Theta   Phi    Dev    Theta   Phi    Dev
 ========================================================================================
     1. BD (   1) O   1 - H   2    90.0    0.0    91.6    2.6   3.1      --     --    --
     2. BD (   1) O   1 - H   4    45.0  258.3    44.2  253.9   3.2      --     --    --
    18. LP (   1) O   1             --     --    122.0  138.2   --       --     --    --
    19. LP (   2) O   1             --     --    134.1  269.7   --       --     --    --
    21. LP (   2)Br   3             --     --    125.1    8.2   --       --     --    --
    22. LP (   3)Br   3             --     --    132.6  138.9   --       --     --    --
    23. LP (   4)Br   3             --     --     62.6   77.0   --       --     --    --


 Natural Bond Orbitals (Summary):

           NBO                  Occupancy  
 -----------------------------------------------
 Molecular unit  1  (H2O)
     1. BD (   1) O   1 - H   2          1.96638
     2. BD (   1) O   1 - H   4          1.96713
     3. CR (   1) O   1                  1.99968
    18. LP (   1) O   1                  1.97088
    19. LP (   2) O   1                  1.96099
    24. RY*(   1) O   1                  0.02017
    25. RY*(   2) O   1                  0.01491
    26. RY*(   3) O   1                  0.00708
    27. RY*(   4) O   1                  0.00627
    28. RY*(   5) O   1                  0.00621
    29. RY*(   6) O   1                  0.00591
    30. RY*(   7) O   1                  0.00565
    31. RY*(   8) O   1                  0.00282
    32. RY*(   9) O   1                  0.00224
    33. RY*(  10) O   1                  0.00061
    34. RY*(  11) O   1                  0.00057
    35. RY*(  12) O   1                  0.00057
    36. RY*(  13) O   1                  0.00052
    37. RY*(  14) O   1                  0.00046
    38. RY*(  15) O   1                  0.00044
    39. RY*(  16) O   1                  0.00044
    40. RY*(  17) O   1                  0.00043
    41. RY*(  18) O   1                  0.00044
    42. RY*(  19) O   1                  0.00041
    43. RY*(  20) O   1                  0.00041
    44. RY*(  21) O   1                  0.00037
    45. RY*(  22) O   1                  0.00035
    46. RY*(  23) O   1                  0.00029
    47. RY*(  24) O   1                  0.00030
    48. RY*(  25) O   1                  0.00018
    49. RY*(  26) O   1                  0.00014
    50. RY*(  27) O   1                  0.00010
    51. RY*(  28) O   1                  0.00007
    52. RY*(  29) O   1                  0.00008
    53. RY*(  30) O   1                  0.00008
    54. RY*(  31) O   1                  0.00007
    55. RY*(  32) O   1                  0.00007
    56. RY*(  33) O   1                  0.00007
    57. RY*(  34) O   1                  0.00007
    58. RY*(  35) O   1                  0.00005
    59. RY*(  36) O   1                  0.00005
    60. RY*(  37) O   1                  0.00003
    61. RY*(  38) O   1                  0.00003
    62. RY*(  39) O   1                  0.00002
    63. RY*(  40) O   1                  0.00001
    64. RY*(  41) O   1                 -0.00001
    65. RY*(   1) H   2                  0.00198
    66. RY*(   2) H   2                  0.00160
    67. RY*(   3) H   2                  0.00081
    68. RY*(   4) H   2                  0.00047
    69. RY*(   5) H   2                  0.00028
    70. RY*(   6) H   2                  0.00018
    71. RY*(   7) H   2                  0.00012
    72. RY*(   8) H   2                  0.00011
    73. RY*(   9) H   2                  0.00010
    74. RY*(  10) H   2                  0.00009
    75. RY*(  11) H   2                  0.00009
    76. RY*(  12) H   2                  0.00006
    77. RY*(  13) H   2                  0.00005
    78. RY*(  14) H   2                  0.00003
    79. RY*(  15) H   2                  0.00004
    80. RY*(  16) H   2                  0.00003
    81. RY*(  17) H   2                  0.00003
    82. RY*(  18) H   2                  0.00003
    83. RY*(  19) H   2                  0.00002
    84. RY*(  20) H   2                  0.00001
    85. RY*(  21) H   2                  0.00001
    86. RY*(  22) H   2                  0.00001
   128. RY*(   1) H   4                  0.00548
   129. RY*(   2) H   4                  0.00415
   130. RY*(   3) H   4                  0.00320
   131. RY*(   4) H   4                  0.00148
   132. RY*(   5) H   4                  0.00051
   133. RY*(   6) H   4                  0.00038
   134. RY*(   7) H   4                  0.00028
   135. RY*(   8) H   4                  0.00022
   136. RY*(   9) H   4                  0.00018
   137. RY*(  10) H   4                  0.00014
   138. RY*(  11) H   4                  0.00014
   139. RY*(  12) H   4                  0.00009
   140. RY*(  13) H   4                  0.00009
   141. RY*(  14) H   4                  0.00008
   142. RY*(  15) H   4                  0.00007
   143. RY*(  16) H   4                  0.00007
   144. RY*(  17) H   4                  0.00006
   145. RY*(  18) H   4                  0.00004
   146. RY*(  19) H   4                  0.00003
   147. RY*(  20) H   4                  0.00003
   148. RY*(  21) H   4                  0.00004
   149. RY*(  22) H   4                  0.00002
   150. BD*(   1) O   1 - H   2          0.02148
   151. BD*(   1) O   1 - H   4          0.02777
       -------------------------------
              Total Lewis    9.86505  ( 98.4907%)
        Valence non-Lewis    0.04925  (  0.4917%)
        Rydberg non-Lewis    0.10193  (  1.0177%)
       -------------------------------
            Total unit  1   10.01623  (100.0000%)
           Charge unit  1   -0.01623

 Molecular unit  2  (Br)
     4. CR (   1)Br   3                  2.00003
     5. CR (   2)Br   3                  2.00000
     6. CR (   3)Br   3                  2.00000
     7. CR (   4)Br   3                  2.00002
     8. CR (   5)Br   3                  2.00000
     9. CR (   6)Br   3                  2.00002
    10. CR (   7)Br   3                  2.00000
    11. CR (   8)Br   3                  2.00002
    12. CR (   9)Br   3                  2.00000
    13. CR (  10)Br   3                  1.99768
    14. CR (  11)Br   3                  1.99769
    15. CR (  12)Br   3                  1.99768
    16. CR (  13)Br   3                  1.99768
    17. CR (  14)Br   3                  1.99769
    20. LP (   1)Br   3                  1.98105
    21. LP (   2)Br   3                  1.95401
    22. LP (   3)Br   3                  1.95382
    23. LP (   4)Br   3                  1.94482
    87. RY*(   1)Br   3                  0.01886
    88. RY*(   2)Br   3                  0.01884
    89. RY*(   3)Br   3                  0.01873
    90. RY*(   4)Br   3                  0.01873
    91. RY*(   5)Br   3                  0.01868
    92. RY*(   6)Br   3                  0.01243
    93. RY*(   7)Br   3                  0.01231
    94. RY*(   8)Br   3                  0.01147
    95. RY*(   9)Br   3                  0.00458
    96. RY*(  10)Br   3                  0.00181
    97. RY*(  11)Br   3                  0.00182
    98. RY*(  12)Br   3                  0.00178
    99. RY*(  13)Br   3                  0.00178
   100. RY*(  14)Br   3                  0.00177
   101. RY*(  15)Br   3                  0.00178
   102. RY*(  16)Br   3                  0.00177
   103. RY*(  17)Br   3                  0.00177
   104. RY*(  18)Br   3                  0.00176
   105. RY*(  19)Br   3                  0.00165
   106. RY*(  20)Br   3                  0.00162
   107. RY*(  21)Br   3                  0.00151
   108. RY*(  22)Br   3                  0.00085
   109. RY*(  23)Br   3                  0.00084
   110. RY*(  24)Br   3                  0.00081
   111. RY*(  25)Br   3                  0.00061
   112. RY*(  26)Br   3                  0.00025
   113. RY*(  27)Br   3                  0.00025
   114. RY*(  28)Br   3                  0.00025
   115. RY*(  29)Br   3                  0.00025
   116. RY*(  30)Br   3                  0.00026
   117. RY*(  31)Br   3                  0.00025
   118. RY*(  32)Br   3                  0.00026
   119. RY*(  33)Br   3                  0.00022
   120. RY*(  34)Br   3                  0.00022
   121. RY*(  35)Br   3                  0.00022
   122. RY*(  36)Br   3                  0.00019
   123. RY*(  37)Br   3                  0.00017
   124. RY*(  38)Br   3                  0.00010
   125. RY*(  39)Br   3                  0.00005
   126. RY*(  40)Br   3                  0.00004
   127. RY*(  41)Br   3                  0.00004
       -------------------------------
              Total Lewis   35.82222  ( 99.5510%)
        Valence non-Lewis    0.00000  (  0.0000%)
        Rydberg non-Lewis    0.16155  (  0.4490%)
       -------------------------------
            Total unit  2   35.98377  (100.0000%)
           Charge unit  2   -0.98377
 Leave Link  607 at Tue Oct 19 16:42:02 2021, MaxMem= 16106127360 cpu:              69.7 elap:               2.5
 (Enter /sw/contrib/gaussian/g16/B01/g16/l9999.exe)
 1\1\GINC-N2098\SP\RMP2-FC\Aug-CC-pVTZ\Br1H2O1(1-)\CGAVINH\19-Oct-2021\
 0\\#p pop=NBO SP NoSymm mp2/aug-cc-pvtz density=current\\title\\-1,1\O
 \X,1,10.\H,1,0.96078759,2,90.\Br,1,3.25661955,2,90.,3,101.73887131,0\H
 ,1,0.97115,2,45.,3,101.73887131,0\\Version=ES64L-G16RevB.01\HF=-2648.5
 954028\MP2=-2649.1114903\RMSD=6.919e-09\Dipole=0.6794102,0.6130161,0.2
 869301\Quadrupole=11.5825898,-23.605028,12.0224382,-6.8879107,-0.15571
 91,-0.2401878\PG=C01 [X(Br1H2O1)]\\@


 THE WISE MAN HAS THE POWER TO REASON AWAY
 WHAT A FOOL BELIEVES.
                     - DOOBIE BROTHERS
 Job cpu time:       0 days  0 hours  4 minutes 19.1 seconds.
 Elapsed time:       0 days  0 hours  0 minutes 11.9 seconds.
 File lengths (MBytes):  RWF=     11 Int=      0 D2E=      0 Chk=      8 Scr=      1
 Normal termination of Gaussian 16 at Tue Oct 19 16:42:03 2021.
