 Entering Gaussian System, Link 0=g16
 Input=brhod_oop_05_sp.gjf
 Output=brhod_oop_05_sp.log
 Initial command:
 /sw/contrib/gaussian/g16/B01/g16/l1.exe "/scr/Gau-22940.inp" -scrdir="/scr/"
 Entering Link 1 = /sw/contrib/gaussian/g16/B01/g16/l1.exe PID=     22941.
  
 Copyright (c) 1988-2017, Gaussian, Inc.  All Rights Reserved.
  
 This is part of the Gaussian(R) 16 program.  It is based on
 the Gaussian(R) 09 system (copyright 2009, Gaussian, Inc.),
 the Gaussian(R) 03 system (copyright 2003, Gaussian, Inc.),
 the Gaussian(R) 98 system (copyright 1998, Gaussian, Inc.),
 the Gaussian(R) 94 system (copyright 1995, Gaussian, Inc.),
 the Gaussian 92(TM) system (copyright 1992, Gaussian, Inc.),
 the Gaussian 90(TM) system (copyright 1990, Gaussian, Inc.),
 the Gaussian 88(TM) system (copyright 1988, Gaussian, Inc.),
 the Gaussian 86(TM) system (copyright 1986, Carnegie Mellon
 University), and the Gaussian 82(TM) system (copyright 1983,
 Carnegie Mellon University). Gaussian is a federally registered
 trademark of Gaussian, Inc.
  
 This software contains proprietary and confidential information,
 including trade secrets, belonging to Gaussian, Inc.
  
 This software is provided under written license and may be
 used, copied, transmitted, or stored only in accord with that
 written license.
  
 The following legend is applicable only to US Government
 contracts under FAR:
  
                    RESTRICTED RIGHTS LEGEND
  
 Use, reproduction and disclosure by the US Government is
 subject to restrictions as set forth in subparagraphs (a)
 and (c) of the Commercial Computer Software - Restricted
 Rights clause in FAR 52.227-19.
  
 Gaussian, Inc.
 340 Quinnipiac St., Bldg. 40, Wallingford CT 06492
  
  
 ---------------------------------------------------------------
 Warning -- This program may not be used in any manner that
 competes with the business of Gaussian, Inc. or will provide
 assistance to any competitor of Gaussian, Inc.  The licensee
 of this program is prohibited from giving any competitor of
 Gaussian, Inc. access to this program.  By using this program,
 the user acknowledges that Gaussian, Inc. is engaged in the
 business of creating and licensing software in the field of
 computational chemistry and represents and warrants to the
 licensee that it is not a competitor of Gaussian, Inc. and that
 it will not use this program in any manner prohibited above.
 ---------------------------------------------------------------
  

 Cite this work as:
 Gaussian 16, Revision B.01,
 M. J. Frisch, G. W. Trucks, H. B. Schlegel, G. E. Scuseria, 
 M. A. Robb, J. R. Cheeseman, G. Scalmani, V. Barone, 
 G. A. Petersson, H. Nakatsuji, X. Li, M. Caricato, A. V. Marenich, 
 J. Bloino, B. G. Janesko, R. Gomperts, B. Mennucci, H. P. Hratchian, 
 J. V. Ortiz, A. F. Izmaylov, J. L. Sonnenberg, D. Williams-Young, 
 F. Ding, F. Lipparini, F. Egidi, J. Goings, B. Peng, A. Petrone, 
 T. Henderson, D. Ranasinghe, V. G. Zakrzewski, J. Gao, N. Rega, 
 G. Zheng, W. Liang, M. Hada, M. Ehara, K. Toyota, R. Fukuda, 
 J. Hasegawa, M. Ishida, T. Nakajima, Y. Honda, O. Kitao, H. Nakai, 
 T. Vreven, K. Throssell, J. A. Montgomery, Jr., J. E. Peralta, 
 F. Ogliaro, M. J. Bearpark, J. J. Heyd, E. N. Brothers, K. N. Kudin, 
 V. N. Staroverov, T. A. Keith, R. Kobayashi, J. Normand, 
 K. Raghavachari, A. P. Rendell, J. C. Burant, S. S. Iyengar, 
 J. Tomasi, M. Cossi, J. M. Millam, M. Klene, C. Adamo, R. Cammi, 
 J. W. Ochterski, R. L. Martin, K. Morokuma, O. Farkas, 
 J. B. Foresman, and D. J. Fox, Gaussian, Inc., Wallingford CT, 2016.
 
 ******************************************
 Gaussian 16:  ES64L-G16RevB.01 20-Dec-2017
                19-Oct-2021 
 ******************************************
 %nproc=28
 Will use up to   28 processors via shared memory.
 %mem=120GB
 %chk=/gscratch/ilahie/mccoygrp/coire_hocl/oop_s_rOH_opt/brhod/brhod_oop_5_sp.chk
 ----------------------------------------------------
 #p pop=NBO SP NoSymm mp2/aug-cc-pvtz density=current
 ----------------------------------------------------
 1/30=1,38=1,172=1/1;
 2/12=2,15=1,17=6,18=5,40=1/2;
 3/5=16,6=1,7=10,11=9,25=1,30=1,71=1/1,2,3;
 4//1;
 5/5=2,38=5/2;
 8/6=4,10=1/1;
 9/15=1,16=-3/6;
 10/5=1,13=10,31=1/2;
 6/7=2,8=2,9=2,10=2,22=-1,40=1/1,7;
 99/5=1,9=1/99;
 Leave Link    1 at Tue Oct 19 16:40:07 2021, MaxMem= 16106127360 cpu:               2.0 elap:               0.1
 (Enter /sw/contrib/gaussian/g16/B01/g16/l101.exe)
 -----
 title
 -----
 Symbolic Z-matrix:
 Charge = -1 Multiplicity = 1
 O
 X                    1     10. 
 H(iso=2)             1    r1       2     90. 
 Br                   1    r2       2     90.      3    a1       0
 H                    1    r3       2    oop      3    a1       0
       Variables:
  r1                    0.96079                  
  r2                    3.25662                  
  r3                    0.98743                  
  a1                  101.73887                  
  OOP                  85.                       
 
 ITRead=  0  0  0  0
 MicOpt= -1 -1 -1 -1
 NAtoms=      4 NQM=        4 NQMF=       0 NMMI=      0 NMMIF=      0
                NMic=       0 NMicF=      0.
                    Isotopes and Nuclear Properties:
 (Nuclear quadrupole moments (NQMom) in fm**2, nuclear magnetic moments (NMagM)
  in nuclear magnetons)

  Atom         1           2           3           4
 IAtWgt=          16           2          79           1
 AtmWgt=  15.9949146   2.0141018  78.9183361   1.0078250
 NucSpn=           0           2           3           1
 AtZEff=  -0.0000000  -0.0000000  -0.0000000  -0.0000000
 NQMom=    0.0000000   0.2860000  31.3000000   0.0000000
 NMagM=    0.0000000   0.8574380   2.1063990   2.7928460
 AtZNuc=   8.0000000   1.0000000  35.0000000   1.0000000
 Leave Link  101 at Tue Oct 19 16:40:07 2021, MaxMem= 16106127360 cpu:               2.6 elap:               0.1
 (Enter /sw/contrib/gaussian/g16/B01/g16/l202.exe)
                          Input orientation:                          
 ---------------------------------------------------------------------
 Center     Atomic      Atomic             Coordinates (Angstroms)
 Number     Number       Type             X           Y           Z
 ---------------------------------------------------------------------
      1          8           0        0.000000    0.000000    0.000000
      2          1           0        0.960788    0.000000    0.000000
      3         35           0       -0.662564   -3.188507    0.000000
      4          1           0       -0.200130   -0.963099    0.086060
 ---------------------------------------------------------------------
                    Distance matrix (angstroms):
                    1          2          3          4
     1  O    0.000000
     2  H    0.960788   0.000000
     3  Br   3.256620   3.577967   0.000000
     4  H    0.987430   1.510859   2.274576   0.000000
 Symmetry turned off by external request.
 Stoichiometry    BrH2O(1-)
 Framework group  C1[X(BrH2O)]
 Deg. of freedom     6
 Full point group                 C1      NOp   1
 Rotational constants (GHZ):         321.3940885           3.1464021           3.1161759
 Leave Link  202 at Tue Oct 19 16:40:07 2021, MaxMem= 16106127360 cpu:               0.2 elap:               0.0
 (Enter /sw/contrib/gaussian/g16/B01/g16/l301.exe)
 Standard basis: Aug-CC-pVTZ (5D, 7F)
 Ernie: Thresh=  0.10000D-02 Tol=  0.10000D-05 Strict=F.
 Ernie:  35 primitive shells out of 175 were deleted.
   151 basis functions,   343 primitive gaussians,   174 cartesian basis functions
    23 alpha electrons       23 beta electrons
       nuclear repulsion energy        67.8609018074 Hartrees.
 IExCor=    0 DFT=F Ex=HF Corr=None ExCW=0 ScaHFX=  1.000000
 ScaDFX=  1.000000  1.000000  1.000000  1.000000 ScalE2=  1.000000  1.000000
 IRadAn=      5 IRanWt=     -1 IRanGd=            0 ICorTp=0 IEmpDi=  4
 NAtoms=    4 NActive=    4 NUniq=    4 SFac= 1.00D+00 NAtFMM=   60 NAOKFM=F Big=F
 Integral buffers will be    131072 words long.
 Raffenetti 1 integral format.
 Two-electron integral symmetry is turned off.
 Leave Link  301 at Tue Oct 19 16:40:08 2021, MaxMem= 16106127360 cpu:               1.6 elap:               0.1
 (Enter /sw/contrib/gaussian/g16/B01/g16/l302.exe)
 NPDir=0 NMtPBC=     1 NCelOv=     1 NCel=       1 NClECP=     1 NCelD=      1
         NCelK=      1 NCelE2=     1 NClLst=     1 CellRange=     0.0.
 One-electron integrals computed using PRISM.
 NBasis=   151 RedAO= T EigKep=  2.94D-04  NBF=   151
 NBsUse=   151 1.00D-06 EigRej= -1.00D+00 NBFU=   151
 Leave Link  302 at Tue Oct 19 16:40:08 2021, MaxMem= 16106127360 cpu:               8.7 elap:               0.4
 (Enter /sw/contrib/gaussian/g16/B01/g16/l303.exe)
 DipDrv:  MaxL=1.
 Leave Link  303 at Tue Oct 19 16:40:08 2021, MaxMem= 16106127360 cpu:               2.1 elap:               0.1
 (Enter /sw/contrib/gaussian/g16/B01/g16/l401.exe)
 ExpMin= 2.53D-02 ExpMax= 1.06D+07 ExpMxC= 1.21D+04 IAcc=3 IRadAn=         5 AccDes= 0.00D+00
 Harris functional with IExCor=  205 and IRadAn=       5 diagonalized for initial guess.
 HarFok:  IExCor=  205 AccDes= 0.00D+00 IRadAn=         5 IDoV= 1 UseB2=F ITyADJ=14
 ICtDFT=  3500011 ScaDFX=  1.000000  1.000000  1.000000  1.000000
 FoFCou: FMM=F IPFlag=           0 FMFlag=      100000 FMFlg1=           0
         NFxFlg=           0 DoJE=T BraDBF=F KetDBF=T FulRan=T
         wScrn=  0.000000 ICntrl=       500 IOpCl=  0 I1Cent=   200000004 NGrid=           0
         NMat0=    1 NMatS0=      1 NMatT0=    0 NMatD0=    1 NMtDS0=    0 NMtDT0=    0
 Symmetry not used in FoFCou.
 Harris En= -2648.01668398035    
 JPrj=0 DoOrth=F DoCkMO=F.
 Leave Link  401 at Tue Oct 19 16:40:08 2021, MaxMem= 16106127360 cpu:               6.7 elap:               0.3
 (Enter /sw/contrib/gaussian/g16/B01/g16/l502.exe)
 Keep R1 ints in memory in canonical form, NReq=88257197.
 FoFCou: FMM=F IPFlag=           0 FMFlag=           0 FMFlg1=           0
         NFxFlg=           0 DoJE=F BraDBF=F KetDBF=F FulRan=T
         wScrn=  0.000000 ICntrl=       600 IOpCl=  0 I1Cent=           0 NGrid=           0
         NMat0=    1 NMatS0=  11476 NMatT0=    0 NMatD0=    1 NMtDS0=    0 NMtDT0=    0
 Symmetry not used in FoFCou.
 Two-electron integral symmetry not used.
 Closed shell SCF:
 Using DIIS extrapolation, IDIIS=  1040.
 NGot= 16106127360 LenX= 16040205766 LenY= 16040175049
 Requested convergence on RMS density matrix=1.00D-08 within 128 cycles.
 Requested convergence on MAX density matrix=1.00D-06.
 Requested convergence on             energy=1.00D-06.
 No special actions if energy rises.

 Cycle   1  Pass 1  IDiag  1:
 E= -2648.44070052619    
 DIIS: error= 7.48D-02 at cycle   1 NSaved=   1.
 NSaved= 1 IEnMin= 1 EnMin= -2648.44070052619     IErMin= 1 ErrMin= 7.48D-02
 ErrMax= 7.48D-02  0.00D+00 EMaxC= 1.00D-01 BMatC= 5.44D-01 BMatP= 5.44D-01
 IDIUse=3 WtCom= 2.52D-01 WtEn= 7.48D-01
 Coeff-Com:  0.100D+01
 Coeff-En:   0.100D+01
 Coeff:      0.100D+01
 Gap=     0.387 Goal=   None    Shift=    0.000
 GapD=    0.387 DampG=1.000 DampE=0.500 DampFc=0.5000 IDamp=-1.
 Damping current iteration by 5.00D-01
 RMSDP=3.18D-03 MaxDP=9.57D-02              OVMax= 1.24D-01

 Cycle   2  Pass 1  IDiag  1:
 E= -2648.52786779912     Delta-E=       -0.087167272935 Rises=F Damp=T
 DIIS: error= 3.51D-02 at cycle   2 NSaved=   2.
 NSaved= 2 IEnMin= 2 EnMin= -2648.52786779912     IErMin= 2 ErrMin= 3.51D-02
 ErrMax= 3.51D-02  0.00D+00 EMaxC= 1.00D-01 BMatC= 1.02D-01 BMatP= 5.44D-01
 IDIUse=3 WtCom= 6.49D-01 WtEn= 3.51D-01
 Coeff-Com: -0.599D+00 0.160D+01
 Coeff-En:   0.000D+00 0.100D+01
 Coeff:     -0.389D+00 0.139D+01
 Gap=     0.280 Goal=   None    Shift=    0.000
 RMSDP=1.29D-03 MaxDP=3.44D-02 DE=-8.72D-02 OVMax= 6.08D-02

 Cycle   3  Pass 1  IDiag  1:
 E= -2648.60568738139     Delta-E=       -0.077819582270 Rises=F Damp=F
 DIIS: error= 3.32D-03 at cycle   3 NSaved=   3.
 NSaved= 3 IEnMin= 3 EnMin= -2648.60568738139     IErMin= 3 ErrMin= 3.32D-03
 ErrMax= 3.32D-03  0.00D+00 EMaxC= 1.00D-01 BMatC= 1.97D-03 BMatP= 1.02D-01
 IDIUse=3 WtCom= 9.67D-01 WtEn= 3.32D-02
 Coeff-Com: -0.136D+00 0.294D+00 0.842D+00
 Coeff-En:   0.000D+00 0.000D+00 0.100D+01
 Coeff:     -0.131D+00 0.284D+00 0.847D+00
 Gap=     0.297 Goal=   None    Shift=    0.000
 RMSDP=2.60D-04 MaxDP=7.61D-03 DE=-7.78D-02 OVMax= 1.04D-02

 Cycle   4  Pass 1  IDiag  1:
 E= -2648.60697800431     Delta-E=       -0.001290622918 Rises=F Damp=F
 DIIS: error= 4.05D-04 at cycle   4 NSaved=   4.
 NSaved= 4 IEnMin= 4 EnMin= -2648.60697800431     IErMin= 4 ErrMin= 4.05D-04
 ErrMax= 4.05D-04  0.00D+00 EMaxC= 1.00D-01 BMatC= 3.07D-05 BMatP= 1.97D-03
 IDIUse=3 WtCom= 9.96D-01 WtEn= 4.05D-03
 Coeff-Com:  0.171D-01-0.405D-01 0.480D-02 0.102D+01
 Coeff-En:   0.000D+00 0.000D+00 0.000D+00 0.100D+01
 Coeff:      0.170D-01-0.404D-01 0.478D-02 0.102D+01
 Gap=     0.296 Goal=   None    Shift=    0.000
 RMSDP=4.29D-05 MaxDP=1.25D-03 DE=-1.29D-03 OVMax= 1.83D-03

 Cycle   5  Pass 1  IDiag  1:
 E= -2648.60701787111     Delta-E=       -0.000039866797 Rises=F Damp=F
 DIIS: error= 1.38D-04 at cycle   5 NSaved=   5.
 NSaved= 5 IEnMin= 5 EnMin= -2648.60701787111     IErMin= 5 ErrMin= 1.38D-04
 ErrMax= 1.38D-04  0.00D+00 EMaxC= 1.00D-01 BMatC= 1.56D-06 BMatP= 3.07D-05
 IDIUse=3 WtCom= 9.99D-01 WtEn= 1.38D-03
 Coeff-Com: -0.224D-02 0.646D-02-0.254D-01-0.373D+00 0.139D+01
 Coeff-En:   0.000D+00 0.000D+00 0.000D+00 0.000D+00 0.100D+01
 Coeff:     -0.224D-02 0.645D-02-0.254D-01-0.373D+00 0.139D+01
 Gap=     0.297 Goal=   None    Shift=    0.000
 RMSDP=1.88D-05 MaxDP=5.05D-04 DE=-3.99D-05 OVMax= 8.89D-04

 Cycle   6  Pass 1  IDiag  1:
 E= -2648.60702262147     Delta-E=       -0.000004750365 Rises=F Damp=F
 DIIS: error= 2.82D-05 at cycle   6 NSaved=   6.
 NSaved= 6 IEnMin= 6 EnMin= -2648.60702262147     IErMin= 6 ErrMin= 2.82D-05
 ErrMax= 2.82D-05  0.00D+00 EMaxC= 1.00D-01 BMatC= 6.13D-08 BMatP= 1.56D-06
 IDIUse=1 WtCom= 1.00D+00 WtEn= 0.00D+00
 Coeff-Com: -0.372D-03 0.683D-03 0.370D-02 0.195D-01-0.223D+00 0.120D+01
 Coeff:     -0.372D-03 0.683D-03 0.370D-02 0.195D-01-0.223D+00 0.120D+01
 Gap=     0.296 Goal=   None    Shift=    0.000
 RMSDP=3.17D-06 MaxDP=8.69D-05 DE=-4.75D-06 OVMax= 1.94D-04

 Cycle   7  Pass 1  IDiag  1:
 E= -2648.60702280715     Delta-E=       -0.000000185677 Rises=F Damp=F
 DIIS: error= 6.85D-06 at cycle   7 NSaved=   7.
 NSaved= 7 IEnMin= 7 EnMin= -2648.60702280715     IErMin= 7 ErrMin= 6.85D-06
 ErrMax= 6.85D-06  0.00D+00 EMaxC= 1.00D-01 BMatC= 6.20D-09 BMatP= 6.13D-08
 IDIUse=1 WtCom= 1.00D+00 WtEn= 0.00D+00
 Coeff-Com: -0.515D-04-0.528D-04 0.270D-02 0.248D-01-0.125D+00 0.146D+00
 Coeff-Com:  0.951D+00
 Coeff:     -0.515D-04-0.528D-04 0.270D-02 0.248D-01-0.125D+00 0.146D+00
 Coeff:      0.951D+00
 Gap=     0.296 Goal=   None    Shift=    0.000
 RMSDP=7.29D-07 MaxDP=1.88D-05 DE=-1.86D-07 OVMax= 5.01D-05

 Cycle   8  Pass 1  IDiag  1:
 E= -2648.60702281945     Delta-E=       -0.000000012305 Rises=F Damp=F
 DIIS: error= 1.47D-06 at cycle   8 NSaved=   8.
 NSaved= 8 IEnMin= 8 EnMin= -2648.60702281945     IErMin= 8 ErrMin= 1.47D-06
 ErrMax= 1.47D-06  0.00D+00 EMaxC= 1.00D-01 BMatC= 4.22D-10 BMatP= 6.20D-09
 IDIUse=1 WtCom= 1.00D+00 WtEn= 0.00D+00
 Coeff-Com:  0.863D-04-0.163D-03-0.527D-03-0.196D-03 0.189D-01-0.101D+00
 Coeff-Com: -0.652D-01 0.115D+01
 Coeff:      0.863D-04-0.163D-03-0.527D-03-0.196D-03 0.189D-01-0.101D+00
 Coeff:     -0.652D-01 0.115D+01
 Gap=     0.296 Goal=   None    Shift=    0.000
 RMSDP=2.94D-07 MaxDP=8.00D-06 DE=-1.23D-08 OVMax= 1.63D-05

 Cycle   9  Pass 1  IDiag  1:
 E= -2648.60702282043     Delta-E=       -0.000000000976 Rises=F Damp=F
 DIIS: error= 3.79D-07 at cycle   9 NSaved=   9.
 NSaved= 9 IEnMin= 9 EnMin= -2648.60702282043     IErMin= 9 ErrMin= 3.79D-07
 ErrMax= 3.79D-07  0.00D+00 EMaxC= 1.00D-01 BMatC= 2.52D-11 BMatP= 4.22D-10
 IDIUse=1 WtCom= 1.00D+00 WtEn= 0.00D+00
 Coeff-Com: -0.125D-04 0.336D-04-0.115D-03-0.181D-02 0.709D-02-0.440D-02
 Coeff-Com: -0.516D-01-0.355D-02 0.105D+01
 Coeff:     -0.125D-04 0.336D-04-0.115D-03-0.181D-02 0.709D-02-0.440D-02
 Coeff:     -0.516D-01-0.355D-02 0.105D+01
 Gap=     0.296 Goal=   None    Shift=    0.000
 RMSDP=5.27D-08 MaxDP=9.88D-07 DE=-9.76D-10 OVMax= 3.02D-06

 Cycle  10  Pass 1  IDiag  1:
 E= -2648.60702282047     Delta-E=       -0.000000000039 Rises=F Damp=F
 DIIS: error= 1.03D-07 at cycle  10 NSaved=  10.
 NSaved=10 IEnMin=10 EnMin= -2648.60702282047     IErMin=10 ErrMin= 1.03D-07
 ErrMax= 1.03D-07  0.00D+00 EMaxC= 1.00D-01 BMatC= 2.74D-12 BMatP= 2.52D-11
 IDIUse=1 WtCom= 1.00D+00 WtEn= 0.00D+00
 Coeff-Com: -0.610D-05 0.111D-04 0.466D-04 0.113D-03-0.198D-02 0.989D-02
 Coeff-Com:  0.707D-02-0.124D+00 0.514D-01 0.106D+01
 Coeff:     -0.610D-05 0.111D-04 0.466D-04 0.113D-03-0.198D-02 0.989D-02
 Coeff:      0.707D-02-0.124D+00 0.514D-01 0.106D+01
 Gap=     0.296 Goal=   None    Shift=    0.000
 RMSDP=1.48D-08 MaxDP=2.50D-07 DE=-3.91D-11 OVMax= 1.17D-06

 Cycle  11  Pass 1  IDiag  1:
 E= -2648.60702282047     Delta-E=       -0.000000000004 Rises=F Damp=F
 DIIS: error= 2.25D-08 at cycle  11 NSaved=  11.
 NSaved=11 IEnMin=11 EnMin= -2648.60702282047     IErMin=11 ErrMin= 2.25D-08
 ErrMax= 2.25D-08  0.00D+00 EMaxC= 1.00D-01 BMatC= 1.14D-13 BMatP= 2.74D-12
 IDIUse=1 WtCom= 1.00D+00 WtEn= 0.00D+00
 Coeff-Com:  0.139D-05-0.303D-05-0.537D-06 0.614D-04-0.272D-04-0.129D-02
 Coeff-Com:  0.138D-02 0.186D-01-0.721D-01-0.155D+00 0.121D+01
 Coeff:      0.139D-05-0.303D-05-0.537D-06 0.614D-04-0.272D-04-0.129D-02
 Coeff:      0.138D-02 0.186D-01-0.721D-01-0.155D+00 0.121D+01
 Gap=     0.296 Goal=   None    Shift=    0.000
 RMSDP=6.83D-09 MaxDP=2.35D-07 DE=-3.64D-12 OVMax= 3.06D-07

 SCF Done:  E(RHF) =  -2648.60702282     A.U. after   11 cycles
            NFock= 11  Conv=0.68D-08     -V/T= 2.0000
 KE= 2.648515947766D+03 PE=-6.483637917129D+03 EE= 1.118654044736D+03
 Leave Link  502 at Tue Oct 19 16:40:11 2021, MaxMem= 16106127360 cpu:              35.1 elap:               2.3
 (Enter /sw/contrib/gaussian/g16/B01/g16/l801.exe)
 ExpMin= 2.53D-02 ExpMax= 1.06D+07 ExpMxC= 1.21D+04 IAcc=3 IRadAn=         5 AccDes= 0.00D+00
 HarFok:  IExCor=  205 AccDes= 0.00D+00 IRadAn=         5 IDoV=-2 UseB2=F ITyADJ=14
 ICtDFT= 12500011 ScaDFX=  1.000000  1.000000  1.000000  1.000000
 Largest valence mixing into a core orbital is  1.27D-04
 Largest core mixing into a valence orbital is  3.62D-05
 Range of M.O.s used for correlation:    11   151
 NBasis=   151 NAE=    23 NBE=    23 NFC=    10 NFV=     0
 NROrb=    141 NOA=    13 NOB=    13 NVA=   128 NVB=   128

 **** Warning!!: The largest alpha MO coefficient is  0.14944237D+02

 Leave Link  801 at Tue Oct 19 16:40:11 2021, MaxMem= 16106127360 cpu:               1.9 elap:               0.1
 (Enter /sw/contrib/gaussian/g16/B01/g16/l906.exe)
 Frozen-core derivative calculation, NFC=  10 NFV=   0.
 FulOut=F Deriv=T AODrv=F NAtomX=     4
   MMem=         214  MDisk=          13 MDiskD=          13
  W3Min=      604302 MinDsk=     1007783 NBas6D=         174
 NBas2D=       15618    NTT=       15225    LW2=     9911920
    MDV= 16105777043 MDiskM=      462752 NBas2p=       15367
 Fully in-core method, ICMem=   275550978.
 IMap=   1   2   3   4   5   6   7   8   9  10  11  12  13  14  15  16  17  18  19  20
 IMap=  21  22  23
 JobTyp=1 Pass  1 fully in-core, NPsUse= 28.
 Compute canonical integrals.
 FoFCou: FMM=F IPFlag=           0 FMFlag=           0 FMFlg1=           0
         NFxFlg=           0 DoJE=F BraDBF=F KetDBF=F FulRan=T
         wScrn=  0.000000 ICntrl=       600 IOpCl=  1 I1Cent=           0 NGrid=           0
         NMat0=    1 NMatS0=  15618 NMatT0=    0 NMatD0=    1 NMtDS0=    0 NMtDT0=    0
 Symmetry not used in FoFCou.
 Spin components of T(2) and E(2):
     alpha-alpha T2 =       0.2056689110D-01 E2=     -0.6994160726D-01
     alpha-beta  T2 =       0.1089687814D+00 E2=     -0.3790352096D+00
     beta-beta   T2 =       0.2056689110D-01 E2=     -0.6994160726D-01
 The integrals were generated   1 times.
 ANorm=    0.1072428349D+01
 E2 =    -0.5189184241D+00 EUMP2 =    -0.26491259412446D+04
 Leave Link  906 at Tue Oct 19 16:40:15 2021, MaxMem= 16106127360 cpu:             106.9 elap:               3.9
 (Enter /sw/contrib/gaussian/g16/B01/g16/l1002.exe)
 Minotr:  Closed shell wavefunction.
          Computing MP2/KS-MP2 derivatives.
          Using Z-Vector for PSCF gradient.
          Skipping F1 and S1 gradient terms here.
          Frozen-core window.
          Direct CPHF calculation.
          Differentiating once with respect to electric field.
                with respect to dipole field.
          Electric field/nuclear overlap derivatives assumed to be zero.
          Requested convergence is 1.0D-10 RMS, and 1.0D-09 maximum.
          NewPWx=F KeepS1=T KeepF1=T KeepIn=T MapXYZ=F SortEE=F KeepMc=T.
 Keep R1 ints in memory in canonical form, NReq=88259957.
 FoFCou: FMM=F IPFlag=           0 FMFlag=           0 FMFlg1=           0
         NFxFlg=           0 DoJE=F BraDBF=F KetDBF=F FulRan=T
         wScrn=  0.000000 ICntrl=       600 IOpCl=  0 I1Cent=           0 NGrid=           0
         NMat0=    1 NMatS0=  11476 NMatT0=    0 NMatD0=    1 NMtDS0=    0 NMtDT0=    0
 Symmetry not used in FoFCou.
 Two-electron integral symmetry not used.
          MDV=   16106127360 using IRadAn=       5.
          Solving linear equations separately, MaxMat=       0.
          There are     1 degrees of freedom in the 1st order CPHF.  IDoFFX=0 NUNeed=     1.
 LinEq1:  Iter=  0 NonCon=     1 RMS=2.40D-03 Max=4.79D-02 NDo=     1
 AX will form     1 AO Fock derivatives at one time.
 LinEq1:  Iter=  1 NonCon=     1 RMS=3.98D-04 Max=5.06D-03 NDo=     1
 LinEq1:  Iter=  2 NonCon=     1 RMS=1.87D-04 Max=2.32D-03 NDo=     1
 LinEq1:  Iter=  3 NonCon=     1 RMS=5.22D-05 Max=9.92D-04 NDo=     1
 LinEq1:  Iter=  4 NonCon=     1 RMS=1.04D-05 Max=1.21D-04 NDo=     1
 LinEq1:  Iter=  5 NonCon=     1 RMS=4.57D-06 Max=5.56D-05 NDo=     1
 LinEq1:  Iter=  6 NonCon=     1 RMS=9.03D-07 Max=1.90D-05 NDo=     1
 LinEq1:  Iter=  7 NonCon=     1 RMS=2.03D-07 Max=3.23D-06 NDo=     1
 LinEq1:  Iter=  8 NonCon=     1 RMS=5.79D-08 Max=8.81D-07 NDo=     1
 LinEq1:  Iter=  9 NonCon=     1 RMS=7.57D-09 Max=1.36D-07 NDo=     1
 LinEq1:  Iter= 10 NonCon=     1 RMS=1.03D-09 Max=1.30D-08 NDo=     1
 LinEq1:  Iter= 11 NonCon=     1 RMS=3.13D-10 Max=5.33D-09 NDo=     1
 LinEq1:  Iter= 12 NonCon=     0 RMS=7.10D-11 Max=9.07D-10 NDo=     1
 Linear equations converged to 1.000D-10 1.000D-09 after    12 iterations.
 End of Minotr F.D. properties file   721 does not exist.
 End of Minotr F.D. properties file   722 does not exist.
 End of Minotr F.D. properties file   788 does not exist.
 Leave Link 1002 at Tue Oct 19 16:40:18 2021, MaxMem= 16106127360 cpu:              44.7 elap:               3.2
 (Enter /sw/contrib/gaussian/g16/B01/g16/l601.exe)
 Copying SCF densities to generalized density rwf, IOpCl= 0 IROHF=0.

 **********************************************************************

            Population analysis using the MP2 Density.

 **********************************************************************

 Alpha  occ. eigenvalues -- -489.74040 -64.88065 -58.23514 -58.23513 -58.23512
 Alpha  occ. eigenvalues --  -20.38877  -9.55311  -7.16068  -7.16046  -7.16041
 Alpha  occ. eigenvalues --   -2.90233  -2.90225  -2.90220  -2.90197  -2.90197
 Alpha  occ. eigenvalues --   -1.17000  -0.71195  -0.52720  -0.41596  -0.33350
 Alpha  occ. eigenvalues --   -0.16623  -0.16099  -0.16052
 Alpha virt. eigenvalues --    0.13587   0.17386   0.23378   0.24172   0.24865
 Alpha virt. eigenvalues --    0.27541   0.29438   0.29919   0.34045   0.34890
 Alpha virt. eigenvalues --    0.39856   0.41047   0.41644   0.46301   0.48145
 Alpha virt. eigenvalues --    0.48547   0.51929   0.53501   0.57449   0.59702
 Alpha virt. eigenvalues --    0.61552   0.63399   0.70639   0.73878   0.74992
 Alpha virt. eigenvalues --    0.75923   0.82207   0.87450   0.88188   0.88662
 Alpha virt. eigenvalues --    0.90494   0.96041   0.99322   1.01064   1.01644
 Alpha virt. eigenvalues --    1.02065   1.03667   1.04808   1.07548   1.09230
 Alpha virt. eigenvalues --    1.09610   1.11118   1.16514   1.17523   1.18045
 Alpha virt. eigenvalues --    1.19275   1.19358   1.22399   1.22909   1.25062
 Alpha virt. eigenvalues --    1.33626   1.36680   1.41824   1.44990   1.46745
 Alpha virt. eigenvalues --    1.51440   1.63301   1.64803   1.68988   1.69775
 Alpha virt. eigenvalues --    1.77513   1.81920   2.05412   2.07071   2.18722
 Alpha virt. eigenvalues --    2.39905   2.42095   2.42788   2.44684   2.49658
 Alpha virt. eigenvalues --    2.52570   2.54673   2.55316   2.55964   2.56301
 Alpha virt. eigenvalues --    2.56425   2.57477   2.59128   2.61869   2.62676
 Alpha virt. eigenvalues --    2.66171   2.66541   2.67514   2.70406   2.74338
 Alpha virt. eigenvalues --    2.76868   2.81399   2.91641   2.92662   2.99346
 Alpha virt. eigenvalues --    3.10663   3.12944   3.14197   3.87063   4.11957
 Alpha virt. eigenvalues --    4.22544   4.33205   4.35856   4.43884   4.44752
 Alpha virt. eigenvalues --    4.55312   4.56982   4.61842   4.71154   4.79260
 Alpha virt. eigenvalues --    4.97651   5.13396   5.29261   5.37462   5.45798
 Alpha virt. eigenvalues --    5.51126   5.67845   5.83477   6.39154   6.70287
 Alpha virt. eigenvalues --    6.90009   7.10658   7.28841   7.43530   7.44622
 Alpha virt. eigenvalues --    7.47487   7.54803   7.61165   7.80964   8.07629
 Alpha virt. eigenvalues --    8.12471   8.96028  16.23423
          Condensed to atoms (all electrons):
               1          2          3          4
     1  O    8.259760   0.211977  -0.063368   0.126680
     2  H    0.211977   0.606446   0.004457   0.009211
     3  Br  -0.063368   0.004457  35.949756   0.031562
     4  H    0.126680   0.009211   0.031562   0.543000
 Mulliken charges:
               1
     1  O   -0.535049
     2  H    0.167909
     3  Br  -0.922407
     4  H    0.289546
 Sum of Mulliken charges =  -1.00000
 Mulliken charges with hydrogens summed into heavy atoms:
               1
     1  O   -0.077593
     3  Br  -0.922407
 Electronic spatial extent (au):  <R**2>=           1433.9709
 Charge=             -1.0000 electrons
 Dipole moment (field-independent basis, Debye):
    X=              3.8839    Y=             12.4025    Z=              0.0626  Tot=             12.9966
 Quadrupole moment (field-independent basis, Debye-Ang):
   XX=            -30.8708   YY=            -74.1496   ZZ=            -31.6771
   XY=             -8.3818   XZ=             -0.0265   YZ=             -0.0474
 Traceless Quadrupole moment (field-independent basis, Debye-Ang):
   XX=             14.6950   YY=            -28.5838   ZZ=             13.8887
   XY=             -8.3818   XZ=             -0.0265   YZ=             -0.0474
 Octapole moment (field-independent basis, Debye-Ang**2):
  XXX=             47.8576  YYY=            365.3084  ZZZ=             -0.3401  XYY=             42.8537
  XXY=             81.1956  XXZ=             -0.1319  XZZ=             14.9200  YZZ=             75.4818
  YYZ=             -0.4893  XYZ=             -0.0800
 Hexadecapole moment (field-independent basis, Debye-Ang**3):
 XXXX=           -111.1163 YYYY=          -1922.4393 ZZZZ=            -50.2669 XXXY=           -151.7712
 XXXZ=              0.0845 YYYX=           -235.7437 YYYZ=              2.0512 ZZZX=              0.0784
 ZZZY=              0.4776 XXYY=           -284.3877 XXZZ=            -27.1364 YYZZ=           -256.3150
 XXYZ=              0.2206 YYXZ=              0.3434 ZZXY=            -49.4086
 N-N= 6.786090180738D+01 E-N=-6.482108510212D+03  KE= 2.648363782491D+03
 No NMR shielding tensors so no spin-rotation constants.
 Leave Link  601 at Tue Oct 19 16:40:18 2021, MaxMem= 16106127360 cpu:               4.9 elap:               0.2
 (Enter /sw/contrib/gaussian/g16/B01/g16/l607.exe)
 ******************************Gaussian NBO Version 3.1******************************
             N A T U R A L   A T O M I C   O R B I T A L   A N D
          N A T U R A L   B O N D   O R B I T A L   A N A L Y S I S
 ******************************Gaussian NBO Version 3.1******************************
       /RESON  / : Allow strongly delocalized NBO set

 Analyzing the MP2 density

 Job title: title                                                           

 Storage needed:     69217 in NPA,     91732 in NBO (********** available)
 GSVD:  LWork=        1591 too small for GESVD, short by       39920 words or       39920 for optimal perf.


 NATURAL POPULATIONS:  Natural atomic orbital occupancies 
                                                          
   NAO  Atom  No  lang   Type(AO)    Occupancy
 --------------------------------------------
     1    O    1  S      Cor( 1S)     1.99967
     2    O    1  S      Val( 2S)     1.74164
     3    O    1  S      Ryd( 3S)     0.00601
     4    O    1  S      Ryd( 4S)     0.00047
     5    O    1  S      Ryd( 5S)     0.00019
     6    O    1  px     Val( 2p)     1.52304
     7    O    1  px     Ryd( 3p)     0.00983
     8    O    1  px     Ryd( 4p)     0.00052
     9    O    1  px     Ryd( 5p)     0.00007
    10    O    1  py     Val( 2p)     1.66891
    11    O    1  py     Ryd( 3p)     0.01135
    12    O    1  py     Ryd( 4p)     0.00061
    13    O    1  py     Ryd( 5p)     0.00009
    14    O    1  pz     Val( 2p)     1.95137
    15    O    1  pz     Ryd( 3p)     0.02074
    16    O    1  pz     Ryd( 4p)     0.00060
    17    O    1  pz     Ryd( 5p)     0.00001
    18    O    1  dxy    Ryd( 3d)     0.00820
    19    O    1  dxy    Ryd( 4d)     0.00042
    20    O    1  dxy    Ryd( 5d)     0.00007
    21    O    1  dxz    Ryd( 3d)     0.00818
    22    O    1  dxz    Ryd( 4d)     0.00045
    23    O    1  dxz    Ryd( 5d)     0.00006
    24    O    1  dyz    Ryd( 3d)     0.00776
    25    O    1  dyz    Ryd( 4d)     0.00048
    26    O    1  dyz    Ryd( 5d)     0.00009
    27    O    1  dx2y2  Ryd( 3d)     0.01236
    28    O    1  dx2y2  Ryd( 4d)     0.00031
    29    O    1  dx2y2  Ryd( 5d)     0.00009
    30    O    1  dz2    Ryd( 3d)     0.00901
    31    O    1  dz2    Ryd( 4d)     0.00045
    32    O    1  dz2    Ryd( 5d)     0.00010
    33    O    1  f(0)   Ryd( 4f)     0.00063
    34    O    1  f(0)   Ryd( 5f)     0.00010
    35    O    1  f(C1)  Ryd( 4f)     0.00056
    36    O    1  f(C1)  Ryd( 5f)     0.00008
    37    O    1  f(S1)  Ryd( 4f)     0.00056
    38    O    1  f(S1)  Ryd( 5f)     0.00009
    39    O    1  f(C2)  Ryd( 4f)     0.00046
    40    O    1  f(C2)  Ryd( 5f)     0.00009
    41    O    1  f(S2)  Ryd( 4f)     0.00046
    42    O    1  f(S2)  Ryd( 5f)     0.00007
    43    O    1  f(C3)  Ryd( 4f)     0.00041
    44    O    1  f(C3)  Ryd( 5f)     0.00012
    45    O    1  f(S3)  Ryd( 4f)     0.00040
    46    O    1  f(S3)  Ryd( 5f)     0.00009

    47    H    2  S      Val( 1S)     0.54904
    48    H    2  S      Ryd( 2S)     0.00165
    49    H    2  S      Ryd( 3S)     0.00018
    50    H    2  S      Ryd( 4S)     0.00007
    51    H    2  px     Ryd( 2p)     0.00153
    52    H    2  px     Ryd( 3p)     0.00053
    53    H    2  px     Ryd( 4p)     0.00014
    54    H    2  py     Ryd( 2p)     0.00184
    55    H    2  py     Ryd( 3p)     0.00023
    56    H    2  py     Ryd( 4p)     0.00009
    57    H    2  pz     Ryd( 2p)     0.00489
    58    H    2  pz     Ryd( 3p)     0.00018
    59    H    2  pz     Ryd( 4p)     0.00005
    60    H    2  dxy    Ryd( 3d)     0.00006
    61    H    2  dxy    Ryd( 4d)     0.00005
    62    H    2  dxz    Ryd( 3d)     0.00008
    63    H    2  dxz    Ryd( 4d)     0.00006
    64    H    2  dyz    Ryd( 3d)     0.00011
    65    H    2  dyz    Ryd( 4d)     0.00004
    66    H    2  dx2y2  Ryd( 3d)     0.00009
    67    H    2  dx2y2  Ryd( 4d)     0.00004
    68    H    2  dz2    Ryd( 3d)     0.00011
    69    H    2  dz2    Ryd( 4d)     0.00006

    70   Br    3  S      Cor( 1S)     2.00001
    71   Br    3  S      Cor( 2S)     2.00000
    72   Br    3  S      Cor( 3S)     2.00000
    73   Br    3  S      Val( 4S)     1.97730
    74   Br    3  S      Ryd( 5S)     0.00251
    75   Br    3  S      Ryd( 6S)     0.00051
    76   Br    3  S      Ryd( 7S)     0.00009
    77   Br    3  px     Cor( 2p)     2.00002
    78   Br    3  px     Cor( 3p)     2.00000
    79   Br    3  px     Val( 4p)     1.95200
    80   Br    3  px     Ryd( 5p)     0.01167
    81   Br    3  px     Ryd( 6p)     0.00083
    82   Br    3  px     Ryd( 7p)     0.00005
    83   Br    3  py     Cor( 3p)     1.99998
    84   Br    3  py     Cor( 2p)     2.00000
    85   Br    3  py     Val( 4p)     1.91279
    86   Br    3  py     Ryd( 5p)     0.01021
    87   Br    3  py     Ryd( 6p)     0.00079
    88   Br    3  py     Ryd( 7p)     0.00013
    89   Br    3  pz     Cor( 2p)     2.00002
    90   Br    3  pz     Cor( 3p)     2.00000
    91   Br    3  pz     Val( 4p)     1.95404
    92   Br    3  pz     Ryd( 5p)     0.01170
    93   Br    3  pz     Ryd( 6p)     0.00083
    94   Br    3  pz     Ryd( 7p)     0.00004
    95   Br    3  dxy    Cor( 3d)     1.99767
    96   Br    3  dxy    Ryd( 4d)     0.01875
    97   Br    3  dxy    Ryd( 5d)     0.00150
    98   Br    3  dxy    Ryd( 6d)     0.00020
    99   Br    3  dxz    Cor( 3d)     1.99769
   100   Br    3  dxz    Ryd( 4d)     0.01867
   101   Br    3  dxz    Ryd( 5d)     0.00177
   102   Br    3  dxz    Ryd( 6d)     0.00022
   103   Br    3  dyz    Cor( 3d)     1.99767
   104   Br    3  dyz    Ryd( 4d)     0.01878
   105   Br    3  dyz    Ryd( 5d)     0.00151
   106   Br    3  dyz    Ryd( 6d)     0.00020
   107   Br    3  dx2y2  Cor( 3d)     1.99765
   108   Br    3  dx2y2  Ryd( 4d)     0.01840
   109   Br    3  dx2y2  Ryd( 5d)     0.00163
   110   Br    3  dx2y2  Ryd( 6d)     0.00024
   111   Br    3  dz2    Cor( 3d)     1.99768
   112   Br    3  dz2    Ryd( 4d)     0.01856
   113   Br    3  dz2    Ryd( 5d)     0.00173
   114   Br    3  dz2    Ryd( 6d)     0.00022
   115   Br    3  f(0)   Ryd( 4f)     0.00174
   116   Br    3  f(0)   Ryd( 5f)     0.00025
   117   Br    3  f(C1)  Ryd( 4f)     0.00175
   118   Br    3  f(C1)  Ryd( 5f)     0.00024
   119   Br    3  f(S1)  Ryd( 4f)     0.00174
   120   Br    3  f(S1)  Ryd( 5f)     0.00026
   121   Br    3  f(C2)  Ryd( 4f)     0.00173
   122   Br    3  f(C2)  Ryd( 5f)     0.00025
   123   Br    3  f(S2)  Ryd( 4f)     0.00176
   124   Br    3  f(S2)  Ryd( 5f)     0.00025
   125   Br    3  f(C3)  Ryd( 4f)     0.00170
   126   Br    3  f(C3)  Ryd( 5f)     0.00025
   127   Br    3  f(S3)  Ryd( 4f)     0.00172
   128   Br    3  f(S3)  Ryd( 5f)     0.00026

   129    H    4  S      Val( 1S)     0.49015
   130    H    4  S      Ryd( 2S)     0.00672
   131    H    4  S      Ryd( 3S)     0.00033
   132    H    4  S      Ryd( 4S)     0.00011
   133    H    4  px     Ryd( 2p)     0.00338
   134    H    4  px     Ryd( 3p)     0.00041
   135    H    4  px     Ryd( 4p)     0.00008
   136    H    4  py     Ryd( 2p)     0.00396
   137    H    4  py     Ryd( 3p)     0.00055
   138    H    4  py     Ryd( 4p)     0.00021
   139    H    4  pz     Ryd( 2p)     0.00372
   140    H    4  pz     Ryd( 3p)     0.00045
   141    H    4  pz     Ryd( 4p)     0.00008
   142    H    4  dxy    Ryd( 3d)     0.00020
   143    H    4  dxy    Ryd( 4d)     0.00009
   144    H    4  dxz    Ryd( 3d)     0.00015
   145    H    4  dxz    Ryd( 4d)     0.00005
   146    H    4  dyz    Ryd( 3d)     0.00021
   147    H    4  dyz    Ryd( 4d)     0.00009
   148    H    4  dx2y2  Ryd( 3d)     0.00017
   149    H    4  dx2y2  Ryd( 4d)     0.00009
   150    H    4  dz2    Ryd( 3d)     0.00017
   151    H    4  dz2    Ryd( 4d)     0.00007

 WARNING:  5 low occupancy (<1.9990e) core orbitals found on Br    3


 Summary of Natural Population Analysis:                  
                                                          
                                       Natural Population 
                Natural  -----------------------------------------------
    Atom  No    Charge         Core      Valence    Rydberg      Total
 -----------------------------------------------------------------------
      O    1   -0.98728      1.99967     6.88496    0.10265     8.98728
      H    2    0.43888      0.00000     0.54904    0.01207     0.56112
     Br    3   -0.94018     27.98838     7.79613    0.15566    35.94018
      H    4    0.48857      0.00000     0.49015    0.02128     0.51143
 =======================================================================
   * Total *   -1.00000     29.98806    15.72029    0.29165    46.00000

                                 Natural Population      
 --------------------------------------------------------
   Core                      29.98806 ( 99.9602% of  30)
   Valence                   15.72029 ( 98.2518% of  16)
   Natural Minimal Basis     45.70835 ( 99.3660% of  46)
   Natural Rydberg Basis      0.29165 (  0.6340% of  46)
 --------------------------------------------------------

    Atom  No          Natural Electron Configuration
 ----------------------------------------------------------------------------
      O    1      [core]2S( 1.74)2p( 5.14)3S( 0.01)3p( 0.04)3d( 0.05)
      H    2            1S( 0.55)2p( 0.01)
     Br    3      [core]4S( 1.98)4p( 5.82)4d( 0.09)5p( 0.03)4f( 0.01)5d( 0.01)
      H    4            1S( 0.49)2S( 0.01)2p( 0.01)


 NATURAL BOND ORBITAL ANALYSIS:
 Warning:  a bond orbital has occupanc of -0.00003

                       Occupancies       Lewis Structure    Low   High
           Occ.    -------------------  -----------------   occ   occ
  Cycle   Thresh.   Lewis   Non-Lewis     CR  BD  3C  LP    (L)   (NL)   Dev
 =============================================================================
   1(1)    1.90    45.64838   0.35162     15   2   0   6     0      0    0.07
 -----------------------------------------------------------------------------

 Structure accepted: No low occupancy Lewis orbitals

 WARNING:  5 low occupancy (<1.9990e) core orbitals found on Br    3

 --------------------------------------------------------
   Core                     29.98806 ( 99.960% of  30)
   Valence Lewis            15.66032 ( 97.877% of  16)
  ==================       ============================
   Total Lewis              45.64838 ( 99.236% of  46)
  -----------------------------------------------------
   Valence non-Lewis         0.08589 (  0.187% of  46)
   Rydberg non-Lewis         0.26573 (  0.578% of  46)
  ==================       ============================
   Total non-Lewis           0.35162 (  0.764% of  46)
 --------------------------------------------------------


       (Occupancy)   Bond orbital/ Coefficients/ Hybrids
 ---------------------------------------------------------------------------------
     1. (1.96582) BD ( 1) O   1 - H   2  
                ( 72.83%)   0.8534* O   1 s( 21.01%)p 3.74( 78.52%)d 0.02(  0.46%)
                                                  f 0.00(  0.01%)
                                            0.0002  0.4583 -0.0050 -0.0019 -0.0023
                                            0.8837 -0.0316  0.0092 -0.0030  0.0543
                                           -0.0141  0.0009 -0.0032 -0.0033  0.0014
                                           -0.0001  0.0002 -0.0195  0.0033  0.0008
                                            0.0023 -0.0004 -0.0002 -0.0006 -0.0000
                                           -0.0004  0.0542 -0.0040 -0.0041 -0.0349
                                            0.0019 -0.0003  0.0000 -0.0000 -0.0098
                                            0.0003 -0.0002  0.0000 -0.0002  0.0001
                                           -0.0011  0.0005  0.0036  0.0039  0.0021
                                           -0.0008
                ( 27.17%)   0.5212* H   2 s( 99.88%)p 0.00(  0.12%)d 0.00(  0.00%)
                                            0.9994  0.0035 -0.0002  0.0002  0.0176
                                            0.0273 -0.0049 -0.0099 -0.0041 -0.0023
                                            0.0019  0.0006  0.0002 -0.0003  0.0026
                                            0.0000 -0.0002 -0.0005 -0.0001 -0.0013
                                            0.0014 -0.0011 -0.0011
     2. (1.96798) BD ( 1) O   1 - H   4  
                ( 77.63%)   0.8811* O   1 s( 26.56%)p 2.75( 73.02%)d 0.02(  0.41%)
                                                  f 0.00(  0.01%)
                                           -0.0003 -0.5154  0.0028  0.0017  0.0012
                                            0.2138 -0.0185  0.0020 -0.0013  0.8232
                                           -0.0141  0.0065 -0.0021 -0.0786  0.0010
                                           -0.0007  0.0007  0.0032 -0.0026 -0.0013
                                           -0.0003  0.0003  0.0002  0.0110 -0.0008
                                            0.0000  0.0522 -0.0037 -0.0008  0.0347
                                           -0.0022  0.0014  0.0020 -0.0001 -0.0018
                                           -0.0001 -0.0084  0.0004  0.0014  0.0002
                                           -0.0006 -0.0002 -0.0027 -0.0016 -0.0017
                                           -0.0019
                ( 22.37%)   0.4729* H   4 s( 99.91%)p 0.00(  0.09%)d 0.00(  0.00%)
                                           -0.9992 -0.0257 -0.0008  0.0003 -0.0163
                                           -0.0025 -0.0011 -0.0007 -0.0234 -0.0093
                                           -0.0027  0.0024  0.0008  0.0017  0.0019
                                           -0.0003 -0.0002  0.0002 -0.0002 -0.0028
                                            0.0009  0.0004  0.0013
     3. (1.99967) CR ( 1) O   1           s(100.00%)
                                            1.0000 -0.0004  0.0000  0.0000  0.0000
                                           -0.0001  0.0000 -0.0000  0.0000  0.0001
                                           -0.0000  0.0000  0.0000 -0.0000  0.0000
                                           -0.0000  0.0000 -0.0000 -0.0000 -0.0000
                                            0.0000  0.0000  0.0000  0.0000 -0.0000
                                            0.0000  0.0000 -0.0000  0.0000  0.0000
                                           -0.0000  0.0000  0.0000  0.0000  0.0000
                                            0.0000 -0.0000 -0.0000  0.0000  0.0000
                                           -0.0000 -0.0000 -0.0000 -0.0000 -0.0000
                                           -0.0000
     4. (2.00001) CR ( 1)Br   3           s(100.00%)p 0.00(  0.00%)
                                            1.0000  0.0000 -0.0000  0.0000  0.0000
                                           -0.0000  0.0000 -0.0000 -0.0000  0.0000
                                            0.0000 -0.0000  0.0000 -0.0000 -0.0000
                                            0.0002 -0.0000 -0.0000  0.0000 -0.0000
                                           -0.0000  0.0000  0.0000 -0.0000  0.0000
                                           -0.0000  0.0000 -0.0000  0.0000 -0.0000
                                            0.0000 -0.0000  0.0000 -0.0000  0.0000
                                           -0.0000  0.0000  0.0000 -0.0000  0.0000
                                            0.0000  0.0000 -0.0000  0.0000 -0.0000
                                           -0.0000 -0.0000 -0.0000 -0.0000 -0.0000
                                           -0.0000 -0.0000 -0.0000  0.0000  0.0000
                                           -0.0000 -0.0000 -0.0000 -0.0000
     5. (2.00000) CR ( 2)Br   3           s(100.00%)
                                            0.0000  1.0000  0.0000 -0.0000 -0.0000
                                            0.0000 -0.0000  0.0000  0.0000 -0.0000
                                           -0.0000  0.0000 -0.0000  0.0000  0.0000
                                           -0.0000  0.0000  0.0000 -0.0000  0.0000
                                            0.0000 -0.0000 -0.0000  0.0000 -0.0000
                                            0.0000 -0.0000  0.0000 -0.0000  0.0000
                                           -0.0000  0.0000 -0.0000  0.0000 -0.0000
                                            0.0000 -0.0000 -0.0000  0.0000 -0.0000
                                           -0.0000 -0.0000  0.0000 -0.0000  0.0000
                                            0.0000  0.0000  0.0000  0.0000  0.0000
                                            0.0000  0.0000  0.0000 -0.0000 -0.0000
                                            0.0000  0.0000  0.0000  0.0000
     6. (2.00000) CR ( 3)Br   3           s(100.00%)
                                           -0.0000  0.0000  1.0000  0.0000  0.0000
                                           -0.0000  0.0000 -0.0000 -0.0000  0.0000
                                            0.0000 -0.0000  0.0000 -0.0000 -0.0000
                                            0.0000 -0.0000 -0.0000  0.0000 -0.0000
                                           -0.0000  0.0000  0.0000 -0.0000  0.0000
                                           -0.0000  0.0000 -0.0000  0.0000 -0.0000
                                            0.0000 -0.0000  0.0000 -0.0000  0.0000
                                           -0.0000  0.0000  0.0000 -0.0000  0.0000
                                            0.0000  0.0000 -0.0000  0.0000 -0.0000
                                           -0.0000 -0.0000 -0.0000 -0.0000 -0.0000
                                           -0.0000 -0.0000 -0.0000  0.0000  0.0000
                                           -0.0000 -0.0000 -0.0000 -0.0000
     7. (2.00002) CR ( 4)Br   3           s(  0.00%)p 1.00(100.00%)
                                           -0.0000  0.0000 -0.0000  0.0000  0.0000
                                           -0.0000  0.0000  1.0000 -0.0000 -0.0001
                                           -0.0000 -0.0000  0.0000 -0.0000 -0.0000
                                            0.0001 -0.0000 -0.0000  0.0000 -0.0000
                                           -0.0000  0.0000  0.0000 -0.0000  0.0000
                                           -0.0000 -0.0000  0.0000  0.0000 -0.0000
                                           -0.0000  0.0000 -0.0000 -0.0000  0.0000
                                           -0.0000  0.0000  0.0000 -0.0000  0.0000
                                           -0.0000  0.0000 -0.0000  0.0000  0.0000
                                           -0.0000 -0.0000  0.0000  0.0000 -0.0000
                                           -0.0000 -0.0000 -0.0000 -0.0000 -0.0000
                                            0.0000  0.0000 -0.0000 -0.0000
     8. (2.00000) CR ( 5)Br   3           s(  0.00%)p 1.00(100.00%)
                                           -0.0000  0.0000 -0.0000  0.0000  0.0000
                                           -0.0000  0.0000 -0.0000  1.0000 -0.0000
                                           -0.0000 -0.0000  0.0000 -0.0000 -0.0000
                                            0.0000 -0.0000 -0.0000  0.0000 -0.0000
                                           -0.0000  0.0000  0.0000 -0.0000  0.0000
                                           -0.0000 -0.0000  0.0000  0.0000 -0.0000
                                           -0.0000  0.0000 -0.0000 -0.0000  0.0000
                                           -0.0000  0.0000  0.0000 -0.0000  0.0000
                                           -0.0000  0.0000 -0.0000  0.0000  0.0000
                                           -0.0000 -0.0000  0.0000  0.0000 -0.0000
                                           -0.0000 -0.0000 -0.0000 -0.0000 -0.0000
                                            0.0000  0.0000 -0.0000 -0.0000
     9. (1.99998) CR ( 6)Br   3           s(  0.00%)p 1.00(100.00%)
                                           -0.0000  0.0000 -0.0000  0.0001  0.0000
                                           -0.0000  0.0000 -0.0000 -0.0000  0.0001
                                            0.0000 -0.0000  0.0000  1.0000 -0.0000
                                            0.0002 -0.0000 -0.0000  0.0000 -0.0000
                                           -0.0000  0.0000  0.0000 -0.0000  0.0000
                                           -0.0000  0.0000 -0.0000  0.0000 -0.0000
                                            0.0000 -0.0000  0.0000 -0.0000  0.0000
                                           -0.0000  0.0000  0.0000 -0.0000  0.0000
                                            0.0000  0.0000 -0.0000  0.0000 -0.0000
                                           -0.0000 -0.0000 -0.0000 -0.0000 -0.0000
                                           -0.0000 -0.0000 -0.0000  0.0000  0.0000
                                           -0.0000 -0.0000 -0.0000 -0.0000
    10. (2.00000) CR ( 7)Br   3           s(  0.00%)p 1.00(100.00%)
                                           -0.0000  0.0000 -0.0000  0.0000  0.0000
                                           -0.0000  0.0000 -0.0000 -0.0000  0.0000
                                            0.0000 -0.0000  0.0000 -0.0000  1.0000
                                            0.0000 -0.0000 -0.0000  0.0000 -0.0000
                                           -0.0000  0.0000  0.0000 -0.0000  0.0000
                                           -0.0000  0.0000 -0.0000  0.0000 -0.0000
                                            0.0000 -0.0000  0.0000 -0.0000  0.0000
                                           -0.0000  0.0000  0.0000 -0.0000  0.0000
                                            0.0000  0.0000 -0.0000  0.0000 -0.0000
                                           -0.0000 -0.0000 -0.0000 -0.0000 -0.0000
                                           -0.0000 -0.0000 -0.0000  0.0000  0.0000
                                           -0.0000 -0.0000 -0.0000 -0.0000
    11. (2.00002) CR ( 8)Br   3           s(  0.00%)p 1.00(100.00%)
                                           -0.0000  0.0000 -0.0000  0.0000  0.0000
                                           -0.0000  0.0000 -0.0000 -0.0000  0.0000
                                            0.0000 -0.0000  0.0000 -0.0000 -0.0000
                                            0.0000 -0.0000 -0.0000  0.0000  1.0000
                                           -0.0000 -0.0001 -0.0000 -0.0000 -0.0000
                                           -0.0000  0.0000 -0.0000  0.0000  0.0000
                                           -0.0000  0.0000 -0.0000  0.0000 -0.0000
                                            0.0000  0.0000  0.0000 -0.0000  0.0000
                                            0.0000  0.0000 -0.0000  0.0000 -0.0000
                                            0.0000  0.0000 -0.0000 -0.0000 -0.0000
                                           -0.0000  0.0000  0.0000 -0.0000 -0.0000
                                           -0.0000 -0.0000 -0.0000 -0.0000
    12. (2.00000) CR ( 9)Br   3           s(  0.00%)p 1.00(100.00%)
                                           -0.0000  0.0000 -0.0000  0.0000  0.0000
                                           -0.0000  0.0000 -0.0000 -0.0000  0.0000
                                            0.0000 -0.0000  0.0000 -0.0000 -0.0000
                                            0.0000 -0.0000 -0.0000  0.0000 -0.0000
                                            1.0000 -0.0000 -0.0000 -0.0000 -0.0000
                                           -0.0000  0.0000 -0.0000  0.0000  0.0000
                                           -0.0000  0.0000 -0.0000  0.0000 -0.0000
                                            0.0000  0.0000  0.0000 -0.0000  0.0000
                                            0.0000  0.0000 -0.0000  0.0000 -0.0000
                                            0.0000  0.0000 -0.0000 -0.0000 -0.0000
                                           -0.0000  0.0000  0.0000 -0.0000 -0.0000
                                           -0.0000 -0.0000 -0.0000 -0.0000
    13. (1.99767) CR (10)Br   3           s(  0.00%)p 0.00(  0.00%)d 1.00(100.00%)
                                           -0.0000  0.0000 -0.0000  0.0000  0.0000
                                           -0.0000  0.0000 -0.0000 -0.0000  0.0000
                                            0.0000 -0.0000  0.0000 -0.0000 -0.0000
                                            0.0001 -0.0000 -0.0000  0.0000 -0.0000
                                           -0.0000  0.0000  0.0000 -0.0000  0.0000
                                            1.0000  0.0000 -0.0000  0.0000 -0.0000
                                            0.0000 -0.0000  0.0000 -0.0000  0.0000
                                           -0.0000  0.0000  0.0000 -0.0000  0.0000
                                            0.0000  0.0000 -0.0000  0.0000 -0.0000
                                           -0.0000 -0.0000 -0.0000 -0.0000 -0.0000
                                           -0.0000 -0.0000 -0.0000  0.0000  0.0000
                                           -0.0000 -0.0000 -0.0000 -0.0000
    14. (1.99769) CR (11)Br   3           s(  0.00%)p 0.00(  0.00%)d 1.00(100.00%)
                                           -0.0000  0.0000 -0.0000  0.0000  0.0000
                                            0.0000 -0.0000 -0.0000 -0.0000  0.0000
                                            0.0000 -0.0000 -0.0000 -0.0000 -0.0000
                                            0.0000 -0.0000 -0.0000  0.0000  0.0000
                                            0.0000  0.0000  0.0000  0.0000  0.0000
                                           -0.0000  0.0000 -0.0000  0.0000  1.0000
                                            0.0000 -0.0000  0.0000 -0.0000  0.0000
                                           -0.0000 -0.0000  0.0000 -0.0000  0.0000
                                            0.0000  0.0000 -0.0000  0.0000 -0.0000
                                           -0.0000 -0.0000 -0.0000 -0.0000 -0.0000
                                           -0.0000 -0.0000 -0.0000  0.0000  0.0000
                                           -0.0000 -0.0000 -0.0000 -0.0000
    15. (1.99767) CR (12)Br   3           s(  0.00%)p 0.00(  0.00%)d 1.00(100.00%)
                                           -0.0000  0.0000 -0.0000  0.0000  0.0000
                                           -0.0000  0.0000 -0.0000 -0.0000  0.0000
                                            0.0000 -0.0000  0.0000 -0.0000 -0.0000
                                            0.0000 -0.0000 -0.0000  0.0000  0.0000
                                            0.0000  0.0000  0.0000  0.0000  0.0000
                                           -0.0000  0.0000 -0.0000  0.0000 -0.0000
                                            0.0000 -0.0000  0.0000  1.0000  0.0000
                                           -0.0000 -0.0000  0.0000 -0.0000  0.0000
                                            0.0000  0.0000 -0.0000  0.0000 -0.0000
                                           -0.0000 -0.0000 -0.0000 -0.0000 -0.0000
                                           -0.0000 -0.0000 -0.0000  0.0000  0.0000
                                           -0.0000 -0.0000 -0.0000 -0.0000
    16. (1.99765) CR (13)Br   3           s(  0.00%)p 0.00(  0.00%)d 1.00(100.00%)
                                            0.0000 -0.0000  0.0000 -0.0001 -0.0000
                                            0.0000 -0.0000  0.0000  0.0000 -0.0000
                                           -0.0000  0.0000 -0.0000  0.0000  0.0000
                                           -0.0002  0.0000  0.0000 -0.0000  0.0000
                                            0.0000 -0.0000 -0.0000  0.0000 -0.0000
                                            0.0000 -0.0000  0.0000 -0.0000  0.0000
                                           -0.0000  0.0000 -0.0000  0.0000 -0.0000
                                            0.0000 -0.0000  1.0000  0.0000 -0.0000
                                           -0.0000 -0.0000  0.0000 -0.0000  0.0000
                                            0.0000  0.0000  0.0000  0.0000  0.0000
                                            0.0000  0.0000  0.0000 -0.0000 -0.0000
                                            0.0000  0.0000  0.0000  0.0000
    17. (1.99768) CR (14)Br   3           s(  0.00%)p 0.00(  0.00%)d 1.00(100.00%)
                                            0.0000 -0.0000  0.0000 -0.0000 -0.0000
                                            0.0000 -0.0000  0.0000  0.0000 -0.0000
                                           -0.0000  0.0000 -0.0000  0.0000  0.0000
                                           -0.0001  0.0000  0.0000 -0.0000  0.0000
                                            0.0000 -0.0000 -0.0000  0.0000 -0.0000
                                            0.0000 -0.0000  0.0000 -0.0000  0.0000
                                           -0.0000  0.0000 -0.0000  0.0000 -0.0000
                                            0.0000 -0.0000 -0.0000  0.0000 -0.0000
                                           -0.0000  1.0000  0.0000 -0.0000  0.0000
                                            0.0000  0.0000  0.0000  0.0000  0.0000
                                            0.0000  0.0000  0.0000 -0.0000 -0.0000
                                            0.0000  0.0000  0.0000  0.0000
    18. (1.96981) LP ( 1) O   1           s( 52.34%)p 0.91( 47.54%)d 0.00(  0.11%)
                                                  f 0.00(  0.00%)
                                            0.0002  0.7235  0.0033  0.0018  0.0014
                                           -0.4085 -0.0049  0.0022  0.0000  0.5528
                                            0.0085 -0.0046  0.0008 -0.0541 -0.0009
                                            0.0004  0.0001  0.0290 -0.0040  0.0014
                                           -0.0031  0.0005  0.0000  0.0032 -0.0005
                                           -0.0002  0.0053 -0.0002  0.0013  0.0139
                                           -0.0019 -0.0011  0.0007 -0.0002  0.0028
                                           -0.0007 -0.0028  0.0009  0.0004 -0.0002
                                            0.0006 -0.0003  0.0012 -0.0016  0.0010
                                           -0.0003
    19. (1.95972) LP ( 2) O   1           s(  0.00%)p 1.00( 99.79%)d 0.00(  0.19%)
                                                  f 0.00(  0.01%)
                                           -0.0000  0.0002  0.0013  0.0010 -0.0002
                                           -0.0022  0.0002 -0.0001  0.0001  0.0955
                                            0.0026 -0.0005  0.0002  0.9939  0.0288
                                           -0.0069  0.0031  0.0031 -0.0004  0.0001
                                            0.0330 -0.0037  0.0007 -0.0278  0.0027
                                           -0.0038  0.0028 -0.0003  0.0003  0.0056
                                           -0.0007  0.0001 -0.0094  0.0027 -0.0003
                                            0.0001 -0.0024  0.0009 -0.0007  0.0014
                                            0.0022 -0.0005 -0.0002 -0.0000 -0.0000
                                            0.0001
    20. (1.97980) LP ( 1)Br   3           s( 96.53%)p 0.04(  3.47%)d 0.00(  0.00%)
                                                  f 0.00(  0.00%)
                                            0.0000 -0.0000  0.0000  0.9825 -0.0003
                                            0.0001 -0.0001 -0.0000 -0.0000 -0.0367
                                            0.0003 -0.0001  0.0001 -0.0001 -0.0000
                                           -0.1824  0.0007 -0.0006  0.0001 -0.0000
                                           -0.0000 -0.0092  0.0001 -0.0000  0.0000
                                           -0.0000  0.0003 -0.0002 -0.0002 -0.0000
                                           -0.0000 -0.0000 -0.0000 -0.0000  0.0001
                                           -0.0001 -0.0000  0.0000 -0.0007  0.0002
                                            0.0003  0.0000 -0.0006  0.0002  0.0002
                                           -0.0000 -0.0000 -0.0001 -0.0001 -0.0004
                                           -0.0003 -0.0001 -0.0001  0.0000  0.0000
                                           -0.0003 -0.0002 -0.0004 -0.0002
    21. (1.95429) LP ( 2)Br   3           s(  0.00%)p 1.00( 99.99%)d 0.00(  0.00%)
                                                  f 0.00(  0.00%)
                                           -0.0000 -0.0000  0.0000  0.0014  0.0001
                                           -0.0003  0.0006  0.0000  0.0000  0.0696
                                            0.0002  0.0001 -0.0000  0.0000  0.0000
                                            0.0437 -0.0002 -0.0001  0.0001 -0.0001
                                           -0.0000 -0.9966 -0.0009 -0.0010 -0.0000
                                           -0.0000  0.0006 -0.0002  0.0000  0.0000
                                           -0.0024  0.0011 -0.0010  0.0000 -0.0055
                                            0.0013  0.0010  0.0000  0.0000 -0.0001
                                            0.0003  0.0000 -0.0010  0.0004 -0.0003
                                            0.0016  0.0011 -0.0002 -0.0001 -0.0005
                                           -0.0004  0.0015  0.0009 -0.0010 -0.0007
                                           -0.0002 -0.0001  0.0000  0.0000
    22. (1.95407) LP ( 3)Br   3           s(  0.00%)p 1.00( 99.99%)d 0.00(  0.01%)
                                                  f 0.00(  0.00%)
                                           -0.0000 -0.0000 -0.0000  0.0025 -0.0004
                                           -0.0014  0.0021 -0.0001 -0.0000 -0.9752
                                           -0.0021 -0.0013  0.0006  0.0000  0.0000
                                            0.2130 -0.0004 -0.0002  0.0007 -0.0000
                                           -0.0000 -0.0588 -0.0000 -0.0001  0.0000
                                            0.0000 -0.0058  0.0013  0.0008  0.0000
                                           -0.0008  0.0004 -0.0003  0.0000 -0.0001
                                            0.0000  0.0001  0.0000 -0.0043  0.0015
                                           -0.0008 -0.0000  0.0006 -0.0005  0.0008
                                            0.0001  0.0001  0.0008  0.0005 -0.0001
                                            0.0000 -0.0000 -0.0000 -0.0003 -0.0003
                                            0.0016  0.0008 -0.0016 -0.0011
    23. (1.90885) LP ( 4)Br   3           s(  3.47%)p27.84( 96.50%)d 0.01(  0.03%)
                                                  f 0.00(  0.00%)
                                           -0.0002  0.0000 -0.0000  0.1862  0.0014
                                           -0.0003  0.0005 -0.0000 -0.0000  0.2064
                                            0.0001 -0.0004  0.0001 -0.0002 -0.0000
                                            0.9587 -0.0030 -0.0024  0.0005 -0.0000
                                           -0.0000  0.0567  0.0004 -0.0001  0.0000
                                           -0.0001  0.0068 -0.0015  0.0004 -0.0000
                                            0.0006 -0.0001  0.0000 -0.0000  0.0024
                                           -0.0007  0.0002  0.0002 -0.0118  0.0023
                                            0.0007  0.0001 -0.0084  0.0019 -0.0003
                                           -0.0005 -0.0002 -0.0007 -0.0003 -0.0029
                                           -0.0014 -0.0006 -0.0003  0.0002  0.0001
                                           -0.0021 -0.0007 -0.0027 -0.0010
    24. (0.01943) RY*( 1) O   1           s(  0.00%)p 1.00( 98.51%)d 0.01(  1.46%)
                                                  f 0.00(  0.02%)
                                           -0.0000 -0.0001  0.0052  0.0029 -0.0006
                                            0.0002 -0.0005 -0.0003 -0.0000 -0.0030
                                            0.0938  0.0031 -0.0019 -0.0337  0.9869
                                            0.0300 -0.0158  0.0097 -0.0014 -0.0003
                                            0.0979 -0.0144 -0.0054 -0.0655  0.0132
                                            0.0038  0.0062 -0.0013 -0.0006  0.0140
                                           -0.0029 -0.0020 -0.0082  0.0096  0.0003
                                            0.0002 -0.0026  0.0029 -0.0039  0.0029
                                           -0.0015 -0.0009  0.0004 -0.0002 -0.0002
                                            0.0001
    25. (0.01508) RY*( 2) O   1           s( 20.94%)p 3.65( 76.40%)d 0.12(  2.57%)
                                                  f 0.00(  0.09%)
                                            0.0000 -0.0095  0.4575  0.0044 -0.0002
                                            0.0075 -0.4788 -0.0135  0.0054 -0.0093
                                            0.7274  0.0100 -0.0110  0.0007 -0.0715
                                           -0.0019  0.0020  0.1558 -0.0169 -0.0011
                                           -0.0169  0.0023  0.0012  0.0068 -0.0014
                                            0.0003 -0.0007  0.0034  0.0039  0.0255
                                           -0.0106 -0.0031 -0.0012 -0.0000  0.0026
                                           -0.0017  0.0042  0.0010 -0.0023  0.0006
                                            0.0033 -0.0022  0.0221 -0.0133  0.0122
                                           -0.0039
    26. (0.00696) RY*( 3) O   1           s(  1.74%)p41.90( 72.74%)d14.43( 25.05%)
                                                  f 0.28(  0.48%)
                                            0.0000 -0.0001  0.1233 -0.0435  0.0160
                                           -0.0599 -0.6926 -0.0418  0.0220 -0.0377
                                           -0.4878 -0.0220  0.0027  0.0027  0.0441
                                            0.0034 -0.0045 -0.1990 -0.0100 -0.0029
                                           -0.0076 -0.0002 -0.0007 -0.0097  0.0037
                                            0.0040  0.4547  0.0444  0.0264  0.0327
                                            0.0075  0.0082  0.0019  0.0002 -0.0294
                                            0.0151 -0.0204  0.0087  0.0027 -0.0007
                                           -0.0016  0.0001  0.0224 -0.0157 -0.0445
                                            0.0220
    27. (0.00620) RY*( 4) O   1           s(  8.43%)p 0.18(  1.53%)d10.56( 89.02%)
                                                  f 0.12(  1.02%)
                                           -0.0000  0.0115  0.2900  0.0050  0.0046
                                            0.0048  0.1174  0.0059 -0.0064  0.0198
                                            0.0306 -0.0025 -0.0073 -0.0058 -0.0055
                                            0.0022 -0.0008 -0.6674 -0.0191  0.0022
                                           -0.2975 -0.0189 -0.0061 -0.5226 -0.0260
                                            0.0004 -0.1860 -0.0031  0.0011  0.2158
                                            0.0209  0.0096 -0.0170  0.0103 -0.0036
                                            0.0072  0.0075 -0.0057 -0.0577  0.0308
                                           -0.0048  0.0015 -0.0626  0.0247 -0.0261
                                            0.0098
    28. (0.00617) RY*( 5) O   1           s(  5.68%)p 0.04(  0.20%)d16.40( 93.10%)
                                                  f 0.18(  1.03%)
                                           -0.0000  0.0094  0.2380 -0.0009  0.0042
                                           -0.0024  0.0418  0.0005 -0.0030  0.0142
                                           -0.0015 -0.0046 -0.0021  0.0020 -0.0011
                                           -0.0027 -0.0012 -0.5271 -0.0136  0.0026
                                            0.4822  0.0265  0.0066  0.6117  0.0363
                                            0.0046 -0.2097 -0.0053  0.0023 -0.0012
                                            0.0072  0.0081  0.0099 -0.0053 -0.0060
                                            0.0071  0.0279 -0.0167  0.0673 -0.0338
                                           -0.0102  0.0060 -0.0508  0.0194 -0.0144
                                            0.0041
    29. (0.00588) RY*( 6) O   1           s(  0.01%)p99.99(  1.59%)d99.99( 97.54%)
                                                  f69.28(  0.85%)
                                           -0.0000  0.0005  0.0111  0.0003  0.0002
                                            0.0014  0.0102  0.0005 -0.0005 -0.0041
                                           -0.0124 -0.0007 -0.0026 -0.0396 -0.1183
                                           -0.0085 -0.0036  0.0954  0.0063  0.0012
                                            0.8065  0.0596  0.0155 -0.5440 -0.0381
                                           -0.0014  0.0464  0.0036 -0.0002  0.1109
                                            0.0085  0.0007 -0.0677  0.0352  0.0080
                                           -0.0039 -0.0134  0.0071  0.0230 -0.0117
                                           -0.0374  0.0174  0.0053 -0.0025  0.0039
                                           -0.0018
    30. (0.00569) RY*( 7) O   1           s(  7.22%)p 0.71(  5.15%)d12.05( 87.01%)
                                                  f 0.09(  0.62%)
                                           -0.0000  0.0210  0.2677 -0.0087  0.0042
                                            0.0334  0.1528  0.0099 -0.0045 -0.0387
                                           -0.1577 -0.0159 -0.0104  0.0039  0.0142
                                            0.0008 -0.0002  0.2780  0.0171  0.0019
                                           -0.0407 -0.0031 -0.0010  0.1782  0.0162
                                            0.0022  0.0524  0.0063 -0.0023  0.8661
                                            0.0767  0.0090  0.0136 -0.0068  0.0491
                                           -0.0231 -0.0470  0.0243  0.0073 -0.0037
                                            0.0089 -0.0043  0.0030 -0.0016  0.0031
                                            0.0005
    31. (0.00325) RY*( 8) O   1           s( 15.27%)p 1.46( 22.33%)d 4.02( 61.42%)
                                                  f 0.06(  0.98%)
                                           -0.0000 -0.0057  0.3907 -0.0009  0.0051
                                            0.0301 -0.1839 -0.0050 -0.0122  0.0275
                                           -0.4250 -0.0413 -0.0606 -0.0023  0.0394
                                            0.0054 -0.0043  0.3129  0.0346 -0.0092
                                           -0.0270 -0.0039 -0.0009 -0.0798 -0.0032
                                            0.0103 -0.6764 -0.0526  0.0547 -0.2089
                                           -0.0259  0.0156 -0.0092  0.0089  0.0193
                                           -0.0115  0.0325 -0.0274 -0.0139  0.0098
                                            0.0037 -0.0042 -0.0049 -0.0125  0.0750
                                           -0.0351
    32. (0.00229) RY*( 9) O   1           s( 39.54%)p 0.57( 22.36%)d 0.95( 37.53%)
                                                  f 0.01(  0.57%)
                                            0.0000 -0.0054  0.6271 -0.0074 -0.0461
                                           -0.0188  0.4537  0.0340 -0.0058 -0.0068
                                           -0.1079 -0.0523 -0.0416  0.0001  0.0085
                                            0.0027 -0.0014  0.1092  0.0249  0.0189
                                           -0.0113 -0.0031 -0.0018 -0.0074 -0.0010
                                            0.0041  0.4638  0.1107 -0.0527 -0.3467
                                           -0.1058  0.0250 -0.0051  0.0043 -0.0153
                                            0.0380  0.0100 -0.0070 -0.0026  0.0039
                                            0.0038 -0.0011  0.0396 -0.0457 -0.0118
                                           -0.0034
    33. (0.00073) RY*(10) O   1           s( 46.66%)p 0.97( 45.19%)d 0.15(  7.05%)
                                                  f 0.02(  1.10%)
                                            0.0000 -0.0049 -0.0364  0.6781 -0.0739
                                            0.0003 -0.0407  0.0832 -0.1194 -0.0012
                                            0.0066 -0.6534 -0.0451 -0.0012 -0.0013
                                            0.0036  0.0106 -0.0192  0.0984  0.1351
                                            0.0018  0.0085  0.0037  0.0066  0.0138
                                           -0.0136  0.0138 -0.0205 -0.0711  0.0242
                                           -0.0804 -0.1701 -0.0298  0.0022  0.0142
                                           -0.0038  0.0379  0.0258 -0.0330  0.0028
                                            0.0138 -0.0020  0.0036  0.0462  0.0400
                                            0.0525
    34. (0.00055) RY*(11) O   1           s(  0.04%)p99.99( 60.90%)d99.99( 36.09%)
                                                  f66.00(  2.96%)
                                            0.0000 -0.0002 -0.0047  0.0197  0.0061
                                           -0.0002 -0.0007  0.0106 -0.0021  0.0004
                                            0.0005  0.0528 -0.0096  0.0018 -0.0408
                                            0.7774  0.0045  0.0009 -0.0224 -0.0024
                                            0.0214 -0.2456 -0.0633 -0.0175  0.5277
                                            0.0965  0.0042 -0.0436 -0.0126  0.0036
                                           -0.0715 -0.0181 -0.1388  0.0335  0.0092
                                            0.0007 -0.0362  0.0105 -0.0716  0.0069
                                           -0.0494 -0.0058  0.0023  0.0036 -0.0037
                                            0.0031
    35. (0.00048) RY*(12) O   1           s(  4.78%)p 3.77( 18.02%)d12.11( 57.89%)
                                                  f 4.04( 19.31%)
                                           -0.0000  0.0041  0.0004  0.1996  0.0891
                                            0.0054  0.0111 -0.3154 -0.0324 -0.0051
                                           -0.0296  0.2734 -0.0310 -0.0006  0.0004
                                           -0.0539 -0.0055 -0.0365 -0.3262  0.0374
                                            0.0045  0.0151 -0.0042  0.0118 -0.0716
                                           -0.0246 -0.0023 -0.1597 -0.0161  0.0648
                                           -0.6368 -0.1676 -0.0227 -0.0014  0.1913
                                           -0.0106 -0.0108  0.0128 -0.0434 -0.0005
                                            0.0469 -0.0020  0.3668  0.0034  0.1294
                                            0.0142
    36. (0.00046) RY*(13) O   1           s(  0.03%)p99.99( 12.56%)d99.99( 10.59%)
                                                  f99.99( 76.82%)
                                           -0.0000  0.0000  0.0011  0.0175  0.0040
                                            0.0005  0.0006 -0.0102 -0.0021 -0.0000
                                           -0.0020  0.0221  0.0067  0.0029 -0.0014
                                            0.3425  0.0874 -0.0023  0.0044  0.0048
                                            0.0106  0.2036  0.0097 -0.0235 -0.2514
                                            0.0123  0.0022  0.0109 -0.0013  0.0071
                                           -0.0006 -0.0094  0.1981  0.0084 -0.0935
                                            0.0005  0.0719  0.0015  0.2108 -0.0003
                                            0.8157 -0.0022 -0.0652  0.0001  0.0300
                                            0.0011
    37. (0.00044) RY*(14) O   1           s(  0.20%)p 8.48(  1.71%)d33.31(  6.73%)
                                                  f99.99( 91.35%)
                                            0.0000  0.0011 -0.0035  0.0442  0.0075
                                           -0.0024 -0.0027 -0.0613 -0.0214 -0.0006
                                           -0.0120  0.1093  0.0003  0.0003 -0.0003
                                           -0.0282 -0.0048  0.0522 -0.0272 -0.0510
                                            0.0002 -0.0314 -0.0002  0.0007  0.0108
                                            0.0025  0.0292 -0.0497 -0.0301  0.0754
                                           -0.2131 -0.0697 -0.0335 -0.0025 -0.5281
                                           -0.0084  0.7218  0.0229 -0.0483 -0.0021
                                           -0.1101 -0.0000 -0.3121  0.0063 -0.0043
                                            0.0069
    38. (0.00044) RY*(15) O   1           s(  0.00%)p 1.00(  0.86%)d14.91( 12.81%)
                                                  f99.99( 86.33%)
                                            0.0000  0.0003 -0.0009  0.0019  0.0014
                                           -0.0005 -0.0003 -0.0028 -0.0030 -0.0006
                                           -0.0020  0.0447 -0.0005 -0.0039  0.0042
                                            0.0796  0.0139  0.0066  0.0151 -0.0069
                                           -0.0202  0.2103  0.0201  0.0852 -0.2541
                                           -0.0988 -0.0029  0.0220  0.0026 -0.0030
                                            0.0242  0.0064 -0.8064 -0.0116 -0.1061
                                           -0.0008 -0.1346  0.0001 -0.3994 -0.0090
                                            0.1314 -0.0013 -0.0718  0.0012 -0.0394
                                           -0.0003
    39. (0.00042) RY*(16) O   1           s(  0.03%)p99.99( 26.17%)d99.99( 40.82%)
                                                  f99.99( 32.98%)
                                            0.0000 -0.0003  0.0027  0.0174  0.0024
                                            0.0001 -0.0021  0.0242  0.0028  0.0004
                                           -0.0023  0.0094  0.0212  0.0101  0.0076
                                            0.4805  0.1718 -0.0066  0.0410  0.0056
                                           -0.0411  0.3084  0.0368  0.0277 -0.5532
                                            0.0226  0.0022  0.0189 -0.0006  0.0028
                                            0.0237 -0.0069  0.1270  0.0108  0.1036
                                            0.0057  0.0902  0.0013  0.1232 -0.0061
                                           -0.5230 -0.0196  0.0673 -0.0004  0.0316
                                            0.0014
    40. (0.00041) RY*(17) O   1           s(  0.01%)p 1.00(  0.86%)d19.10( 16.46%)
                                                  f95.88( 82.67%)
                                            0.0000 -0.0001 -0.0004  0.0052  0.0066
                                           -0.0008 -0.0033  0.0338 -0.0006 -0.0004
                                           -0.0014  0.0087  0.0004  0.0014 -0.0094
                                            0.0735  0.0435  0.0060 -0.0167 -0.0078
                                            0.0948 -0.2769 -0.1319  0.0359 -0.2406
                                           -0.0287 -0.0001  0.0222 -0.0019 -0.0049
                                            0.0252  0.0052  0.4308  0.0255 -0.0138
                                            0.0008 -0.0397 -0.0031 -0.7935 -0.0533
                                            0.0629  0.0024 -0.0235 -0.0027 -0.0401
                                           -0.0024
    41. (0.00040) RY*(18) O   1           s(  0.04%)p99.99( 13.15%)d99.99( 12.69%)
[...]
                                            0.0151 -0.0033  0.0103
   130. (0.00363) RY*( 3) H   4           s(  5.03%)p18.73( 94.27%)d 0.14(  0.70%)
                                           -0.0175  0.1669  0.1476  0.0200  0.6659
                                            0.0181 -0.0141 -0.6335  0.0902 -0.0260
                                            0.2942  0.0449 -0.0059 -0.0662  0.0193
                                           -0.0017  0.0006 -0.0077  0.0090  0.0184
                                            0.0220 -0.0347  0.0087
   131. (0.00267) RY*( 4) H   4           s( 20.70%)p 3.78( 78.27%)d 0.05(  1.03%)
                                           -0.0041  0.4058  0.2025  0.0367 -0.6928
                                            0.0410 -0.0126 -0.4942  0.2079 -0.0081
                                            0.1138  0.0161 -0.0132  0.0527 -0.0467
                                            0.0098 -0.0008  0.0036 -0.0001  0.0323
                                            0.0427  0.0451  0.0184
   132. (0.00047) RY*( 5) H   4           s( 12.43%)p 6.59( 81.92%)d 0.45(  5.65%)
                                            0.0012  0.0282 -0.2417  0.2551 -0.0214
                                           -0.8862  0.1047 -0.0893  0.0482 -0.0152
                                            0.0283 -0.1040  0.0189  0.0416 -0.0743
                                           -0.0131  0.0093 -0.0259 -0.0063 -0.2115
                                           -0.0155 -0.0401 -0.0416
   133. (0.00037) RY*( 6) H   4           s(  2.01%)p43.64( 87.52%)d 5.22( 10.47%)
                                           -0.0017 -0.0513  0.1187  0.0577  0.0332
                                           -0.1465 -0.0389  0.0846  0.2713 -0.1513
                                           -0.1528  0.8508  0.0139 -0.0881 -0.0655
                                            0.0147  0.0250  0.2409  0.0762  0.0534
                                            0.0792  0.1319  0.0385
   134. (0.00031) RY*( 7) H   4           s(  1.92%)p31.70( 60.80%)d19.44( 37.29%)
                                            0.0029  0.0956 -0.0897 -0.0444 -0.0388
                                            0.0627  0.1466 -0.1330 -0.3506  0.5557
                                           -0.0443  0.3590  0.0276  0.2022  0.1896
                                           -0.0059  0.0049  0.0895  0.0104 -0.2924
                                           -0.3004 -0.2397 -0.2338
   135. (0.00021) RY*( 8) H   4           s( 17.95%)p 2.87( 51.50%)d 1.70( 30.55%)
                                           -0.0146 -0.0733  0.3999 -0.1183  0.0317
                                           -0.0716 -0.0855  0.1712  0.4965  0.4446
                                            0.0093 -0.1620 -0.0414 -0.3628  0.0782
                                           -0.1517 -0.0220 -0.0123 -0.0570 -0.3526
                                           -0.0889  0.0747 -0.0554
   136. (0.00021) RY*( 9) H   4           s(  0.48%)p31.61( 15.30%)d99.99( 84.22%)
                                            0.0037  0.0120  0.0636 -0.0253 -0.0082
                                           -0.0399 -0.0051 -0.0084 -0.1714 -0.0226
                                            0.0950 -0.2125  0.2592 -0.0548  0.0290
                                           -0.0326 -0.0214  0.8739 -0.1665  0.0123
                                           -0.0458  0.2078  0.0013
   137. (0.00018) RY*(10) H   4           s(  7.10%)p 3.63( 25.80%)d 9.45( 67.10%)
                                            0.0094  0.0582 -0.1604  0.2044 -0.1157
                                            0.0533 -0.3067 -0.0800 -0.3511 -0.1046
                                           -0.0018  0.0833  0.0145 -0.7307  0.0342
                                           -0.2681 -0.0216 -0.0329  0.0485 -0.1066
                                            0.0625 -0.2118  0.0027
   138. (0.00015) RY*(11) H   4           s(  0.19%)p10.60(  2.05%)d99.99( 97.76%)
                                            0.0004  0.0023  0.0157  0.0410 -0.0203
                                           -0.0137 -0.1080  0.0021 -0.0423  0.0470
                                            0.0006 -0.0150 -0.0635 -0.2626  0.0271
                                            0.9400  0.0696  0.0186 -0.1027 -0.0778
                                           -0.0036 -0.0469 -0.0128
   139. (0.00016) RY*(12) H   4           s(  8.36%)p 2.81( 23.47%)d 8.16( 68.17%)
                                            0.0104  0.0057  0.2584 -0.1290 -0.0109
                                           -0.1792  0.0232 -0.0530 -0.4351 -0.0054
                                           -0.0194  0.0563 -0.0793 -0.1086  0.1114
                                           -0.0075  0.0001 -0.2684  0.0288  0.0573
                                           -0.1719  0.7397 -0.0675
   140. (0.00012) RY*(13) H   4           s( 13.65%)p 0.84( 11.52%)d 5.48( 74.83%)
                                            0.0003  0.0348 -0.2527  0.2672  0.0438
                                            0.2923 -0.1284 -0.0282  0.0449 -0.0706
                                            0.0041  0.0010  0.0598  0.1904 -0.1104
                                            0.0243  0.0276 -0.0084  0.1100 -0.6920
                                            0.1552  0.3847  0.1883
   141. (0.00010) RY*(14) H   4           s(  1.10%)p40.20( 44.29%)d49.55( 54.60%)
                                            0.0024  0.0006  0.0212  0.1028  0.0081
                                            0.0199  0.0039  0.0095 -0.0747 -0.0510
                                            0.0133  0.0729 -0.6547  0.0740 -0.0064
                                           -0.0930 -0.2153  0.0709 -0.6801 -0.0852
                                            0.0747 -0.0102  0.0712
   142. (0.00009) RY*(15) H   4           s(  0.08%)p99.99( 35.82%)d99.99( 64.10%)
   143. (0.00007) RY*(16) H   4           s( 76.15%)p 0.11(  8.00%)d 0.21( 15.86%)
   144. (0.00005) RY*(17) H   4           s(  0.23%)p 4.96(  1.15%)d99.99( 98.62%)
   145. (0.00005) RY*(18) H   4           s(  2.79%)p 0.79(  2.21%)d34.02( 95.00%)
   146. (0.00004) RY*(19) H   4           s( 39.47%)p 0.52( 20.43%)d 1.02( 40.09%)
   147. (0.00003) RY*(20) H   4           s(  0.80%)p47.26( 37.82%)d76.72( 61.38%)
   148. (0.00003) RY*(21) H   4           s( 11.05%)p 4.46( 49.27%)d 3.59( 39.67%)
   149. (0.00003) RY*(22) H   4           s(  0.02%)p99.99( 47.96%)d99.99( 52.02%)
   150. (0.02147) BD*( 1) O   1 - H   2  
                ( 27.17%)   0.5212* O   1 s( 21.01%)p 3.74( 78.52%)d 0.02(  0.46%)
                                                  f 0.00(  0.01%)
                                           -0.0002 -0.4583  0.0050  0.0019  0.0023
                                           -0.8837  0.0316 -0.0092  0.0030 -0.0543
                                            0.0141 -0.0009  0.0032  0.0033 -0.0014
                                            0.0001 -0.0002  0.0195 -0.0033 -0.0008
                                           -0.0023  0.0004  0.0002  0.0006  0.0000
                                            0.0004 -0.0542  0.0040  0.0041  0.0349
                                           -0.0019  0.0003 -0.0000  0.0000  0.0098
                                           -0.0003  0.0002 -0.0000  0.0002 -0.0001
                                            0.0011 -0.0005 -0.0036 -0.0039 -0.0021
                                            0.0008
                ( 72.83%)  -0.8534* H   2 s( 99.88%)p 0.00(  0.12%)d 0.00(  0.00%)
                                           -0.9994 -0.0035  0.0002 -0.0002 -0.0176
                                           -0.0273  0.0049  0.0099  0.0041  0.0023
                                           -0.0019 -0.0006 -0.0002  0.0003 -0.0026
                                           -0.0000  0.0002  0.0005  0.0001  0.0013
                                           -0.0014  0.0011  0.0011
   151. (0.06442) BD*( 1) O   1 - H   4  
                ( 22.37%)   0.4729* O   1 s( 26.56%)p 2.75( 73.02%)d 0.02(  0.41%)
                                                  f 0.00(  0.01%)
                                            0.0003  0.5154 -0.0028 -0.0017 -0.0012
                                           -0.2138  0.0185 -0.0020  0.0013 -0.8232
                                            0.0141 -0.0065  0.0021  0.0786 -0.0010
                                            0.0007 -0.0007 -0.0032  0.0026  0.0013
                                            0.0003 -0.0003 -0.0002 -0.0110  0.0008
                                           -0.0000 -0.0522  0.0037  0.0008 -0.0347
                                            0.0022 -0.0014 -0.0020  0.0001  0.0018
                                            0.0001  0.0084 -0.0004 -0.0014 -0.0002
                                            0.0006  0.0002  0.0027  0.0016  0.0017
                                            0.0019
                ( 77.63%)  -0.8811* H   4 s( 99.91%)p 0.00(  0.09%)d 0.00(  0.00%)
                                            0.9992  0.0257  0.0008 -0.0003  0.0163
                                            0.0025  0.0011  0.0007  0.0234  0.0093
                                            0.0027 -0.0024 -0.0008 -0.0017 -0.0019
                                            0.0003  0.0002 -0.0002  0.0002  0.0028
                                           -0.0009 -0.0004 -0.0013


 NHO Directionality and "Bond Bending" (deviations from line of nuclear centers)

         [Thresholds for printing:  angular deviation  >  1.0 degree]
                                    hybrid p-character > 25.0%
                                    orbital occupancy  >  0.10e

                                Line of Centers        Hybrid 1              Hybrid 2
                                ---------------  -------------------   ------------------
                NBO               Theta   Phi    Theta   Phi    Dev    Theta   Phi    Dev
 ========================================================================================
     1. BD (   1) O   1 - H   2    90.0    0.0    90.1    2.5   2.5      --     --    --
     2. BD (   1) O   1 - H   4    85.0  258.3    84.7  256.5   1.8      --     --    --
    18. LP (   1) O   1             --     --     94.5  126.4   --       --     --    --
    19. LP (   2) O   1             --     --      5.5   91.1   --       --     --    --
    21. LP (   2)Br   3             --     --    175.3   31.9   --       --     --    --
    22. LP (   3)Br   3             --     --     93.4  167.7   --       --     --    --
    23. LP (   4)Br   3             --     --     86.7   77.8   --       --     --    --


 Natural Bond Orbitals (Summary):

           NBO                  Occupancy  
 -----------------------------------------------
 Molecular unit  1  (H2O)
     1. BD (   1) O   1 - H   2          1.96582
     2. BD (   1) O   1 - H   4          1.96798
     3. CR (   1) O   1                  1.99967
    18. LP (   1) O   1                  1.96981
    19. LP (   2) O   1                  1.95972
    24. RY*(   1) O   1                  0.01943
    25. RY*(   2) O   1                  0.01508
    26. RY*(   3) O   1                  0.00696
    27. RY*(   4) O   1                  0.00620
    28. RY*(   5) O   1                  0.00617
    29. RY*(   6) O   1                  0.00588
    30. RY*(   7) O   1                  0.00569
    31. RY*(   8) O   1                  0.00325
    32. RY*(   9) O   1                  0.00229
    33. RY*(  10) O   1                  0.00073
    34. RY*(  11) O   1                  0.00055
    35. RY*(  12) O   1                  0.00048
    36. RY*(  13) O   1                  0.00046
    37. RY*(  14) O   1                  0.00044
    38. RY*(  15) O   1                  0.00044
    39. RY*(  16) O   1                  0.00042
    40. RY*(  17) O   1                  0.00041
    41. RY*(  18) O   1                  0.00040
    42. RY*(  19) O   1                  0.00041
    43. RY*(  20) O   1                  0.00037
    44. RY*(  21) O   1                  0.00034
    45. RY*(  22) O   1                  0.00033
    46. RY*(  23) O   1                  0.00029
    47. RY*(  24) O   1                  0.00026
    48. RY*(  25) O   1                  0.00022
    49. RY*(  26) O   1                  0.00014
    50. RY*(  27) O   1                  0.00008
    51. RY*(  28) O   1                  0.00007
    52. RY*(  29) O   1                  0.00006
    53. RY*(  30) O   1                  0.00007
    54. RY*(  31) O   1                  0.00007
    55. RY*(  32) O   1                  0.00007
    56. RY*(  33) O   1                  0.00007
    57. RY*(  34) O   1                  0.00005
    58. RY*(  35) O   1                  0.00003
    59. RY*(  36) O   1                  0.00004
    60. RY*(  37) O   1                  0.00004
    61. RY*(  38) O   1                  0.00001
    62. RY*(  39) O   1                  0.00001
    63. RY*(  40) O   1                  0.00002
    64. RY*(  41) O   1                 -0.00003
    65. RY*(   1) H   2                  0.00496
    66. RY*(   2) H   2                  0.00225
    67. RY*(   3) H   2                  0.00187
    68. RY*(   4) H   2                  0.00083
    69. RY*(   5) H   2                  0.00029
    70. RY*(   6) H   2                  0.00021
    71. RY*(   7) H   2                  0.00018
    72. RY*(   8) H   2                  0.00011
    73. RY*(   9) H   2                  0.00011
    74. RY*(  10) H   2                  0.00010
    75. RY*(  11) H   2                  0.00009
    76. RY*(  12) H   2                  0.00007
    77. RY*(  13) H   2                  0.00007
    78. RY*(  14) H   2                  0.00005
    79. RY*(  15) H   2                  0.00004
    80. RY*(  16) H   2                  0.00004
    81. RY*(  17) H   2                  0.00003
    82. RY*(  18) H   2                  0.00002
    83. RY*(  19) H   2                  0.00003
    84. RY*(  20) H   2                  0.00002
    85. RY*(  21) H   2                  0.00002
    86. RY*(  22) H   2                  0.00001
   128. RY*(   1) H   4                  0.00838
   129. RY*(   2) H   4                  0.00388
   130. RY*(   3) H   4                  0.00363
   131. RY*(   4) H   4                  0.00267
   132. RY*(   5) H   4                  0.00047
   133. RY*(   6) H   4                  0.00037
   134. RY*(   7) H   4                  0.00031
   135. RY*(   8) H   4                  0.00021
   136. RY*(   9) H   4                  0.00021
   137. RY*(  10) H   4                  0.00018
   138. RY*(  11) H   4                  0.00015
   139. RY*(  12) H   4                  0.00016
   140. RY*(  13) H   4                  0.00012
   141. RY*(  14) H   4                  0.00010
   142. RY*(  15) H   4                  0.00009
   143. RY*(  16) H   4                  0.00007
   144. RY*(  17) H   4                  0.00005
   145. RY*(  18) H   4                  0.00005
   146. RY*(  19) H   4                  0.00004
   147. RY*(  20) H   4                  0.00003
   148. RY*(  21) H   4                  0.00003
   149. RY*(  22) H   4                  0.00003
   150. BD*(   1) O   1 - H   2          0.02147
   151. BD*(   1) O   1 - H   4          0.06442
       -------------------------------
              Total Lewis    9.86299  ( 98.0434%)
        Valence non-Lewis    0.08589  (  0.8538%)
        Rydberg non-Lewis    0.11094  (  1.1028%)
       -------------------------------
            Total unit  1   10.05982  (100.0000%)
           Charge unit  1   -0.05982

 Molecular unit  2  (Br)
     4. CR (   1)Br   3                  2.00001
     5. CR (   2)Br   3                  2.00000
     6. CR (   3)Br   3                  2.00000
     7. CR (   4)Br   3                  2.00002
     8. CR (   5)Br   3                  2.00000
     9. CR (   6)Br   3                  1.99998
    10. CR (   7)Br   3                  2.00000
    11. CR (   8)Br   3                  2.00002
    12. CR (   9)Br   3                  2.00000
    13. CR (  10)Br   3                  1.99767
    14. CR (  11)Br   3                  1.99769
    15. CR (  12)Br   3                  1.99767
    16. CR (  13)Br   3                  1.99765
    17. CR (  14)Br   3                  1.99768
    20. LP (   1)Br   3                  1.97980
    21. LP (   2)Br   3                  1.95429
    22. LP (   3)Br   3                  1.95407
    23. LP (   4)Br   3                  1.90885
    87. RY*(   1)Br   3                  0.01874
    88. RY*(   2)Br   3                  0.01872
    89. RY*(   3)Br   3                  0.01864
    90. RY*(   4)Br   3                  0.01864
    91. RY*(   5)Br   3                  0.01809
    92. RY*(   6)Br   3                  0.01173
    93. RY*(   7)Br   3                  0.01169
    94. RY*(   8)Br   3                  0.00993
    95. RY*(   9)Br   3                  0.00285
    96. RY*(  10)Br   3                  0.00180
    97. RY*(  11)Br   3                  0.00179
    98. RY*(  12)Br   3                  0.00176
    99. RY*(  13)Br   3                  0.00176
   100. RY*(  14)Br   3                  0.00176
   101. RY*(  15)Br   3                  0.00176
   102. RY*(  16)Br   3                  0.00176
   103. RY*(  17)Br   3                  0.00176
   104. RY*(  18)Br   3                  0.00176
   105. RY*(  19)Br   3                  0.00148
   106. RY*(  20)Br   3                  0.00145
   107. RY*(  21)Br   3                  0.00129
   108. RY*(  22)Br   3                  0.00082
   109. RY*(  23)Br   3                  0.00081
   110. RY*(  24)Br   3                  0.00077
   111. RY*(  25)Br   3                  0.00045
   112. RY*(  26)Br   3                  0.00025
   113. RY*(  27)Br   3                  0.00024
   114. RY*(  28)Br   3                  0.00025
   115. RY*(  29)Br   3                  0.00025
   116. RY*(  30)Br   3                  0.00025
   117. RY*(  31)Br   3                  0.00024
   118. RY*(  32)Br   3                  0.00025
   119. RY*(  33)Br   3                  0.00021
   120. RY*(  34)Br   3                  0.00021
   121. RY*(  35)Br   3                  0.00015
   122. RY*(  36)Br   3                  0.00014
   123. RY*(  37)Br   3                  0.00015
   124. RY*(  38)Br   3                  0.00006
   125. RY*(  39)Br   3                  0.00005
   126. RY*(  40)Br   3                  0.00004
   127. RY*(  41)Br   3                  0.00005
       -------------------------------
              Total Lewis   35.78539  ( 99.5693%)
        Valence non-Lewis    0.00000  (  0.0000%)
        Rydberg non-Lewis    0.15479  (  0.4307%)
       -------------------------------
            Total unit  2   35.94018  (100.0000%)
           Charge unit  2   -0.94018
 Leave Link  607 at Tue Oct 19 16:40:21 2021, MaxMem= 16106127360 cpu:              68.5 elap:               2.5
 (Enter /sw/contrib/gaussian/g16/B01/g16/l9999.exe)
 1\1\GINC-N2098\SP\RMP2-FC\Aug-CC-pVTZ\Br1H2O1(1-)\CGAVINH\19-Oct-2021\
 0\\#p pop=NBO SP NoSymm mp2/aug-cc-pvtz density=current\\title\\-1,1\O
 \X,1,10.\H,1,0.96078759,2,90.\Br,1,3.25661955,2,90.,3,101.73887131,0\H
 ,1,0.98743,2,85.,3,101.73887131,0\\Version=ES64L-G16RevB.01\HF=-2648.6
 070228\MP2=-2649.1259412\RMSD=6.826e-09\Dipole=0.5861533,0.1526577,0.0
 282464\Quadrupole=10.9253948,-21.2513254,10.3259306,-6.231655,-0.01971
 2,-0.0352561\PG=C01 [X(Br1H2O1)]\\@


 THERE IS NO SCIENCE WITHOUT FANCY, NOR ART WITHOUT FACTS.
     -- VLADIMIR NABAKOV
 Job cpu time:       0 days  0 hours  4 minutes 47.3 seconds.
 Elapsed time:       0 days  0 hours  0 minutes 13.3 seconds.
 File lengths (MBytes):  RWF=     11 Int=      0 D2E=      0 Chk=      8 Scr=      1
 Normal termination of Gaussian 16 at Tue Oct 19 16:40:21 2021.
