 Entering Gaussian System, Link 0=g16
 Input=brhod_oop_40_sp.gjf
 Output=brhod_oop_40_sp.log
 Initial command:
 /sw/contrib/gaussian/g16/B01/g16/l1.exe "/scr/Gau-26068.inp" -scrdir="/scr/"
 Entering Link 1 = /sw/contrib/gaussian/g16/B01/g16/l1.exe PID=     26069.
  
 Copyright (c) 1988-2017, Gaussian, Inc.  All Rights Reserved.
  
 This is part of the Gaussian(R) 16 program.  It is based on
 the Gaussian(R) 09 system (copyright 2009, Gaussian, Inc.),
 the Gaussian(R) 03 system (copyright 2003, Gaussian, Inc.),
 the Gaussian(R) 98 system (copyright 1998, Gaussian, Inc.),
 the Gaussian(R) 94 system (copyright 1995, Gaussian, Inc.),
 the Gaussian 92(TM) system (copyright 1992, Gaussian, Inc.),
 the Gaussian 90(TM) system (copyright 1990, Gaussian, Inc.),
 the Gaussian 88(TM) system (copyright 1988, Gaussian, Inc.),
 the Gaussian 86(TM) system (copyright 1986, Carnegie Mellon
 University), and the Gaussian 82(TM) system (copyright 1983,
 Carnegie Mellon University). Gaussian is a federally registered
 trademark of Gaussian, Inc.
  
 This software contains proprietary and confidential information,
 including trade secrets, belonging to Gaussian, Inc.
  
 This software is provided under written license and may be
 used, copied, transmitted, or stored only in accord with that
 written license.
  
 The following legend is applicable only to US Government
 contracts under FAR:
  
                    RESTRICTED RIGHTS LEGEND
  
 Use, reproduction and disclosure by the US Government is
 subject to restrictions as set forth in subparagraphs (a)
 and (c) of the Commercial Computer Software - Restricted
 Rights clause in FAR 52.227-19.
  
 Gaussian, Inc.
 340 Quinnipiac St., Bldg. 40, Wallingford CT 06492
  
  
 ---------------------------------------------------------------
 Warning -- This program may not be used in any manner that
 competes with the business of Gaussian, Inc. or will provide
 assistance to any competitor of Gaussian, Inc.  The licensee
 of this program is prohibited from giving any competitor of
 Gaussian, Inc. access to this program.  By using this program,
 the user acknowledges that Gaussian, Inc. is engaged in the
 business of creating and licensing software in the field of
 computational chemistry and represents and warrants to the
 licensee that it is not a competitor of Gaussian, Inc. and that
 it will not use this program in any manner prohibited above.
 ---------------------------------------------------------------
  

 Cite this work as:
 Gaussian 16, Revision B.01,
 M. J. Frisch, G. W. Trucks, H. B. Schlegel, G. E. Scuseria, 
 M. A. Robb, J. R. Cheeseman, G. Scalmani, V. Barone, 
 G. A. Petersson, H. Nakatsuji, X. Li, M. Caricato, A. V. Marenich, 
 J. Bloino, B. G. Janesko, R. Gomperts, B. Mennucci, H. P. Hratchian, 
 J. V. Ortiz, A. F. Izmaylov, J. L. Sonnenberg, D. Williams-Young, 
 F. Ding, F. Lipparini, F. Egidi, J. Goings, B. Peng, A. Petrone, 
 T. Henderson, D. Ranasinghe, V. G. Zakrzewski, J. Gao, N. Rega, 
 G. Zheng, W. Liang, M. Hada, M. Ehara, K. Toyota, R. Fukuda, 
 J. Hasegawa, M. Ishida, T. Nakajima, Y. Honda, O. Kitao, H. Nakai, 
 T. Vreven, K. Throssell, J. A. Montgomery, Jr., J. E. Peralta, 
 F. Ogliaro, M. J. Bearpark, J. J. Heyd, E. N. Brothers, K. N. Kudin, 
 V. N. Staroverov, T. A. Keith, R. Kobayashi, J. Normand, 
 K. Raghavachari, A. P. Rendell, J. C. Burant, S. S. Iyengar, 
 J. Tomasi, M. Cossi, J. M. Millam, M. Klene, C. Adamo, R. Cammi, 
 J. W. Ochterski, R. L. Martin, K. Morokuma, O. Farkas, 
 J. B. Foresman, and D. J. Fox, Gaussian, Inc., Wallingford CT, 2016.
 
 ******************************************
 Gaussian 16:  ES64L-G16RevB.01 20-Dec-2017
                19-Oct-2021 
 ******************************************
 %nproc=28
 Will use up to   28 processors via shared memory.
 %mem=120GB
 %chk=/gscratch/ilahie/mccoygrp/coire_hocl/oop_s_rOH_opt/brhod/brhod_oop_40_sp.ch
 k
 ----------------------------------------------------
 #p pop=NBO SP NoSymm mp2/aug-cc-pvtz density=current
 ----------------------------------------------------
 1/30=1,38=1,172=1/1;
 2/12=2,15=1,17=6,18=5,40=1/2;
 3/5=16,6=1,7=10,11=9,25=1,30=1,71=1/1,2,3;
 4//1;
 5/5=2,38=5/2;
 8/6=4,10=1/1;
 9/15=1,16=-3/6;
 10/5=1,13=10,31=1/2;
 6/7=2,8=2,9=2,10=2,22=-1,40=1/1,7;
 99/5=1,9=1/99;
 Leave Link    1 at Tue Oct 19 16:41:37 2021, MaxMem= 16106127360 cpu:               2.5 elap:               0.1
 (Enter /sw/contrib/gaussian/g16/B01/g16/l101.exe)
 -----
 title
 -----
 Symbolic Z-matrix:
 Charge = -1 Multiplicity = 1
 O
 X                    1     10. 
 H(iso=2)             1    r1       2     90. 
 Br                   1    r2       2     90.      3    a1       0
 H                    1    r3       2    oop      3    a1       0
       Variables:
  r1                    0.96079                  
  r2                    3.25662                  
  r3                    0.97293                  
  a1                  101.73887                  
  OOP                  50.                       
 
 ITRead=  0  0  0  0
 MicOpt= -1 -1 -1 -1
 NAtoms=      4 NQM=        4 NQMF=       0 NMMI=      0 NMMIF=      0
                NMic=       0 NMicF=      0.
                    Isotopes and Nuclear Properties:
 (Nuclear quadrupole moments (NQMom) in fm**2, nuclear magnetic moments (NMagM)
  in nuclear magnetons)

  Atom         1           2           3           4
 IAtWgt=          16           2          79           1
 AtmWgt=  15.9949146   2.0141018  78.9183361   1.0078250
 NucSpn=           0           2           3           1
 AtZEff=  -0.0000000  -0.0000000  -0.0000000  -0.0000000
 NQMom=    0.0000000   0.2860000  31.3000000   0.0000000
 NMagM=    0.0000000   0.8574380   2.1063990   2.7928460
 AtZNuc=   8.0000000   1.0000000  35.0000000   1.0000000
 Leave Link  101 at Tue Oct 19 16:41:38 2021, MaxMem= 16106127360 cpu:               2.1 elap:               0.1
 (Enter /sw/contrib/gaussian/g16/B01/g16/l202.exe)
                          Input orientation:                          
 ---------------------------------------------------------------------
 Center     Atomic      Atomic             Coordinates (Angstroms)
 Number     Number       Type             X           Y           Z
 ---------------------------------------------------------------------
      1          8           0        0.000000    0.000000    0.000000
      2          1           0        0.960788    0.000000    0.000000
      3         35           0       -0.662564   -3.188507    0.000000
      4          1           0       -0.151634   -0.729720    0.625387
 ---------------------------------------------------------------------
                    Distance matrix (angstroms):
                    1          2          3          4
     1  O    0.000000
     2  H    0.960788   0.000000
     3  Br   3.256620   3.577967   0.000000
     4  H    0.972930   1.470062   2.588010   0.000000
 Symmetry turned off by external request.
 Stoichiometry    BrH2O(1-)
 Framework group  C1[X(BrH2O)]
 Deg. of freedom     6
 Full point group                 C1      NOp   1
 Rotational constants (GHZ):         259.4541670           3.1225476           3.0997638
 Leave Link  202 at Tue Oct 19 16:41:38 2021, MaxMem= 16106127360 cpu:               0.2 elap:               0.0
 (Enter /sw/contrib/gaussian/g16/B01/g16/l301.exe)
 Standard basis: Aug-CC-pVTZ (5D, 7F)
 Ernie: Thresh=  0.10000D-02 Tol=  0.10000D-05 Strict=F.
 Ernie:  35 primitive shells out of 175 were deleted.
   151 basis functions,   343 primitive gaussians,   174 cartesian basis functions
    23 alpha electrons       23 beta electrons
       nuclear repulsion energy        66.9483523956 Hartrees.
 IExCor=    0 DFT=F Ex=HF Corr=None ExCW=0 ScaHFX=  1.000000
 ScaDFX=  1.000000  1.000000  1.000000  1.000000 ScalE2=  1.000000  1.000000
 IRadAn=      5 IRanWt=     -1 IRanGd=            0 ICorTp=0 IEmpDi=  4
 NAtoms=    4 NActive=    4 NUniq=    4 SFac= 1.00D+00 NAtFMM=   60 NAOKFM=F Big=F
 Integral buffers will be    131072 words long.
 Raffenetti 1 integral format.
 Two-electron integral symmetry is turned off.
 Leave Link  301 at Tue Oct 19 16:41:38 2021, MaxMem= 16106127360 cpu:               2.4 elap:               0.1
 (Enter /sw/contrib/gaussian/g16/B01/g16/l302.exe)
 NPDir=0 NMtPBC=     1 NCelOv=     1 NCel=       1 NClECP=     1 NCelD=      1
         NCelK=      1 NCelE2=     1 NClLst=     1 CellRange=     0.0.
 One-electron integrals computed using PRISM.
 NBasis=   151 RedAO= T EigKep=  3.52D-04  NBF=   151
 NBsUse=   151 1.00D-06 EigRej= -1.00D+00 NBFU=   151
 Leave Link  302 at Tue Oct 19 16:41:38 2021, MaxMem= 16106127360 cpu:               5.1 elap:               0.2
 (Enter /sw/contrib/gaussian/g16/B01/g16/l303.exe)
 DipDrv:  MaxL=1.
 Leave Link  303 at Tue Oct 19 16:41:38 2021, MaxMem= 16106127360 cpu:               1.2 elap:               0.1
 (Enter /sw/contrib/gaussian/g16/B01/g16/l401.exe)
 ExpMin= 2.53D-02 ExpMax= 1.06D+07 ExpMxC= 1.21D+04 IAcc=3 IRadAn=         5 AccDes= 0.00D+00
 Harris functional with IExCor=  205 and IRadAn=       5 diagonalized for initial guess.
 HarFok:  IExCor=  205 AccDes= 0.00D+00 IRadAn=         5 IDoV= 1 UseB2=F ITyADJ=14
 ICtDFT=  3500011 ScaDFX=  1.000000  1.000000  1.000000  1.000000
 FoFCou: FMM=F IPFlag=           0 FMFlag=      100000 FMFlg1=           0
         NFxFlg=           0 DoJE=T BraDBF=F KetDBF=T FulRan=T
         wScrn=  0.000000 ICntrl=       500 IOpCl=  0 I1Cent=   200000004 NGrid=           0
         NMat0=    1 NMatS0=      1 NMatT0=    0 NMatD0=    1 NMtDS0=    0 NMtDT0=    0
 Symmetry not used in FoFCou.
 Harris En= -2648.01577316535    
 JPrj=0 DoOrth=F DoCkMO=F.
 Leave Link  401 at Tue Oct 19 16:41:38 2021, MaxMem= 16106127360 cpu:               6.9 elap:               0.3
 (Enter /sw/contrib/gaussian/g16/B01/g16/l502.exe)
 Keep R1 ints in memory in canonical form, NReq=88256493.
 FoFCou: FMM=F IPFlag=           0 FMFlag=           0 FMFlg1=           0
         NFxFlg=           0 DoJE=F BraDBF=F KetDBF=F FulRan=T
         wScrn=  0.000000 ICntrl=       600 IOpCl=  0 I1Cent=           0 NGrid=           0
         NMat0=    1 NMatS0=  11476 NMatT0=    0 NMatD0=    1 NMtDS0=    0 NMtDT0=    0
 Symmetry not used in FoFCou.
 Two-electron integral symmetry not used.
 Closed shell SCF:
 Using DIIS extrapolation, IDIIS=  1040.
 NGot= 16106127360 LenX= 16040205766 LenY= 16040175049
 Requested convergence on RMS density matrix=1.00D-08 within 128 cycles.
 Requested convergence on MAX density matrix=1.00D-06.
 Requested convergence on             energy=1.00D-06.
 No special actions if energy rises.

 Cycle   1  Pass 1  IDiag  1:
 E= -2648.42527330630    
 DIIS: error= 5.85D-02 at cycle   1 NSaved=   1.
 NSaved= 1 IEnMin= 1 EnMin= -2648.42527330630     IErMin= 1 ErrMin= 5.85D-02
 ErrMax= 5.85D-02  0.00D+00 EMaxC= 1.00D-01 BMatC= 5.30D-01 BMatP= 5.30D-01
 IDIUse=3 WtCom= 4.15D-01 WtEn= 5.85D-01
 Coeff-Com:  0.100D+01
 Coeff-En:   0.100D+01
 Coeff:      0.100D+01
 Gap=     0.353 Goal=   None    Shift=    0.000
 GapD=    0.353 DampG=1.000 DampE=0.500 DampFc=0.5000 IDamp=-1.
 Damping current iteration by 5.00D-01
 RMSDP=2.96D-03 MaxDP=8.89D-02              OVMax= 1.20D-01

 Cycle   2  Pass 1  IDiag  1:
 E= -2648.51550977904     Delta-E=       -0.090236472739 Rises=F Damp=T
 DIIS: error= 2.75D-02 at cycle   2 NSaved=   2.
 NSaved= 2 IEnMin= 2 EnMin= -2648.51550977904     IErMin= 2 ErrMin= 2.75D-02
 ErrMax= 2.75D-02  0.00D+00 EMaxC= 1.00D-01 BMatC= 9.96D-02 BMatP= 5.30D-01
 IDIUse=3 WtCom= 7.25D-01 WtEn= 2.75D-01
 Coeff-Com: -0.596D+00 0.160D+01
 Coeff-En:   0.000D+00 0.100D+01
 Coeff:     -0.432D+00 0.143D+01
 Gap=     0.266 Goal=   None    Shift=    0.000
 RMSDP=1.21D-03 MaxDP=3.42D-02 DE=-9.02D-02 OVMax= 6.25D-02

 Cycle   3  Pass 1  IDiag  1:
 E= -2648.59575308532     Delta-E=       -0.080243306281 Rises=F Damp=F
 DIIS: error= 4.13D-03 at cycle   3 NSaved=   3.
 NSaved= 3 IEnMin= 3 EnMin= -2648.59575308532     IErMin= 3 ErrMin= 4.13D-03
 ErrMax= 4.13D-03  0.00D+00 EMaxC= 1.00D-01 BMatC= 2.71D-03 BMatP= 9.96D-02
 IDIUse=3 WtCom= 9.59D-01 WtEn= 4.13D-02
 Coeff-Com: -0.160D+00 0.343D+00 0.817D+00
 Coeff-En:   0.000D+00 0.000D+00 0.100D+01
 Coeff:     -0.153D+00 0.329D+00 0.824D+00
 Gap=     0.284 Goal=   None    Shift=    0.000
 RMSDP=2.14D-04 MaxDP=5.78D-03 DE=-8.02D-02 OVMax= 1.22D-02

 Cycle   4  Pass 1  IDiag  1:
 E= -2648.59747382980     Delta-E=       -0.001720744479 Rises=F Damp=F
 DIIS: error= 4.11D-04 at cycle   4 NSaved=   4.
 NSaved= 4 IEnMin= 4 EnMin= -2648.59747382980     IErMin= 4 ErrMin= 4.11D-04
 ErrMax= 4.11D-04  0.00D+00 EMaxC= 1.00D-01 BMatC= 3.27D-05 BMatP= 2.71D-03
 IDIUse=3 WtCom= 9.96D-01 WtEn= 4.11D-03
 Coeff-Com:  0.195D-01-0.458D-01-0.661D-02 0.103D+01
 Coeff-En:   0.000D+00 0.000D+00 0.000D+00 0.100D+01
 Coeff:      0.194D-01-0.456D-01-0.658D-02 0.103D+01
 Gap=     0.283 Goal=   None    Shift=    0.000
 RMSDP=4.42D-05 MaxDP=1.30D-03 DE=-1.72D-03 OVMax= 2.42D-03

 Cycle   5  Pass 1  IDiag  1:
 E= -2648.59751792284     Delta-E=       -0.000044093041 Rises=F Damp=F
 DIIS: error= 9.31D-05 at cycle   5 NSaved=   5.
 NSaved= 5 IEnMin= 5 EnMin= -2648.59751792284     IErMin= 5 ErrMin= 9.31D-05
 ErrMax= 9.31D-05  0.00D+00 EMaxC= 1.00D-01 BMatC= 1.81D-06 BMatP= 3.27D-05
 IDIUse=1 WtCom= 1.00D+00 WtEn= 0.00D+00
 Coeff-Com: -0.269D-02 0.744D-02-0.205D-01-0.403D+00 0.142D+01
 Coeff:     -0.269D-02 0.744D-02-0.205D-01-0.403D+00 0.142D+01
 Gap=     0.284 Goal=   None    Shift=    0.000
 RMSDP=1.99D-05 MaxDP=5.11D-04 DE=-4.41D-05 OVMax= 1.10D-03

 Cycle   6  Pass 1  IDiag  1:
 E= -2648.59752329820     Delta-E=       -0.000005375356 Rises=F Damp=F
 DIIS: error= 1.90D-05 at cycle   6 NSaved=   6.
 NSaved= 6 IEnMin= 6 EnMin= -2648.59752329820     IErMin= 6 ErrMin= 1.90D-05
 ErrMax= 1.90D-05  0.00D+00 EMaxC= 1.00D-01 BMatC= 8.84D-08 BMatP= 1.81D-06
 IDIUse=1 WtCom= 1.00D+00 WtEn= 0.00D+00
 Coeff-Com: -0.465D-03 0.129D-02-0.183D-02-0.439D-01 0.369D-01 0.101D+01
 Coeff:     -0.465D-03 0.129D-02-0.183D-02-0.439D-01 0.369D-01 0.101D+01
 Gap=     0.284 Goal=   None    Shift=    0.000
 RMSDP=2.88D-06 MaxDP=8.05D-05 DE=-5.38D-06 OVMax= 1.90D-04

 Cycle   7  Pass 1  IDiag  1:
 E= -2648.59752348202     Delta-E=       -0.000000183819 Rises=F Damp=F
 DIIS: error= 5.66D-06 at cycle   7 NSaved=   7.
 NSaved= 7 IEnMin= 7 EnMin= -2648.59752348202     IErMin= 7 ErrMin= 5.66D-06
 ErrMax= 5.66D-06  0.00D+00 EMaxC= 1.00D-01 BMatC= 1.32D-08 BMatP= 8.84D-08
 IDIUse=1 WtCom= 1.00D+00 WtEn= 0.00D+00
 Coeff-Com: -0.204D-03 0.222D-03 0.315D-02 0.274D-01-0.145D+00 0.141D+00
 Coeff-Com:  0.973D+00
 Coeff:     -0.204D-03 0.222D-03 0.315D-02 0.274D-01-0.145D+00 0.141D+00
 Coeff:      0.973D+00
 Gap=     0.284 Goal=   None    Shift=    0.000
 RMSDP=1.14D-06 MaxDP=2.83D-05 DE=-1.84D-07 OVMax= 8.01D-05

 Cycle   8  Pass 1  IDiag  1:
 E= -2648.59752350533     Delta-E=       -0.000000023312 Rises=F Damp=F
 DIIS: error= 1.94D-06 at cycle   8 NSaved=   8.
 NSaved= 8 IEnMin= 8 EnMin= -2648.59752350533     IErMin= 8 ErrMin= 1.94D-06
 ErrMax= 1.94D-06  0.00D+00 EMaxC= 1.00D-01 BMatC= 5.50D-10 BMatP= 1.32D-08
 IDIUse=1 WtCom= 1.00D+00 WtEn= 0.00D+00
 Coeff-Com:  0.109D-03-0.216D-03-0.439D-03 0.101D-02 0.140D-01-0.796D-01
 Coeff-Com: -0.131D+00 0.120D+01
 Coeff:      0.109D-03-0.216D-03-0.439D-03 0.101D-02 0.140D-01-0.796D-01
 Coeff:     -0.131D+00 0.120D+01
 Gap=     0.284 Goal=   None    Shift=    0.000
 RMSDP=3.84D-07 MaxDP=1.09D-05 DE=-2.33D-08 OVMax= 1.99D-05

 Cycle   9  Pass 1  IDiag  1:
 E= -2648.59752350675     Delta-E=       -0.000000001416 Rises=F Damp=F
 DIIS: error= 4.82D-07 at cycle   9 NSaved=   9.
 NSaved= 9 IEnMin= 9 EnMin= -2648.59752350675     IErMin= 9 ErrMin= 4.82D-07
 ErrMax= 4.82D-07  0.00D+00 EMaxC= 1.00D-01 BMatC= 3.15D-11 BMatP= 5.50D-10
 IDIUse=1 WtCom= 1.00D+00 WtEn= 0.00D+00
 Coeff-Com: -0.625D-06 0.119D-04-0.151D-03-0.185D-02 0.810D-02-0.498D-02
 Coeff-Com: -0.527D-01-0.187D-01 0.107D+01
 Coeff:     -0.625D-06 0.119D-04-0.151D-03-0.185D-02 0.810D-02-0.498D-02
 Coeff:     -0.527D-01-0.187D-01 0.107D+01
 Gap=     0.284 Goal=   None    Shift=    0.000
 RMSDP=7.44D-08 MaxDP=2.21D-06 DE=-1.42D-09 OVMax= 4.05D-06

 Cycle  10  Pass 1  IDiag  1:
 E= -2648.59752350682     Delta-E=       -0.000000000075 Rises=F Damp=F
 DIIS: error= 1.40D-07 at cycle  10 NSaved=  10.
 NSaved=10 IEnMin=10 EnMin= -2648.59752350682     IErMin=10 ErrMin= 1.40D-07
 ErrMax= 1.40D-07  0.00D+00 EMaxC= 1.00D-01 BMatC= 2.85D-12 BMatP= 3.15D-11
 IDIUse=1 WtCom= 1.00D+00 WtEn= 0.00D+00
 Coeff-Com: -0.846D-05 0.158D-04 0.470D-04 0.758D-04-0.175D-02 0.685D-02
 Coeff-Com:  0.165D-01-0.108D+00-0.618D-01 0.115D+01
 Coeff:     -0.846D-05 0.158D-04 0.470D-04 0.758D-04-0.175D-02 0.685D-02
 Coeff:      0.165D-01-0.108D+00-0.618D-01 0.115D+01
 Gap=     0.284 Goal=   None    Shift=    0.000
 RMSDP=2.05D-08 MaxDP=4.17D-07 DE=-7.50D-11 OVMax= 1.38D-06

 Cycle  11  Pass 1  IDiag  1:
 E= -2648.59752350683     Delta-E=       -0.000000000013 Rises=F Damp=F
 DIIS: error= 3.47D-08 at cycle  11 NSaved=  11.
 NSaved=11 IEnMin=11 EnMin= -2648.59752350683     IErMin=11 ErrMin= 3.47D-08
 ErrMax= 3.47D-08  0.00D+00 EMaxC= 1.00D-01 BMatC= 1.56D-13 BMatP= 2.85D-12
 IDIUse=1 WtCom= 1.00D+00 WtEn= 0.00D+00
 Coeff-Com:  0.222D-05-0.469D-05-0.402D-05 0.673D-04 0.519D-04-0.138D-02
 Coeff-Com: -0.151D-02 0.265D-01-0.486D-01-0.257D+00 0.128D+01
 Coeff:      0.222D-05-0.469D-05-0.402D-05 0.673D-04 0.519D-04-0.138D-02
 Coeff:     -0.151D-02 0.265D-01-0.486D-01-0.257D+00 0.128D+01
 Gap=     0.284 Goal=   None    Shift=    0.000
 RMSDP=6.87D-09 MaxDP=1.89D-07 DE=-1.27D-11 OVMax= 4.45D-07

 SCF Done:  E(RHF) =  -2648.59752351     A.U. after   11 cycles
            NFock= 11  Conv=0.69D-08     -V/T= 2.0000
 KE= 2.648527094857D+03 PE=-6.482070100227D+03 EE= 1.117997129467D+03
 Leave Link  502 at Tue Oct 19 16:41:41 2021, MaxMem= 16106127360 cpu:              33.6 elap:               2.2
 (Enter /sw/contrib/gaussian/g16/B01/g16/l801.exe)
 ExpMin= 2.53D-02 ExpMax= 1.06D+07 ExpMxC= 1.21D+04 IAcc=3 IRadAn=         5 AccDes= 0.00D+00
 HarFok:  IExCor=  205 AccDes= 0.00D+00 IRadAn=         5 IDoV=-2 UseB2=F ITyADJ=14
 ICtDFT= 12500011 ScaDFX=  1.000000  1.000000  1.000000  1.000000
 Largest valence mixing into a core orbital is  1.27D-04
 Largest core mixing into a valence orbital is  3.65D-05
 Range of M.O.s used for correlation:    11   151
 NBasis=   151 NAE=    23 NBE=    23 NFC=    10 NFV=     0
 NROrb=    141 NOA=    13 NOB=    13 NVA=   128 NVB=   128

 **** Warning!!: The largest alpha MO coefficient is  0.13880967D+02

 Leave Link  801 at Tue Oct 19 16:41:41 2021, MaxMem= 16106127360 cpu:               1.9 elap:               0.1
 (Enter /sw/contrib/gaussian/g16/B01/g16/l906.exe)
 Frozen-core derivative calculation, NFC=  10 NFV=   0.
 FulOut=F Deriv=T AODrv=F NAtomX=     4
   MMem=         214  MDisk=          13 MDiskD=          13
  W3Min=      604302 MinDsk=     1007783 NBas6D=         174
 NBas2D=       15618    NTT=       15225    LW2=     9911920
    MDV= 16105777743 MDiskM=      462752 NBas2p=       15367
 Fully in-core method, ICMem=   275550978.
 IMap=   1   2   3   4   5   6   7   8   9  10  11  12  13  14  15  16  17  18  19  20
 IMap=  21  22  23
 JobTyp=1 Pass  1 fully in-core, NPsUse= 28.
 Compute canonical integrals.
 FoFCou: FMM=F IPFlag=           0 FMFlag=           0 FMFlg1=           0
         NFxFlg=           0 DoJE=F BraDBF=F KetDBF=F FulRan=T
         wScrn=  0.000000 ICntrl=       600 IOpCl=  1 I1Cent=           0 NGrid=           0
         NMat0=    1 NMatS0=  15618 NMatT0=    0 NMatD0=    1 NMtDS0=    0 NMtDT0=    0
 Symmetry not used in FoFCou.
 Spin components of T(2) and E(2):
     alpha-alpha T2 =       0.2045749753D-01 E2=     -0.6941854355D-01
     alpha-beta  T2 =       0.1089004047D+00 E2=     -0.3775713051D+00
     beta-beta   T2 =       0.2045749753D-01 E2=     -0.6941854355D-01
 The integrals were generated   1 times.
 ANorm=    0.1072294456D+01
 E2 =    -0.5164083922D+00 EUMP2 =    -0.26491139318990D+04
 Leave Link  906 at Tue Oct 19 16:41:44 2021, MaxMem= 16106127360 cpu:              89.8 elap:               3.2
 (Enter /sw/contrib/gaussian/g16/B01/g16/l1002.exe)
 Minotr:  Closed shell wavefunction.
          Computing MP2/KS-MP2 derivatives.
          Using Z-Vector for PSCF gradient.
          Skipping F1 and S1 gradient terms here.
          Frozen-core window.
          Direct CPHF calculation.
          Differentiating once with respect to electric field.
                with respect to dipole field.
          Electric field/nuclear overlap derivatives assumed to be zero.
          Requested convergence is 1.0D-10 RMS, and 1.0D-09 maximum.
          NewPWx=F KeepS1=T KeepF1=T KeepIn=T MapXYZ=F SortEE=F KeepMc=T.
 Keep R1 ints in memory in canonical form, NReq=88259473.
 FoFCou: FMM=F IPFlag=           0 FMFlag=           0 FMFlg1=           0
         NFxFlg=           0 DoJE=F BraDBF=F KetDBF=F FulRan=T
         wScrn=  0.000000 ICntrl=       600 IOpCl=  0 I1Cent=           0 NGrid=           0
         NMat0=    1 NMatS0=  11476 NMatT0=    0 NMatD0=    1 NMtDS0=    0 NMtDT0=    0
 Symmetry not used in FoFCou.
 Two-electron integral symmetry not used.
          MDV=   16106127360 using IRadAn=       5.
          Solving linear equations separately, MaxMat=       0.
          There are     1 degrees of freedom in the 1st order CPHF.  IDoFFX=0 NUNeed=     1.
 LinEq1:  Iter=  0 NonCon=     1 RMS=2.38D-03 Max=2.71D-02 NDo=     1
 AX will form     1 AO Fock derivatives at one time.
 LinEq1:  Iter=  1 NonCon=     1 RMS=4.00D-04 Max=3.28D-03 NDo=     1
 LinEq1:  Iter=  2 NonCon=     1 RMS=1.94D-04 Max=2.11D-03 NDo=     1
 LinEq1:  Iter=  3 NonCon=     1 RMS=5.26D-05 Max=7.89D-04 NDo=     1
 LinEq1:  Iter=  4 NonCon=     1 RMS=1.02D-05 Max=1.14D-04 NDo=     1
 LinEq1:  Iter=  5 NonCon=     1 RMS=4.82D-06 Max=5.58D-05 NDo=     1
 LinEq1:  Iter=  6 NonCon=     1 RMS=1.09D-06 Max=1.21D-05 NDo=     1
 LinEq1:  Iter=  7 NonCon=     1 RMS=2.20D-07 Max=1.93D-06 NDo=     1
 LinEq1:  Iter=  8 NonCon=     1 RMS=6.39D-08 Max=6.80D-07 NDo=     1
 LinEq1:  Iter=  9 NonCon=     1 RMS=1.09D-08 Max=1.49D-07 NDo=     1
 LinEq1:  Iter= 10 NonCon=     1 RMS=1.68D-09 Max=1.58D-08 NDo=     1
 LinEq1:  Iter= 11 NonCon=     1 RMS=3.49D-10 Max=3.66D-09 NDo=     1
 LinEq1:  Iter= 12 NonCon=     0 RMS=8.36D-11 Max=9.64D-10 NDo=     1
 Linear equations converged to 1.000D-10 1.000D-09 after    12 iterations.
 End of Minotr F.D. properties file   721 does not exist.
 End of Minotr F.D. properties file   722 does not exist.
 End of Minotr F.D. properties file   788 does not exist.
 Leave Link 1002 at Tue Oct 19 16:41:47 2021, MaxMem= 16106127360 cpu:              51.8 elap:               3.4
 (Enter /sw/contrib/gaussian/g16/B01/g16/l601.exe)
 Copying SCF densities to generalized density rwf, IOpCl= 0 IROHF=0.

 **********************************************************************

            Population analysis using the MP2 Density.

 **********************************************************************

 Alpha  occ. eigenvalues -- -489.72964 -64.86985 -58.22435 -58.22433 -58.22428
 Alpha  occ. eigenvalues --  -20.40254  -9.54230  -7.14986  -7.14970  -7.14948
 Alpha  occ. eigenvalues --   -2.89161  -2.89158  -2.89129  -2.89110  -2.89104
 Alpha  occ. eigenvalues --   -1.18676  -0.69857  -0.53621  -0.43178  -0.34674
 Alpha  occ. eigenvalues --   -0.15280  -0.15021  -0.14836
 Alpha virt. eigenvalues --    0.13538   0.16593   0.23732   0.24311   0.25518
 Alpha virt. eigenvalues --    0.26974   0.28208   0.29937   0.33293   0.36064
 Alpha virt. eigenvalues --    0.38054   0.39195   0.42014   0.45605   0.47900
 Alpha virt. eigenvalues --    0.49077   0.53886   0.54146   0.56061   0.57565
 Alpha virt. eigenvalues --    0.58316   0.60399   0.65586   0.73944   0.74685
 Alpha virt. eigenvalues --    0.75881   0.78216   0.83551   0.87168   0.88641
 Alpha virt. eigenvalues --    0.89518   0.97747   0.99635   1.01234   1.01963
 Alpha virt. eigenvalues --    1.02900   1.03091   1.05431   1.06683   1.07190
 Alpha virt. eigenvalues --    1.09231   1.10329   1.11965   1.17379   1.17659
 Alpha virt. eigenvalues --    1.18113   1.19650   1.21213   1.22514   1.23415
 Alpha virt. eigenvalues --    1.28673   1.33651   1.35507   1.37253   1.41808
 Alpha virt. eigenvalues --    1.47704   1.53250   1.56010   1.67252   1.69623
 Alpha virt. eigenvalues --    1.72775   1.79534   2.02802   2.05335   2.14918
 Alpha virt. eigenvalues --    2.30615   2.40906   2.41566   2.44611   2.46985
 Alpha virt. eigenvalues --    2.48457   2.53573   2.55773   2.56075   2.56550
 Alpha virt. eigenvalues --    2.57251   2.57730   2.58464   2.59028   2.62870
 Alpha virt. eigenvalues --    2.63254   2.64607   2.66084   2.67982   2.70011
 Alpha virt. eigenvalues --    2.74671   2.80966   2.83827   2.91346   2.93206
 Alpha virt. eigenvalues --    2.96179   3.00921   3.11422   3.87450   3.90274
 Alpha virt. eigenvalues --    4.19636   4.28140   4.29808   4.39077   4.42284
 Alpha virt. eigenvalues --    4.46696   4.53887   4.58975   4.63034   4.72678
 Alpha virt. eigenvalues --    4.93179   5.04732   5.30231   5.36311   5.40645
 Alpha virt. eigenvalues --    5.47264   5.69908   5.78728   6.40346   6.68161
 Alpha virt. eigenvalues --    6.90900   7.15470   7.29042   7.38537   7.45315
 Alpha virt. eigenvalues --    7.49893   7.55479   7.57758   7.71932   7.99023
 Alpha virt. eigenvalues --    8.12784   8.98387  15.84139
          Condensed to atoms (all electrons):
               1          2          3          4
     1  O    8.140002   0.206809  -0.060891   0.172130
     2  H    0.206809   0.586252   0.002614   0.020072
     3  Br  -0.060891   0.002614  35.978996   0.038154
     4  H    0.172130   0.020072   0.038154   0.536973
 Mulliken charges:
               1
     1  O   -0.458050
     2  H    0.184253
     3  Br  -0.958874
     4  H    0.232671
 Sum of Mulliken charges =  -1.00000
 Mulliken charges with hydrogens summed into heavy atoms:
               1
     1  O   -0.041126
     3  Br  -0.958874
 Electronic spatial extent (au):  <R**2>=           1436.5055
 Charge=             -1.0000 electrons
 Dipole moment (field-independent basis, Debye):
    X=              4.0777    Y=             13.3532    Z=              0.5738  Tot=             13.9737
 Quadrupole moment (field-independent basis, Debye-Ang):
   XX=            -31.2985   YY=            -77.9918   ZZ=            -30.9527
   XY=             -9.1234   XZ=             -0.1954   YZ=             -0.3212
 Traceless Quadrupole moment (field-independent basis, Debye-Ang):
   XX=             15.4492   YY=            -31.2442   ZZ=             15.7950
   XY=             -9.1234   XZ=             -0.1954   YZ=             -0.3212
 Octapole moment (field-independent basis, Debye-Ang**2):
  XXX=             48.6307  YYY=            379.8415  ZZZ=             -1.7819  XYY=             45.3052
  XXY=             82.7435  XXZ=             -0.8598  XZZ=             15.0491  YZZ=             76.0872
  YYZ=             -2.8200  XYZ=             -0.4356
 Hexadecapole moment (field-independent basis, Debye-Ang**3):
 XXXX=           -114.1441 YYYY=          -1992.0565 ZZZZ=            -52.4903 XXXY=           -154.7337
 XXXZ=              0.4258 YYYX=           -246.8790 YYYZ=             10.6966 ZZZX=              0.3168
 ZZZY=              2.4067 XXYY=           -291.1967 XXZZ=            -28.0205 YYZZ=           -260.9054
 XXYZ=              1.2287 YYXZ=              1.7340 ZZXY=            -50.1708
 N-N= 6.694835239556D+01 E-N=-6.480526844207D+03  KE= 2.648374638219D+03
 No NMR shielding tensors so no spin-rotation constants.
 Leave Link  601 at Tue Oct 19 16:41:48 2021, MaxMem= 16106127360 cpu:               4.4 elap:               0.2
 (Enter /sw/contrib/gaussian/g16/B01/g16/l607.exe)
 ******************************Gaussian NBO Version 3.1******************************
             N A T U R A L   A T O M I C   O R B I T A L   A N D
          N A T U R A L   B O N D   O R B I T A L   A N A L Y S I S
 ******************************Gaussian NBO Version 3.1******************************
       /RESON  / : Allow strongly delocalized NBO set

 Analyzing the MP2 density

 Job title: title                                                           

 Storage needed:     69217 in NPA,     91732 in NBO (********** available)
 GSVD:  LWork=         337 too small for GESVD, short by       43655 words or       43655 for optimal perf.


 NATURAL POPULATIONS:  Natural atomic orbital occupancies 
                                                          
   NAO  Atom  No  lang   Type(AO)    Occupancy
 --------------------------------------------
     1    O    1  S      Cor( 1S)     1.99968
     2    O    1  S      Val( 2S)     1.74667
     3    O    1  S      Ryd( 3S)     0.00619
     4    O    1  S      Ryd( 4S)     0.00064
     5    O    1  S      Ryd( 5S)     0.00019
     6    O    1  px     Val( 2p)     1.52713
     7    O    1  px     Ryd( 3p)     0.00985
     8    O    1  px     Ryd( 4p)     0.00058
     9    O    1  px     Ryd( 5p)     0.00010
    10    O    1  py     Val( 2p)     1.76647
    11    O    1  py     Ryd( 3p)     0.01572
    12    O    1  py     Ryd( 4p)     0.00061
    13    O    1  py     Ryd( 5p)     0.00013
    14    O    1  pz     Val( 2p)     1.80255
    15    O    1  pz     Ryd( 3p)     0.01732
    16    O    1  pz     Ryd( 4p)     0.00064
    17    O    1  pz     Ryd( 5p)     0.00009
    18    O    1  dxy    Ryd( 3d)     0.00911
    19    O    1  dxy    Ryd( 4d)     0.00070
    20    O    1  dxy    Ryd( 5d)     0.00015
    21    O    1  dxz    Ryd( 3d)     0.00972
    22    O    1  dxz    Ryd( 4d)     0.00076
    23    O    1  dxz    Ryd( 5d)     0.00013
    24    O    1  dyz    Ryd( 3d)     0.01050
    25    O    1  dyz    Ryd( 4d)     0.00044
    26    O    1  dyz    Ryd( 5d)     0.00012
    27    O    1  dx2y2  Ryd( 3d)     0.01002
    28    O    1  dx2y2  Ryd( 4d)     0.00034
    29    O    1  dx2y2  Ryd( 5d)     0.00014
    30    O    1  dz2    Ryd( 3d)     0.00883
    31    O    1  dz2    Ryd( 4d)     0.00046
    32    O    1  dz2    Ryd( 5d)     0.00013
    33    O    1  f(0)   Ryd( 4f)     0.00059
    34    O    1  f(0)   Ryd( 5f)     0.00010
    35    O    1  f(C1)  Ryd( 4f)     0.00045
    36    O    1  f(C1)  Ryd( 5f)     0.00009
    37    O    1  f(S1)  Ryd( 4f)     0.00063
    38    O    1  f(S1)  Ryd( 5f)     0.00011
    39    O    1  f(C2)  Ryd( 4f)     0.00066
    40    O    1  f(C2)  Ryd( 5f)     0.00014
    41    O    1  f(S2)  Ryd( 4f)     0.00052
    42    O    1  f(S2)  Ryd( 5f)     0.00009
    43    O    1  f(C3)  Ryd( 4f)     0.00043
    44    O    1  f(C3)  Ryd( 5f)     0.00010
    45    O    1  f(S3)  Ryd( 4f)     0.00061
    46    O    1  f(S3)  Ryd( 5f)     0.00015

    47    H    2  S      Val( 1S)     0.54787
    48    H    2  S      Ryd( 2S)     0.00171
    49    H    2  S      Ryd( 3S)     0.00039
    50    H    2  S      Ryd( 4S)     0.00013
    51    H    2  px     Ryd( 3p)     0.00023
    52    H    2  px     Ryd( 2p)     0.00067
    53    H    2  px     Ryd( 4p)     0.00017
    54    H    2  py     Ryd( 2p)     0.00090
    55    H    2  py     Ryd( 3p)     0.00016
    56    H    2  py     Ryd( 4p)     0.00006
    57    H    2  pz     Ryd( 2p)     0.00100
    58    H    2  pz     Ryd( 3p)     0.00015
    59    H    2  pz     Ryd( 4p)     0.00006
    60    H    2  dxy    Ryd( 3d)     0.00021
    61    H    2  dxy    Ryd( 4d)     0.00007
    62    H    2  dxz    Ryd( 3d)     0.00024
    63    H    2  dxz    Ryd( 4d)     0.00007
    64    H    2  dyz    Ryd( 3d)     0.00010
    65    H    2  dyz    Ryd( 4d)     0.00005
    66    H    2  dx2y2  Ryd( 3d)     0.00015
    67    H    2  dx2y2  Ryd( 4d)     0.00006
    68    H    2  dz2    Ryd( 3d)     0.00011
    69    H    2  dz2    Ryd( 4d)     0.00006

    70   Br    3  S      Cor( 1S)     2.00003
    71   Br    3  S      Cor( 2S)     2.00000
    72   Br    3  S      Cor( 3S)     2.00000
    73   Br    3  S      Val( 4S)     1.98080
    74   Br    3  S      Ryd( 5S)     0.00395
    75   Br    3  S      Ryd( 6S)     0.00066
    76   Br    3  S      Ryd( 7S)     0.00015
    77   Br    3  px     Cor( 2p)     2.00002
    78   Br    3  px     Cor( 3p)     2.00000
    79   Br    3  px     Val( 4p)     1.95334
    80   Br    3  px     Ryd( 5p)     0.01230
    81   Br    3  px     Ryd( 6p)     0.00085
    82   Br    3  px     Ryd( 7p)     0.00005
    83   Br    3  py     Cor( 2p)     2.00002
    84   Br    3  py     Cor( 3p)     2.00000
    85   Br    3  py     Val( 4p)     1.94381
    86   Br    3  py     Ryd( 5p)     0.01140
    87   Br    3  py     Ryd( 6p)     0.00083
    88   Br    3  py     Ryd( 7p)     0.00007
    89   Br    3  pz     Cor( 2p)     2.00002
    90   Br    3  pz     Cor( 3p)     2.00000
    91   Br    3  pz     Val( 4p)     1.95163
    92   Br    3  pz     Ryd( 5p)     0.01221
    93   Br    3  pz     Ryd( 6p)     0.00084
    94   Br    3  pz     Ryd( 7p)     0.00005
    95   Br    3  dxy    Cor( 3d)     1.99768
    96   Br    3  dxy    Ryd( 4d)     0.01884
    97   Br    3  dxy    Ryd( 5d)     0.00166
    98   Br    3  dxy    Ryd( 6d)     0.00022
    99   Br    3  dxz    Cor( 3d)     1.99769
   100   Br    3  dxz    Ryd( 4d)     0.01878
   101   Br    3  dxz    Ryd( 5d)     0.00180
   102   Br    3  dxz    Ryd( 6d)     0.00023
   103   Br    3  dyz    Cor( 3d)     1.99768
   104   Br    3  dyz    Ryd( 4d)     0.01900
   105   Br    3  dyz    Ryd( 5d)     0.00166
   106   Br    3  dyz    Ryd( 6d)     0.00026
   107   Br    3  dx2y2  Cor( 3d)     1.99768
   108   Br    3  dx2y2  Ryd( 4d)     0.01866
   109   Br    3  dx2y2  Ryd( 5d)     0.00171
   110   Br    3  dx2y2  Ryd( 6d)     0.00027
   111   Br    3  dz2    Cor( 3d)     1.99769
   112   Br    3  dz2    Ryd( 4d)     0.01873
   113   Br    3  dz2    Ryd( 5d)     0.00176
   114   Br    3  dz2    Ryd( 6d)     0.00024
   115   Br    3  f(0)   Ryd( 4f)     0.00176
   116   Br    3  f(0)   Ryd( 5f)     0.00026
   117   Br    3  f(C1)  Ryd( 4f)     0.00176
   118   Br    3  f(C1)  Ryd( 5f)     0.00025
   119   Br    3  f(S1)  Ryd( 4f)     0.00175
   120   Br    3  f(S1)  Ryd( 5f)     0.00026
   121   Br    3  f(C2)  Ryd( 4f)     0.00176
   122   Br    3  f(C2)  Ryd( 5f)     0.00026
   123   Br    3  f(S2)  Ryd( 4f)     0.00177
   124   Br    3  f(S2)  Ryd( 5f)     0.00025
   125   Br    3  f(C3)  Ryd( 4f)     0.00175
   126   Br    3  f(C3)  Ryd( 5f)     0.00026
   127   Br    3  f(S3)  Ryd( 4f)     0.00175
   128   Br    3  f(S3)  Ryd( 5f)     0.00026

   129    H    4  S      Val( 1S)     0.49696
   130    H    4  S      Ryd( 2S)     0.00405
   131    H    4  S      Ryd( 3S)     0.00043
   132    H    4  S      Ryd( 4S)     0.00011
   133    H    4  px     Ryd( 2p)     0.00312
   134    H    4  px     Ryd( 3p)     0.00035
   135    H    4  px     Ryd( 4p)     0.00009
   136    H    4  py     Ryd( 2p)     0.00459
   137    H    4  py     Ryd( 3p)     0.00044
   138    H    4  py     Ryd( 4p)     0.00018
   139    H    4  pz     Ryd( 2p)     0.00302
   140    H    4  pz     Ryd( 3p)     0.00044
   141    H    4  pz     Ryd( 4p)     0.00015
   142    H    4  dxy    Ryd( 3d)     0.00018
   143    H    4  dxy    Ryd( 4d)     0.00008
   144    H    4  dxz    Ryd( 3d)     0.00012
   145    H    4  dxz    Ryd( 4d)     0.00007
   146    H    4  dyz    Ryd( 3d)     0.00025
   147    H    4  dyz    Ryd( 4d)     0.00007
   148    H    4  dx2y2  Ryd( 3d)     0.00025
   149    H    4  dx2y2  Ryd( 4d)     0.00009
   150    H    4  dz2    Ryd( 3d)     0.00013
   151    H    4  dz2    Ryd( 4d)     0.00008

 WARNING:  5 low occupancy (<1.9990e) core orbitals found on Br    3


 Summary of Natural Population Analysis:                  
                                                          
                                       Natural Population 
                Natural  -----------------------------------------------
    Atom  No    Charge         Core      Valence    Rydberg      Total
 -----------------------------------------------------------------------
      O    1   -0.95078      1.99968     6.84281    0.10829     8.95078
      H    2    0.44538      0.00000     0.54787    0.00675     0.55462
     Br    3   -0.97937     27.98851     7.82958    0.16128    35.97937
      H    4    0.48477      0.00000     0.49696    0.01827     0.51523
 =======================================================================
   * Total *   -1.00000     29.98819    15.71723    0.29458    46.00000

                                 Natural Population      
 --------------------------------------------------------
   Core                      29.98819 ( 99.9606% of  30)
   Valence                   15.71723 ( 98.2327% of  16)
   Natural Minimal Basis     45.70542 ( 99.3596% of  46)
   Natural Rydberg Basis      0.29458 (  0.6404% of  46)
 --------------------------------------------------------

    Atom  No          Natural Electron Configuration
 ----------------------------------------------------------------------------
      O    1      [core]2S( 1.75)2p( 5.10)3S( 0.01)3p( 0.04)3d( 0.05)
      H    2            1S( 0.55)
     Br    3      [core]4S( 1.98)4p( 5.85)4d( 0.09)5p( 0.04)4f( 0.01)5d( 0.01)
      H    4            1S( 0.50)2p( 0.01)


 NATURAL BOND ORBITAL ANALYSIS:
 Warning:  a bond orbital has occupanc of -0.00002

                       Occupancies       Lewis Structure    Low   High
           Occ.    -------------------  -----------------   occ   occ
  Cycle   Thresh.   Lewis   Non-Lewis     CR  BD  3C  LP    (L)   (NL)   Dev
 =============================================================================
   1(1)    1.90    45.68393   0.31607     15   2   0   6     0      0    0.02
 -----------------------------------------------------------------------------

 Structure accepted: No low occupancy Lewis orbitals

 WARNING:  5 low occupancy (<1.9990e) core orbitals found on Br    3

 --------------------------------------------------------
   Core                     29.98819 ( 99.961% of  30)
   Valence Lewis            15.69574 ( 98.098% of  16)
  ==================       ============================
   Total Lewis              45.68393 ( 99.313% of  46)
  -----------------------------------------------------
   Valence non-Lewis         0.05251 (  0.114% of  46)
   Rydberg non-Lewis         0.26356 (  0.573% of  46)
  ==================       ============================
   Total non-Lewis           0.31607 (  0.687% of  46)
 --------------------------------------------------------


       (Occupancy)   Bond orbital/ Coefficients/ Hybrids
 ---------------------------------------------------------------------------------
     1. (1.96637) BD ( 1) O   1 - H   2  
                ( 72.90%)   0.8538* O   1 s( 20.78%)p 3.79( 78.75%)d 0.02(  0.46%)
                                                  f 0.00(  0.01%)
                                            0.0002  0.4558 -0.0059  0.0034 -0.0048
                                            0.8846 -0.0313  0.0081 -0.0004  0.0522
                                           -0.0116  0.0010 -0.0025 -0.0318  0.0117
                                           -0.0011  0.0016 -0.0127  0.0000  0.0022
                                            0.0173 -0.0028 -0.0000 -0.0054 -0.0002
                                            0.0016  0.0547 -0.0032  0.0027 -0.0322
                                            0.0017 -0.0011  0.0000  0.0003 -0.0054
                                           -0.0017 -0.0004  0.0001 -0.0004 -0.0001
                                           -0.0061  0.0018  0.0062  0.0021  0.0010
                                           -0.0001
                ( 27.10%)   0.5205* H   2 s( 99.90%)p 0.00(  0.09%)d 0.00(  0.01%)
                                            0.9995  0.0036 -0.0002  0.0002 -0.0022
                                            0.0301 -0.0040  0.0033  0.0008 -0.0007
                                            0.0005  0.0018 -0.0002  0.0026 -0.0018
                                            0.0011  0.0010 -0.0024 -0.0008  0.0076
                                           -0.0014 -0.0038  0.0008
     2. (1.96727) BD ( 1) O   1 - H   4  
                ( 75.90%)   0.8712* O   1 s( 23.35%)p 3.26( 76.17%)d 0.02(  0.46%)
                                                  f 0.00(  0.01%)
                                           -0.0003 -0.4833 -0.0001 -0.0010  0.0012
                                            0.1887 -0.0187 -0.0003  0.0023  0.6330
                                           -0.0150  0.0063 -0.0014 -0.5697  0.0108
                                           -0.0067  0.0049  0.0088 -0.0047  0.0023
                                           -0.0069  0.0039 -0.0019  0.0598 -0.0027
                                           -0.0021  0.0270 -0.0016  0.0006 -0.0116
                                            0.0019 -0.0016  0.0079 -0.0013  0.0001
                                            0.0007  0.0050  0.0011  0.0040  0.0026
                                           -0.0028 -0.0008 -0.0008 -0.0011  0.0034
                                           -0.0032
                ( 24.10%)   0.4909* H   4 s( 99.86%)p 0.00(  0.13%)d 0.00(  0.01%)
                                           -0.9992 -0.0110 -0.0003 -0.0000 -0.0194
                                            0.0011  0.0007 -0.0049 -0.0168 -0.0059
                                           -0.0176  0.0164  0.0070 -0.0002  0.0020
                                            0.0007 -0.0019  0.0021  0.0006 -0.0072
                                            0.0001  0.0024  0.0008
     3. (1.99968) CR ( 1) O   1           s(100.00%)
                                            1.0000 -0.0004  0.0000 -0.0000  0.0000
                                           -0.0001  0.0000 -0.0000  0.0000  0.0001
                                           -0.0000  0.0000  0.0000 -0.0000  0.0000
                                           -0.0000  0.0000  0.0000 -0.0000  0.0000
                                            0.0000  0.0000 -0.0000  0.0000 -0.0000
                                           -0.0000 -0.0000  0.0000  0.0000  0.0000
                                            0.0000 -0.0000  0.0000  0.0000  0.0000
                                            0.0000  0.0000  0.0000  0.0000  0.0000
                                            0.0000 -0.0000 -0.0000 -0.0000 -0.0000
                                           -0.0000
     4. (2.00003) CR ( 1)Br   3           s(100.00%)
                                            1.0000 -0.0000 -0.0000 -0.0000 -0.0000
                                           -0.0000  0.0000  0.0000  0.0000 -0.0000
                                           -0.0000 -0.0000  0.0000  0.0000 -0.0000
                                           -0.0000 -0.0000  0.0000  0.0000  0.0000
                                            0.0000 -0.0000 -0.0000  0.0000 -0.0000
                                            0.0000 -0.0000  0.0000 -0.0000  0.0000
                                           -0.0000  0.0000 -0.0000  0.0000 -0.0000
                                            0.0000 -0.0000 -0.0000  0.0000 -0.0000
                                           -0.0000 -0.0000 -0.0000  0.0000 -0.0000
                                            0.0000  0.0000 -0.0000  0.0000 -0.0000
                                           -0.0000  0.0000  0.0000 -0.0000 -0.0000
                                            0.0000  0.0000  0.0000  0.0000
     5. (2.00000) CR ( 2)Br   3           s(100.00%)
                                           -0.0000  1.0000 -0.0000 -0.0000 -0.0000
                                           -0.0000  0.0000  0.0000 -0.0000 -0.0000
                                           -0.0000 -0.0000  0.0000  0.0000 -0.0000
                                           -0.0000 -0.0000  0.0000  0.0000  0.0000
                                            0.0000 -0.0000 -0.0000  0.0000 -0.0000
                                            0.0000 -0.0000  0.0000 -0.0000  0.0000
                                           -0.0000  0.0000 -0.0000  0.0000 -0.0000
                                            0.0000 -0.0000 -0.0000  0.0000 -0.0000
                                           -0.0000 -0.0000  0.0000 -0.0000 -0.0000
                                            0.0000  0.0000  0.0000  0.0000  0.0000
                                            0.0000  0.0000  0.0000 -0.0000 -0.0000
                                            0.0000  0.0000  0.0000  0.0000
     6. (2.00000) CR ( 3)Br   3           s(100.00%)
                                           -0.0000 -0.0000  1.0000 -0.0000 -0.0000
                                           -0.0000  0.0000  0.0000 -0.0000 -0.0000
                                           -0.0000 -0.0000  0.0000  0.0000 -0.0000
                                           -0.0000 -0.0000  0.0000  0.0000  0.0000
                                            0.0000 -0.0000 -0.0000  0.0000 -0.0000
                                            0.0000 -0.0000  0.0000 -0.0000  0.0000
                                           -0.0000  0.0000 -0.0000  0.0000 -0.0000
                                            0.0000 -0.0000 -0.0000  0.0000 -0.0000
                                           -0.0000 -0.0000  0.0000 -0.0000 -0.0000
                                            0.0000  0.0000  0.0000  0.0000  0.0000
                                            0.0000  0.0000  0.0000 -0.0000 -0.0000
                                            0.0000  0.0000  0.0000  0.0000
     7. (2.00002) CR ( 4)Br   3           s(  0.00%)p 1.00(100.00%)
                                            0.0000  0.0000  0.0000  0.0000 -0.0000
                                           -0.0000  0.0000  1.0000  0.0000 -0.0000
                                           -0.0000 -0.0000  0.0000 -0.0000  0.0000
                                            0.0000 -0.0000 -0.0000  0.0000 -0.0000
                                           -0.0000  0.0000  0.0000  0.0000  0.0000
                                           -0.0000 -0.0000  0.0000  0.0000  0.0000
                                           -0.0000  0.0000 -0.0000 -0.0000  0.0000
                                           -0.0000  0.0000  0.0000 -0.0000  0.0000
                                           -0.0000  0.0000  0.0000 -0.0000  0.0000
                                           -0.0000 -0.0000  0.0000  0.0000  0.0000
                                            0.0000 -0.0000 -0.0000 -0.0000 -0.0000
                                            0.0000  0.0000 -0.0000 -0.0000
     8. (2.00000) CR ( 5)Br   3           s(  0.00%)p 1.00(100.00%)
                                            0.0000 -0.0000 -0.0000  0.0000  0.0000
                                            0.0000 -0.0000  0.0000  1.0000  0.0000
                                            0.0000  0.0000 -0.0000  0.0000 -0.0000
                                           -0.0000  0.0000  0.0000 -0.0000  0.0000
                                            0.0000 -0.0000 -0.0000 -0.0000 -0.0000
                                            0.0000  0.0000 -0.0000 -0.0000 -0.0000
                                            0.0000 -0.0000  0.0000  0.0000 -0.0000
                                            0.0000 -0.0000 -0.0000  0.0000 -0.0000
                                            0.0000 -0.0000 -0.0000  0.0000 -0.0000
                                            0.0000  0.0000 -0.0000 -0.0000  0.0000
                                            0.0000  0.0000  0.0000  0.0000  0.0000
                                           -0.0000 -0.0000  0.0000  0.0000
     9. (2.00002) CR ( 6)Br   3           s(  0.00%)p 1.00(100.00%)
                                            0.0000  0.0000  0.0000  0.0000  0.0000
                                            0.0000 -0.0000 -0.0000  0.0000  0.0000
                                            0.0000  0.0000 -0.0000  1.0000  0.0000
                                            0.0000  0.0000 -0.0000 -0.0000 -0.0000
                                           -0.0000  0.0000  0.0000 -0.0000  0.0000
                                           -0.0000  0.0000 -0.0000  0.0000 -0.0000
                                            0.0000 -0.0000  0.0000 -0.0000  0.0000
                                           -0.0000  0.0000  0.0000 -0.0000  0.0000
                                            0.0000  0.0000 -0.0000  0.0000  0.0000
                                           -0.0000 -0.0000 -0.0000 -0.0000  0.0000
                                           -0.0000 -0.0000 -0.0000  0.0000  0.0000
                                           -0.0000 -0.0000 -0.0000 -0.0000
    10. (2.00000) CR ( 7)Br   3           s(  0.00%)p 1.00(100.00%)
                                           -0.0000 -0.0000 -0.0000  0.0000 -0.0000
                                           -0.0000 -0.0000  0.0000 -0.0000 -0.0000
                                           -0.0000 -0.0000  0.0000  0.0000  1.0000
                                           -0.0000 -0.0000  0.0000  0.0000  0.0000
                                            0.0000 -0.0000 -0.0000  0.0000 -0.0000
                                            0.0000 -0.0000  0.0000 -0.0000  0.0000
                                           -0.0000  0.0000 -0.0000  0.0000 -0.0000
                                            0.0000 -0.0000 -0.0000  0.0000 -0.0000
                                           -0.0000 -0.0000  0.0000 -0.0000  0.0000
                                            0.0000  0.0000  0.0000  0.0000  0.0000
                                            0.0000  0.0000  0.0000 -0.0000 -0.0000
                                            0.0000  0.0000  0.0000  0.0000
    11. (2.00002) CR ( 8)Br   3           s(  0.00%)p 1.00(100.00%)
                                            0.0000  0.0000  0.0000  0.0000  0.0000
                                           -0.0000  0.0000 -0.0000  0.0000  0.0000
                                            0.0000  0.0000 -0.0000 -0.0000  0.0000
                                            0.0000 -0.0000 -0.0000  0.0000  1.0000
                                           -0.0000 -0.0000  0.0000 -0.0000  0.0000
                                           -0.0000  0.0000 -0.0000  0.0000 -0.0000
                                            0.0000 -0.0000 -0.0000 -0.0000  0.0000
                                           -0.0000  0.0000  0.0000 -0.0000  0.0000
                                            0.0000  0.0000 -0.0000  0.0000 -0.0000
                                           -0.0000 -0.0000 -0.0000 -0.0000 -0.0000
                                           -0.0000 -0.0000 -0.0000  0.0000  0.0000
                                           -0.0000 -0.0000 -0.0000 -0.0000
    12. (2.00000) CR ( 9)Br   3           s(  0.00%)p 1.00(100.00%)
                                            0.0000  0.0000  0.0000  0.0000  0.0000
                                            0.0000 -0.0000 -0.0000  0.0000  0.0000
                                            0.0000 -0.0000 -0.0000 -0.0000  0.0000
                                            0.0000  0.0000 -0.0000 -0.0000 -0.0000
                                            1.0000  0.0000  0.0000 -0.0000  0.0000
                                           -0.0000  0.0000 -0.0000  0.0000 -0.0000
                                            0.0000 -0.0000  0.0000 -0.0000  0.0000
                                           -0.0000  0.0000  0.0000 -0.0000  0.0000
                                            0.0000  0.0000 -0.0000 -0.0000  0.0000
                                           -0.0000 -0.0000 -0.0000 -0.0000  0.0000
                                            0.0000 -0.0000 -0.0000  0.0000  0.0000
                                           -0.0000 -0.0000 -0.0000 -0.0000
    13. (1.99768) CR (10)Br   3           s(  0.00%)p 0.00(  0.00%)d 1.00(100.00%)
                                            0.0000  0.0000  0.0000  0.0000  0.0000
                                            0.0000 -0.0000 -0.0000  0.0000  0.0000
                                            0.0000  0.0000 -0.0000 -0.0000  0.0000
                                            0.0000  0.0000 -0.0000 -0.0000 -0.0000
                                           -0.0000  0.0000  0.0000 -0.0000  0.0000
                                            1.0000  0.0000 -0.0000  0.0000 -0.0000
                                            0.0000 -0.0000  0.0000 -0.0000  0.0000
                                           -0.0000  0.0000  0.0000 -0.0000  0.0000
                                            0.0000  0.0000 -0.0000  0.0000 -0.0000
                                           -0.0000 -0.0000 -0.0000 -0.0000 -0.0000
                                           -0.0000 -0.0000 -0.0000  0.0000  0.0000
                                           -0.0000 -0.0000 -0.0000 -0.0000
    14. (1.99769) CR (11)Br   3           s(  0.00%)p 0.00(  0.00%)d 1.00(100.00%)
                                            0.0000  0.0000  0.0000  0.0000  0.0000
                                            0.0000 -0.0000  0.0000 -0.0000  0.0000
                                            0.0000  0.0000 -0.0000 -0.0000  0.0000
                                            0.0000  0.0000 -0.0000 -0.0000 -0.0000
                                           -0.0000  0.0000  0.0000 -0.0000  0.0000
                                           -0.0000  0.0000 -0.0000  0.0000  1.0000
                                            0.0000 -0.0000  0.0000 -0.0000  0.0000
                                           -0.0000  0.0000  0.0000 -0.0000  0.0000
                                            0.0000  0.0000 -0.0000  0.0000  0.0000
                                           -0.0000 -0.0000 -0.0000 -0.0000  0.0000
                                            0.0000 -0.0000 -0.0000  0.0000  0.0000
                                           -0.0000 -0.0000 -0.0000 -0.0000
    15. (1.99768) CR (12)Br   3           s(  0.00%)p 0.00(  0.00%)d 1.00(100.00%)
                                            0.0000  0.0000  0.0000  0.0000  0.0000
                                            0.0000 -0.0000 -0.0000  0.0000  0.0000
                                            0.0000 -0.0000 -0.0000 -0.0000  0.0000
                                            0.0000  0.0000 -0.0000 -0.0000 -0.0000
                                           -0.0000  0.0000  0.0000 -0.0000  0.0000
                                           -0.0000  0.0000 -0.0000  0.0000 -0.0000
                                            0.0000 -0.0000  0.0000  1.0000  0.0000
                                           -0.0000  0.0000  0.0000 -0.0000  0.0000
                                            0.0000  0.0000 -0.0000  0.0000  0.0000
                                           -0.0000 -0.0000 -0.0000 -0.0000 -0.0000
                                           -0.0000 -0.0000 -0.0000  0.0000  0.0000
                                           -0.0000 -0.0000 -0.0000 -0.0000
    16. (1.99768) CR (13)Br   3           s(  0.00%)p 0.00(  0.00%)d 1.00(100.00%)
                                           -0.0000 -0.0000 -0.0000 -0.0000 -0.0000
                                           -0.0000 -0.0000  0.0000 -0.0000 -0.0000
                                           -0.0000  0.0000  0.0000  0.0000 -0.0000
                                           -0.0000 -0.0000  0.0000  0.0000  0.0000
                                            0.0000 -0.0000 -0.0000  0.0000 -0.0000
                                            0.0000 -0.0000  0.0000 -0.0000  0.0000
                                           -0.0000  0.0000 -0.0000  0.0000 -0.0000
                                            0.0000 -0.0000  1.0000  0.0000 -0.0000
                                           -0.0000 -0.0000  0.0000 -0.0000 -0.0000
                                            0.0000  0.0000  0.0000  0.0000  0.0000
                                            0.0000  0.0000  0.0000 -0.0000 -0.0000
                                            0.0000  0.0000  0.0000  0.0000
    17. (1.99769) CR (14)Br   3           s(  0.00%)p 0.00(  0.00%)d 1.00(100.00%)
                                           -0.0000 -0.0000 -0.0000 -0.0000 -0.0000
                                            0.0000 -0.0000  0.0000 -0.0000 -0.0000
                                           -0.0000 -0.0000  0.0000  0.0000 -0.0000
                                           -0.0000  0.0000  0.0000  0.0000  0.0000
                                            0.0000  0.0000 -0.0000  0.0000 -0.0000
                                            0.0000 -0.0000  0.0000 -0.0000  0.0000
                                           -0.0000  0.0000 -0.0000  0.0000 -0.0000
                                            0.0000 -0.0000 -0.0000  0.0000 -0.0000
                                           -0.0000  1.0000  0.0000 -0.0000  0.0000
                                            0.0000  0.0000  0.0000  0.0000  0.0000
                                            0.0000  0.0000  0.0000 -0.0000 -0.0000
                                            0.0000  0.0000  0.0000  0.0000
    18. (1.97080) LP ( 1) O   1           s( 55.72%)p 0.79( 44.15%)d 0.00(  0.13%)
                                                  f 0.00(  0.00%)
                                            0.0003  0.7464  0.0030 -0.0016  0.0025
                                           -0.4187 -0.0026  0.0036 -0.0013  0.4001
                                            0.0090 -0.0039  0.0008 -0.3255 -0.0063
                                            0.0027  0.0009  0.0228 -0.0022 -0.0023
                                           -0.0229  0.0036  0.0006  0.0141 -0.0022
                                            0.0003 -0.0013  0.0012 -0.0031  0.0010
                                           -0.0001  0.0009  0.0037 -0.0015  0.0003
                                           -0.0000  0.0010 -0.0002 -0.0005  0.0008
                                            0.0026 -0.0005 -0.0003  0.0003  0.0036
                                           -0.0020
    19. (1.96102) LP ( 2) O   1           s(  0.08%)p99.99( 99.59%)d 3.84(  0.30%)
                                                  f 0.33(  0.03%)
                                            0.0000  0.0242 -0.0117 -0.0080 -0.0002
                                           -0.0007 -0.0006  0.0006 -0.0017 -0.6567
                                           -0.0200  0.0040 -0.0011 -0.7507 -0.0257
                                            0.0061 -0.0022 -0.0277  0.0089 -0.0045
                                           -0.0320  0.0097 -0.0050 -0.0032  0.0026
                                           -0.0030 -0.0122 -0.0005  0.0029 -0.0284
                                            0.0009  0.0042  0.0017 -0.0017  0.0013
                                           -0.0004  0.0084 -0.0025 -0.0103  0.0040
                                           -0.0004  0.0002  0.0005  0.0006 -0.0064
                                            0.0036
    20. (1.98095) LP ( 1)Br   3           s( 99.66%)p 0.00(  0.34%)d 0.00(  0.00%)
                                                  f 0.00(  0.00%)
                                           -0.0000 -0.0000 -0.0000  0.9983 -0.0001
                                           -0.0000 -0.0000 -0.0000 -0.0000 -0.0096
                                            0.0004 -0.0000  0.0001 -0.0000 -0.0000
                                           -0.0554  0.0005 -0.0004 -0.0000 -0.0000
                                           -0.0000 -0.0162  0.0007 -0.0001  0.0002
                                           -0.0000  0.0007 -0.0003  0.0000 -0.0000
                                            0.0003 -0.0001 -0.0000 -0.0000  0.0016
                                           -0.0006  0.0000  0.0000 -0.0009  0.0002
                                            0.0002  0.0000 -0.0006  0.0002  0.0000
                                           -0.0004 -0.0003 -0.0001 -0.0000 -0.0002
                                           -0.0001 -0.0005 -0.0004  0.0002  0.0002
                                           -0.0002 -0.0002 -0.0002 -0.0002
    21. (1.95404) LP ( 2)Br   3           s(  0.00%)p 1.00( 99.99%)d 0.00(  0.00%)
                                                  f 0.00(  0.00%)
                                           -0.0000 -0.0000 -0.0000  0.0042 -0.0002
                                           -0.0006  0.0012  0.0000 -0.0000  0.7479
                                            0.0004  0.0006 -0.0002  0.0000  0.0000
                                            0.1357 -0.0010 -0.0001 -0.0001 -0.0000
                                            0.0000 -0.6497  0.0010 -0.0002 -0.0000
                                           -0.0000  0.0031 -0.0011  0.0003 -0.0000
                                            0.0013 -0.0007  0.0006  0.0000 -0.0007
                                           -0.0002  0.0009  0.0000  0.0023 -0.0012
                                            0.0015  0.0000 -0.0032  0.0018 -0.0017
                                           -0.0002 -0.0002 -0.0004 -0.0004 -0.0013
                                           -0.0011  0.0002 -0.0000  0.0008  0.0006
                                           -0.0006 -0.0004  0.0006  0.0005
    22. (1.95386) LP ( 3)Br   3           s(  0.01%)p 1.00( 99.99%)d 0.00(  0.00%)
                                                  f 0.00(  0.00%)
                                           -0.0000 -0.0000 -0.0000  0.0080 -0.0015
                                           -0.0031  0.0042 -0.0000  0.0000 -0.6328
                                           -0.0004 -0.0005  0.0001  0.0000  0.0000
                                            0.4412 -0.0025 -0.0005  0.0010 -0.0000
                                            0.0000 -0.6362  0.0013 -0.0001 -0.0000
                                            0.0000 -0.0019  0.0003  0.0003  0.0000
                                           -0.0032  0.0017 -0.0017  0.0000  0.0007
                                           -0.0009  0.0017  0.0000 -0.0020  0.0010
                                           -0.0002  0.0000 -0.0018  0.0009 -0.0005
                                           -0.0002 -0.0003 -0.0002 -0.0002 -0.0012
                                           -0.0010 -0.0007 -0.0008 -0.0011 -0.0009
                                            0.0001 -0.0000 -0.0008 -0.0007
    23. (1.94143) LP ( 4)Br   3           s(  0.33%)p99.99( 99.64%)d 0.06(  0.02%)
                                                  f 0.01(  0.00%)
                                            0.0000  0.0000  0.0000  0.0578  0.0017
                                            0.0009 -0.0001 -0.0000  0.0000  0.2001
                                            0.0012  0.0000 -0.0004 -0.0000  0.0000
                                            0.8852  0.0007 -0.0008 -0.0003 -0.0000
                                           -0.0000  0.4157  0.0032 -0.0001  0.0003
                                           -0.0000  0.0042 -0.0013  0.0007 -0.0000
                                            0.0028 -0.0009  0.0005 -0.0000  0.0109
                                           -0.0034  0.0019  0.0000 -0.0053  0.0013
                                            0.0005  0.0000 -0.0016  0.0003  0.0002
                                           -0.0018 -0.0013 -0.0001 -0.0002 -0.0002
                                           -0.0004 -0.0022 -0.0016  0.0010  0.0006
                                           -0.0010 -0.0008 -0.0010 -0.0008
    24. (0.02019) RY*( 1) O   1           s(  0.11%)p99.99( 97.07%)d23.96(  2.74%)
                                                  f 0.72(  0.08%)
                                            0.0000 -0.0007  0.0295  0.0165  0.0014
                                            0.0001  0.0012 -0.0023  0.0037 -0.0272
                                            0.6511  0.0255 -0.0107 -0.0315  0.7373
                                            0.0242 -0.0093  0.0965 -0.0242  0.0105
                                            0.1046 -0.0265  0.0123  0.0129 -0.0053
                                            0.0056  0.0246 -0.0033 -0.0016  0.0680
                                           -0.0096 -0.0022 -0.0051  0.0034  0.0030
                                            0.0003 -0.0088  0.0085  0.0147 -0.0118
                                            0.0011 -0.0011  0.0031 -0.0014  0.0128
                                           -0.0098
    25. (0.01502) RY*( 2) O   1           s( 21.44%)p 3.48( 74.63%)d 0.18(  3.78%)
                                                  f 0.01(  0.15%)
                                            0.0000 -0.0107  0.4622 -0.0266  0.0030
                                            0.0105 -0.4952 -0.0139  0.0013 -0.0084
                                            0.5234  0.0099 -0.0106  0.0044 -0.4758
                                           -0.0116  0.0086  0.1267 -0.0096 -0.0043
                                           -0.1398  0.0167 -0.0016  0.0371 -0.0108
                                           -0.0038 -0.0122  0.0061 -0.0077 -0.0043
                                           -0.0056  0.0043  0.0100 -0.0083 -0.0110
                                            0.0044 -0.0090  0.0032 -0.0169  0.0075
                                            0.0125 -0.0052  0.0121 -0.0033  0.0166
                                           -0.0098
    26. (0.00709) RY*( 3) O   1           s(  3.83%)p15.26( 58.51%)d 9.63( 36.92%)
                                                  f 0.19(  0.74%)
                                            0.0000  0.0037  0.1919 -0.0358  0.0145
                                           -0.0559 -0.6068 -0.0195 -0.0148 -0.0217
                                           -0.3404 -0.0112 -0.0095  0.0160  0.3086
                                            0.0239 -0.0225 -0.4019 -0.0024 -0.0058
                                            0.0971 -0.0074  0.0075  0.1785  0.0299
                                           -0.0120  0.3920  0.0479 -0.0230  0.0920
                                           -0.0106  0.0108  0.0124 -0.0033 -0.0173
                                            0.0078  0.0070  0.0016  0.0372 -0.0133
                                           -0.0221  0.0073  0.0144 -0.0061 -0.0613
                                            0.0267
    27. (0.00628) RY*( 4) O   1           s(  0.01%)p99.99(  8.11%)d99.99( 90.65%)
                                                  f96.73(  1.22%)
                                           -0.0000 -0.0008 -0.0026  0.0109 -0.0010
                                            0.0244  0.2291  0.0175 -0.0043  0.0197
                                            0.1510  0.0181 -0.0123 -0.0067 -0.0632
                                            0.0008  0.0000 -0.4356 -0.0420  0.0151
                                           -0.5181 -0.0422  0.0120 -0.1900 -0.0185
                                            0.0053  0.1640  0.0077  0.0023  0.6146
                                            0.0547 -0.0140  0.0600 -0.0251  0.0027
                                            0.0004 -0.0461  0.0198 -0.0420  0.0165
                                           -0.0017  0.0015 -0.0211  0.0084 -0.0502
                                            0.0195
    28. (0.00621) RY*( 5) O   1           s( 12.29%)p 0.61(  7.48%)d 6.45( 79.20%)
                                                  f 0.08(  1.03%)
                                           -0.0000  0.0132  0.3501  0.0097 -0.0013
                                            0.0108  0.2291  0.0170 -0.0071  0.0237
                                            0.0969  0.0036 -0.0086 -0.0263 -0.1054
                                           -0.0075 -0.0023 -0.5508 -0.0337  0.0171
                                            0.5798  0.0367 -0.0160  0.0144  0.0120
                                           -0.0069 -0.3749 -0.0390  0.0128  0.0818
                                            0.0080 -0.0036 -0.0326  0.0121  0.0362
                                           -0.0078 -0.0011  0.0053  0.0088  0.0020
                                           -0.0557  0.0221 -0.0587  0.0146 -0.0198
                                            0.0037
    29. (0.00592) RY*( 6) O   1           s(  0.11%)p25.05(  2.63%)d99.99( 96.37%)
                                                  f 8.50(  0.89%)
                                           -0.0000  0.0003  0.0323 -0.0030  0.0004
                                            0.0008  0.0309  0.0016 -0.0027 -0.0248
                                           -0.0737 -0.0023 -0.0162 -0.0384 -0.1320
                                           -0.0095 -0.0077  0.4492  0.0520 -0.0148
                                            0.5045  0.0583 -0.0175 -0.1214 -0.0089
                                            0.0002  0.3183  0.0307 -0.0020  0.6163
                                            0.0612 -0.0081  0.0055 -0.0041  0.0355
                                           -0.0126 -0.0600  0.0250  0.0446 -0.0171
                                           -0.0035  0.0013  0.0222 -0.0077  0.0191
                                           -0.0061
    30. (0.00565) RY*( 7) O   1           s(  6.16%)p 0.93(  5.75%)d14.19( 87.40%)
                                                  f 0.11(  0.70%)
                                           -0.0000  0.0224  0.2471  0.0010 -0.0055
                                            0.0343  0.1421  0.0128 -0.0044 -0.0372
                                           -0.1553 -0.0182 -0.0041  0.0214  0.0976
                                            0.0059  0.0018  0.2071  0.0220 -0.0045
                                           -0.1993 -0.0229  0.0069  0.7864  0.0956
                                           -0.0093 -0.2749 -0.0337  0.0040  0.2913
                                            0.0327 -0.0037  0.0448 -0.0176  0.0211
                                           -0.0074  0.0262 -0.0104  0.0174 -0.0080
                                            0.0450 -0.0167 -0.0189  0.0065  0.0159
                                           -0.0047
    31. (0.00284) RY*( 8) O   1           s(  7.08%)p 3.38( 23.96%)d 9.60( 67.97%)
                                                  f 0.14(  0.99%)
                                           -0.0000 -0.0032  0.2636  0.0360 -0.0053
                                            0.0294 -0.2603  0.0118 -0.0476  0.0215
                                           -0.3060 -0.0270 -0.0504 -0.0207  0.2636
                                            0.0342 -0.0099  0.1953  0.0554  0.0020
                                           -0.1554 -0.0409  0.0001 -0.4863 -0.0787
                                           -0.0364 -0.5640 -0.0770 -0.0622  0.1983
                                           -0.0044  0.0377 -0.0034  0.0067  0.0150
                                           -0.0063 -0.0515  0.0338 -0.0550  0.0278
                                            0.0042 -0.0094 -0.0286  0.0112  0.0300
                                           -0.0091
    32. (0.00224) RY*( 9) O   1           s( 47.14%)p 0.47( 22.22%)d 0.63( 29.90%)
                                                  f 0.02(  0.73%)
                                            0.0000 -0.0066  0.6837  0.0330 -0.0529
                                           -0.0112  0.4223  0.0576 -0.0061 -0.0050
                                           -0.1449 -0.0326 -0.0722 -0.0028  0.1118
                                            0.0239  0.0079  0.1207  0.0506 -0.0058
                                           -0.1164 -0.0546  0.0120 -0.1503 -0.0620
                                           -0.0191  0.3776  0.1005  0.0534 -0.2664
                                           -0.1071 -0.0203 -0.0045  0.0030 -0.0302
                                            0.0400 -0.0317  0.0277  0.0022  0.0071
                                            0.0121 -0.0019  0.0273 -0.0428 -0.0148
                                            0.0014
    33. (0.00063) RY*(10) O   1           s( 56.04%)p 0.46( 25.78%)d 0.14(  7.71%)
                                                  f 0.19( 10.48%)
                                            0.0000 -0.0034 -0.0589  0.7437  0.0618
                                           -0.0017 -0.0326 -0.0487 -0.0464 -0.0054
                                            0.0247 -0.4363 -0.1984 -0.0064 -0.0346
                                            0.1385  0.0370 -0.0211 -0.0556 -0.0134
                                            0.0215  0.0748  0.0261  0.0528 -0.0063
                                            0.1398  0.0069  0.0156 -0.0447 -0.0032
                                           -0.2001  0.0433  0.1486 -0.0542 -0.0598
                                            0.0128 -0.2683  0.0296 -0.0223 -0.0396
                                           -0.0079  0.0153 -0.0206  0.0140  0.0088
                                            0.0091
    34. (0.00056) RY*(11) O   1           s(  0.13%)p48.17(  6.22%)d99.99( 74.54%)
                                                  f99.99( 19.11%)
                                            0.0000 -0.0027 -0.0105  0.0230  0.0254
                                            0.0004 -0.0012  0.2307 -0.0335  0.0122
                                            0.0438 -0.0473  0.0198  0.0120  0.0290
                                            0.0305  0.0349 -0.0217  0.6730  0.0201
                                           -0.0207  0.5100  0.0253 -0.0002  0.0610
                                            0.0071 -0.0013  0.0587  0.0005 -0.0271
                                            0.1497 -0.0061  0.1064 -0.0190 -0.0631
                                           -0.0034  0.1102 -0.0117 -0.2556  0.0284
                                           -0.0113  0.0058 -0.1207  0.0004 -0.2846
                                            0.0354
    35. (0.00057) RY*(12) O   1           s(  0.57%)p99.99( 60.35%)d60.60( 34.81%)
                                                  f 7.42(  4.26%)
                                            0.0000 -0.0030 -0.0394  0.0349  0.0544
                                           -0.0035 -0.0153  0.3232 -0.0673  0.0053
                                            0.0070  0.4351 -0.0550  0.0000 -0.0551
                                            0.5466 -0.0025  0.0162  0.1010  0.0197
                                            0.0226 -0.2086  0.0324  0.0042  0.2391
                                            0.0477  0.0295 -0.2886 -0.0064  0.0143
                                           -0.3851 -0.0083 -0.0341 -0.0038  0.0548
                                            0.0017 -0.1108  0.0206  0.0095 -0.0240
                                           -0.0398  0.0124 -0.0700  0.0189 -0.1336
                                            0.0142
    36. (0.00052) RY*(13) O   1           s(  0.38%)p99.99( 51.71%)d90.42( 34.36%)
                                                  f35.64( 13.54%)
                                            0.0000 -0.0056 -0.0325 -0.0211  0.0476
                                           -0.0051 -0.0327  0.5325 -0.0500  0.0007
                                            0.0392 -0.4119 -0.0750 -0.0080 -0.0201
                                           -0.2209 -0.0628 -0.0050  0.1691 -0.0078
                                           -0.0016 -0.4558 -0.0429 -0.0193  0.2421
                                            0.0148  0.0139  0.0105  0.0073 -0.0148
                                            0.2113  0.0308 -0.2902  0.0074  0.0933
                                            0.0009 -0.0202 -0.0079  0.1554 -0.0100
                                           -0.0891  0.0083 -0.0981  0.0030 -0.0094
                                            0.0041
    37. (0.00044) RY*(14) O   1           s(  2.23%)p11.19( 25.00%)d 5.50( 12.29%)
                                                  f27.06( 60.47%)
                                           -0.0000  0.0035 -0.0180  0.1200  0.0872
                                           -0.0018 -0.0136  0.0649 -0.0357 -0.0059
                                           -0.0133  0.3810  0.0239 -0.0034  0.0018
                                           -0.3089 -0.0548  0.0000  0.0700 -0.0006
                                           -0.0020 -0.0280  0.0098  0.0804 -0.3088
                                            0.0278 -0.0219  0.1089 -0.0194 -0.0100
                                            0.0412  0.0065 -0.2882 -0.0386 -0.3716
                                           -0.0358 -0.5257 -0.0630  0.0790 -0.0196
                                            0.0965  0.0197 -0.2620 -0.0248 -0.1220
                                           -0.0036
    38. (0.00045) RY*(15) O   1           s(  0.08%)p99.99( 12.99%)d66.10(  5.13%)
                                                  f99.99( 81.80%)
                                           -0.0000  0.0018 -0.0089 -0.0099  0.0244
                                           -0.0018 -0.0057  0.0647 -0.0109 -0.0010
                                            0.0018  0.1168 -0.0078  0.0019  0.0125
                                           -0.3259 -0.0742 -0.0224  0.1221  0.0110
                                           -0.0217  0.0644  0.0143  0.0293 -0.0727
                                            0.0233 -0.0240 -0.0533 -0.0370 -0.0400
                                           -0.1184 -0.0621  0.1598  0.0109  0.6106
                                            0.0617 -0.3933 -0.0557  0.0461  0.0097
                                           -0.0854 -0.0033  0.4738  0.0501 -0.1461
                                           -0.0031
    39. (0.00045) RY*(16) O   1           s(  1.08%)p21.06( 22.85%)d 6.95(  7.54%)
                                                  f63.16( 68.53%)
                                            0.0000 -0.0024 -0.0088 -0.0469  0.0926
                                           -0.0065 -0.0200  0.4632 -0.0237 -0.0098
                                           -0.0175  0.1068  0.0242  0.0072  0.0141
                                            0.0082  0.0157 -0.0315 -0.0873 -0.0441
                                            0.0087  0.1177  0.0311  0.0320 -0.1901
                                           -0.0179  0.0273  0.0646  0.0102 -0.0298
                                            0.0810  0.0009  0.4058  0.0259  0.0078
                                            0.0054 -0.1073 -0.0180 -0.1053  0.0074
                                           -0.1821  0.0001 -0.1407 -0.0156  0.6653
                                            0.0319
    40. (0.00043) RY*(17) O   1           s(  0.47%)p 3.56(  1.69%)d 7.63(  3.62%)
                                                  f99.99( 94.21%)
                                           -0.0000 -0.0001 -0.0042  0.0515  0.0456
                                            0.0028 -0.0089  0.0856  0.0146  0.0004
                                            0.0090  0.0235 -0.0011 -0.0023 -0.0076
                                           -0.0846 -0.0376 -0.0571  0.1119 -0.0429
                                            0.0428 -0.0708  0.0314 -0.0431 -0.0028
                                           -0.0191  0.0104 -0.0809 -0.0340 -0.0138
                                           -0.0225 -0.0065  0.2503  0.0342  0.0978
                                            0.0206  0.1016  0.0136  0.2176  0.0234
                                            0.8853  0.1088 -0.0792 -0.0121  0.0871
                                            0.0165
    41. (0.00044) RY*(18) O   1           s(  0.80%)p32.28( 25.71%)d40.84( 32.53%)
                                                  f51.43( 40.97%)
[...]
                                                  f 0.59(  0.40%)
   127. (0.00004) RY*(41)Br   3           s(  0.64%)p99.99( 98.24%)d 1.32(  0.84%)
                                                  f 0.43(  0.28%)
   128. (0.00594) RY*( 1) H   4           s( 39.88%)p 1.46( 58.34%)d 0.04(  1.78%)
                                           -0.0133  0.6266 -0.0758 -0.0161  0.1119
                                           -0.0242 -0.0003  0.7538 -0.0312 -0.0070
                                            0.0154  0.0016 -0.0297 -0.0177  0.0050
                                           -0.0017 -0.0017 -0.0960 -0.0067  0.0757
                                           -0.0297  0.0268 -0.0292
   129. (0.00421) RY*( 2) H   4           s( 26.95%)p 2.67( 71.88%)d 0.04(  1.18%)
                                            0.0115  0.5180 -0.0174  0.0267 -0.2178
                                            0.0105 -0.0181 -0.3837 -0.0204 -0.0202
                                           -0.7122 -0.1221 -0.0280 -0.0445  0.0031
                                           -0.0301  0.0199  0.0126 -0.0134 -0.0096
                                            0.0478  0.0643  0.0405
   130. (0.00332) RY*( 3) H   4           s( 11.41%)p 7.64( 87.18%)d 0.12(  1.41%)
                                           -0.0216  0.3020  0.1441 -0.0410  0.8398
                                           -0.0008  0.0157 -0.3735 -0.0032 -0.0081
                                            0.1610 -0.0044 -0.0271 -0.0336  0.0104
                                           -0.0382  0.0014  0.0130 -0.0176  0.0938
                                            0.0098 -0.0428  0.0133
   131. (0.00163) RY*( 4) H   4           s( 29.12%)p 2.37( 69.08%)d 0.06(  1.79%)
                                           -0.0083  0.4534  0.2855  0.0641 -0.4399
                                            0.0013  0.0040 -0.2731  0.2393 -0.0164
                                            0.5855  0.0987 -0.1126  0.0590 -0.0287
                                            0.0672 -0.0078  0.0889 -0.0199 -0.0136
                                            0.0208  0.0046  0.0111
   132. (0.00051) RY*( 5) H   4           s( 23.00%)p 2.65( 61.04%)d 0.69( 15.97%)
                                            0.0060 -0.1147  0.4634  0.0455  0.1176
                                            0.2444 -0.0270  0.1900  0.3529 -0.0025
                                           -0.3029  0.4997 -0.1844  0.0472 -0.0026
                                            0.1004 -0.0596  0.3443 -0.0487 -0.0416
                                            0.0092  0.1452  0.0016
   133. (0.00038) RY*( 6) H   4           s(  3.13%)p27.55( 86.22%)d 3.40( 10.65%)
                                           -0.0015 -0.0170 -0.0078  0.1759  0.0630
                                           -0.8664  0.1195  0.0281  0.2697 -0.0270
                                           -0.0669  0.0981  0.0701 -0.1159 -0.1142
                                           -0.0364  0.0736  0.1220 -0.0264 -0.2336
                                           -0.0398  0.0339 -0.0191
   134. (0.00029) RY*( 7) H   4           s( 13.21%)p 4.10( 54.17%)d 2.47( 32.62%)
                                            0.0004  0.0441  0.2617 -0.2483 -0.0104
                                           -0.0643  0.2083  0.0498 -0.2655  0.6030
                                           -0.0204 -0.2226  0.0870  0.2370  0.0663
                                            0.0860 -0.0832  0.2894 -0.1482 -0.2935
                                           -0.2112 -0.1189  0.0256
   135. (0.00023) RY*( 8) H   4           s(  5.55%)p 3.81( 21.12%)d13.22( 73.33%)
                                           -0.0043  0.0384 -0.1497  0.1777  0.0495
                                            0.2783 -0.0372 -0.0028  0.2849  0.2114
                                            0.0482 -0.0394 -0.0133 -0.4144  0.1711
                                           -0.3026 -0.2009 -0.1537  0.0080 -0.6029
                                           -0.0405 -0.0665 -0.0847
   136. (0.00018) RY*( 9) H   4           s(  4.77%)p 5.70( 27.18%)d14.27( 68.05%)
                                            0.0087 -0.0042  0.1851 -0.1154 -0.0753
                                           -0.0528 -0.1307  0.0453 -0.4586 -0.1567
                                            0.0857 -0.0139 -0.0426 -0.5922 -0.1007
                                           -0.2806 -0.1023  0.4334  0.0556  0.0410
                                            0.0528  0.1331  0.1315
   137. (0.00014) RY*(10) H   4           s(  5.63%)p 5.32( 29.96%)d11.44( 64.41%)
                                           -0.0006  0.0100  0.0009  0.2370  0.1007
                                            0.0848  0.0069  0.0778 -0.0645 -0.3843
                                            0.0460 -0.3492  0.0171  0.2563  0.0736
                                            0.2752 -0.0284  0.2294  0.1960 -0.4453
                                            0.2509  0.1665  0.3413
   138. (0.00014) RY*(11) H   4           s( 15.56%)p 2.95( 45.86%)d 2.48( 38.57%)
                                           -0.0123 -0.1283  0.3534 -0.1186 -0.0049
                                           -0.0901 -0.0434  0.1064  0.1626 -0.0396
                                           -0.0688 -0.3938 -0.4994 -0.0286 -0.2086
                                           -0.1599 -0.0434 -0.3165 -0.2320  0.0324
                                            0.1634 -0.2349  0.2775
   139. (0.00009) RY*(12) H   4           s(  6.90%)p 7.33( 50.57%)d 6.17( 42.53%)
   140. (0.00010) RY*(13) H   4           s(  7.94%)p 6.55( 52.02%)d 5.05( 40.04%)
   141. (0.00008) RY*(14) H   4           s( 14.82%)p 1.17( 17.31%)d 4.58( 67.87%)
   142. (0.00008) RY*(15) H   4           s( 17.38%)p 0.64( 11.04%)d 4.12( 71.58%)
   143. (0.00006) RY*(16) H   4           s(  7.23%)p 3.67( 26.52%)d 9.16( 66.25%)
   144. (0.00006) RY*(17) H   4           s( 23.36%)p 0.76( 17.70%)d 2.52( 58.94%)
   145. (0.00004) RY*(18) H   4           s( 29.32%)p 0.50( 14.63%)d 1.91( 56.04%)
   146. (0.00004) RY*(19) H   4           s(  9.04%)p 2.12( 19.20%)d 7.94( 71.77%)
   147. (0.00004) RY*(20) H   4           s(  0.23%)p71.01( 16.15%)d99.99( 83.63%)
   148. (0.00004) RY*(21) H   4           s(  3.72%)p 6.14( 22.83%)d19.75( 73.45%)
   149. (0.00002) RY*(22) H   4           s(  2.01%)p19.82( 39.85%)d28.92( 58.14%)
   150. (0.02145) BD*( 1) O   1 - H   2  
                ( 27.10%)   0.5205* O   1 s( 20.78%)p 3.79( 78.75%)d 0.02(  0.46%)
                                                  f 0.00(  0.01%)
                                           -0.0002 -0.4558  0.0059 -0.0034  0.0048
                                           -0.8846  0.0313 -0.0081  0.0004 -0.0522
                                            0.0116 -0.0010  0.0025  0.0318 -0.0117
                                            0.0011 -0.0016  0.0127 -0.0000 -0.0022
                                           -0.0173  0.0028  0.0000  0.0054  0.0002
                                           -0.0016 -0.0547  0.0032 -0.0027  0.0322
                                           -0.0017  0.0011 -0.0000 -0.0003  0.0054
                                            0.0017  0.0004 -0.0001  0.0004  0.0001
                                            0.0061 -0.0018 -0.0062 -0.0021 -0.0010
                                            0.0001
                ( 72.90%)  -0.8538* H   2 s( 99.90%)p 0.00(  0.09%)d 0.00(  0.01%)
                                           -0.9995 -0.0036  0.0002 -0.0002  0.0022
                                           -0.0301  0.0040 -0.0033 -0.0008  0.0007
                                           -0.0005 -0.0018  0.0002 -0.0026  0.0018
                                           -0.0011 -0.0010  0.0024  0.0008 -0.0076
                                            0.0014  0.0038 -0.0008
   151. (0.03106) BD*( 1) O   1 - H   4  
                ( 24.10%)   0.4909* O   1 s( 23.35%)p 3.26( 76.17%)d 0.02(  0.46%)
                                                  f 0.00(  0.01%)
                                            0.0003  0.4833  0.0001  0.0010 -0.0012
                                           -0.1887  0.0187  0.0003 -0.0023 -0.6330
                                            0.0150 -0.0063  0.0014  0.5697 -0.0108
                                            0.0067 -0.0049 -0.0088  0.0047 -0.0023
                                            0.0069 -0.0039  0.0019 -0.0598  0.0027
                                            0.0021 -0.0270  0.0016 -0.0006  0.0116
                                           -0.0019  0.0016 -0.0079  0.0013 -0.0001
                                           -0.0007 -0.0050 -0.0011 -0.0040 -0.0026
                                            0.0028  0.0008  0.0008  0.0011 -0.0034
                                            0.0032
                ( 75.90%)  -0.8712* H   4 s( 99.86%)p 0.00(  0.13%)d 0.00(  0.01%)
                                            0.9992  0.0110  0.0003  0.0000  0.0194
                                           -0.0011 -0.0007  0.0049  0.0168  0.0059
                                            0.0176 -0.0164 -0.0070  0.0002 -0.0020
                                           -0.0007  0.0019 -0.0021 -0.0006  0.0072
                                           -0.0001 -0.0024 -0.0008


 NHO Directionality and "Bond Bending" (deviations from line of nuclear centers)

         [Thresholds for printing:  angular deviation  >  1.0 degree]
                                    hybrid p-character > 25.0%
                                    orbital occupancy  >  0.10e

                                Line of Centers        Hybrid 1              Hybrid 2
                                ---------------  -------------------   ------------------
                NBO               Theta   Phi    Theta   Phi    Dev    Theta   Phi    Dev
 ========================================================================================
     1. BD (   1) O   1 - H   2    90.0    0.0    91.3    2.6   2.9      --     --    --
     2. BD (   1) O   1 - H   4    50.0  258.3    49.1  254.6   3.0      --     --    --
    18. LP (   1) O   1             --     --    119.4  135.9   --       --     --    --
    19. LP (   2) O   1             --     --    138.9  269.8   --       --     --    --
    21. LP (   2)Br   3             --     --    130.5   10.2   --       --     --    --
    22. LP (   3)Br   3             --     --    129.5  145.3   --       --     --    --
    23. LP (   4)Br   3             --     --     65.2   77.2   --       --     --    --


 Natural Bond Orbitals (Summary):

           NBO                  Occupancy  
 -----------------------------------------------
 Molecular unit  1  (H2O)
     1. BD (   1) O   1 - H   2          1.96637
     2. BD (   1) O   1 - H   4          1.96727
     3. CR (   1) O   1                  1.99968
    18. LP (   1) O   1                  1.97080
    19. LP (   2) O   1                  1.96102
    24. RY*(   1) O   1                  0.02019
    25. RY*(   2) O   1                  0.01502
    26. RY*(   3) O   1                  0.00709
    27. RY*(   4) O   1                  0.00628
    28. RY*(   5) O   1                  0.00621
    29. RY*(   6) O   1                  0.00592
    30. RY*(   7) O   1                  0.00565
    31. RY*(   8) O   1                  0.00284
    32. RY*(   9) O   1                  0.00224
    33. RY*(  10) O   1                  0.00063
    34. RY*(  11) O   1                  0.00056
    35. RY*(  12) O   1                  0.00057
    36. RY*(  13) O   1                  0.00052
    37. RY*(  14) O   1                  0.00044
    38. RY*(  15) O   1                  0.00045
    39. RY*(  16) O   1                  0.00045
    40. RY*(  17) O   1                  0.00043
    41. RY*(  18) O   1                  0.00044
    42. RY*(  19) O   1                  0.00041
    43. RY*(  20) O   1                  0.00041
    44. RY*(  21) O   1                  0.00037
    45. RY*(  22) O   1                  0.00035
    46. RY*(  23) O   1                  0.00030
    47. RY*(  24) O   1                  0.00028
    48. RY*(  25) O   1                  0.00019
    49. RY*(  26) O   1                  0.00013
    50. RY*(  27) O   1                  0.00010
    51. RY*(  28) O   1                  0.00007
    52. RY*(  29) O   1                  0.00008
    53. RY*(  30) O   1                  0.00008
    54. RY*(  31) O   1                  0.00007
    55. RY*(  32) O   1                  0.00007
    56. RY*(  33) O   1                  0.00007
    57. RY*(  34) O   1                  0.00007
    58. RY*(  35) O   1                  0.00005
    59. RY*(  36) O   1                  0.00005
    60. RY*(  37) O   1                  0.00003
    61. RY*(  38) O   1                  0.00003
    62. RY*(  39) O   1                  0.00002
    63. RY*(  40) O   1                  0.00001
    64. RY*(  41) O   1                 -0.00002
    65. RY*(   1) H   2                  0.00196
    66. RY*(   2) H   2                  0.00162
    67. RY*(   3) H   2                  0.00081
    68. RY*(   4) H   2                  0.00048
    69. RY*(   5) H   2                  0.00029
    70. RY*(   6) H   2                  0.00018
    71. RY*(   7) H   2                  0.00012
    72. RY*(   8) H   2                  0.00011
    73. RY*(   9) H   2                  0.00010
    74. RY*(  10) H   2                  0.00010
    75. RY*(  11) H   2                  0.00008
    76. RY*(  12) H   2                  0.00006
    77. RY*(  13) H   2                  0.00005
    78. RY*(  14) H   2                  0.00004
    79. RY*(  15) H   2                  0.00003
    80. RY*(  16) H   2                  0.00003
    81. RY*(  17) H   2                  0.00003
    82. RY*(  18) H   2                  0.00002
    83. RY*(  19) H   2                  0.00003
    84. RY*(  20) H   2                  0.00002
    85. RY*(  21) H   2                  0.00001
    86. RY*(  22) H   2                  0.00001
   128. RY*(   1) H   4                  0.00594
   129. RY*(   2) H   4                  0.00421
   130. RY*(   3) H   4                  0.00332
   131. RY*(   4) H   4                  0.00163
   132. RY*(   5) H   4                  0.00051
   133. RY*(   6) H   4                  0.00038
   134. RY*(   7) H   4                  0.00029
   135. RY*(   8) H   4                  0.00023
   136. RY*(   9) H   4                  0.00018
   137. RY*(  10) H   4                  0.00014
   138. RY*(  11) H   4                  0.00014
   139. RY*(  12) H   4                  0.00009
   140. RY*(  13) H   4                  0.00010
   141. RY*(  14) H   4                  0.00008
   142. RY*(  15) H   4                  0.00008
   143. RY*(  16) H   4                  0.00006
   144. RY*(  17) H   4                  0.00006
   145. RY*(  18) H   4                  0.00004
   146. RY*(  19) H   4                  0.00004
   147. RY*(  20) H   4                  0.00004
   148. RY*(  21) H   4                  0.00004
   149. RY*(  22) H   4                  0.00002
   150. BD*(   1) O   1 - H   2          0.02145
   151. BD*(   1) O   1 - H   4          0.03106
       -------------------------------
              Total Lewis    9.86513  ( 98.4481%)
        Valence non-Lewis    0.05251  (  0.5240%)
        Rydberg non-Lewis    0.10299  (  1.0278%)
       -------------------------------
            Total unit  1   10.02063  (100.0000%)
           Charge unit  1   -0.02063

 Molecular unit  2  (Br)
     4. CR (   1)Br   3                  2.00003
     5. CR (   2)Br   3                  2.00000
     6. CR (   3)Br   3                  2.00000
     7. CR (   4)Br   3                  2.00002
     8. CR (   5)Br   3                  2.00000
     9. CR (   6)Br   3                  2.00002
    10. CR (   7)Br   3                  2.00000
    11. CR (   8)Br   3                  2.00002
    12. CR (   9)Br   3                  2.00000
    13. CR (  10)Br   3                  1.99768
    14. CR (  11)Br   3                  1.99769
    15. CR (  12)Br   3                  1.99768
    16. CR (  13)Br   3                  1.99768
    17. CR (  14)Br   3                  1.99769
    20. LP (   1)Br   3                  1.98095
    21. LP (   2)Br   3                  1.95404
    22. LP (   3)Br   3                  1.95386
    23. LP (   4)Br   3                  1.94143
    87. RY*(   1)Br   3                  0.01885
    88. RY*(   2)Br   3                  0.01882
    89. RY*(   3)Br   3                  0.01872
    90. RY*(   4)Br   3                  0.01871
    91. RY*(   5)Br   3                  0.01863
    92. RY*(   6)Br   3                  0.01233
    93. RY*(   7)Br   3                  0.01222
    94. RY*(   8)Br   3                  0.01125
    95. RY*(   9)Br   3                  0.00429
    96. RY*(  10)Br   3                  0.00181
    97. RY*(  11)Br   3                  0.00182
    98. RY*(  12)Br   3                  0.00178
    99. RY*(  13)Br   3                  0.00177
   100. RY*(  14)Br   3                  0.00177
   101. RY*(  15)Br   3                  0.00178
   102. RY*(  16)Br   3                  0.00177
   103. RY*(  17)Br   3                  0.00176
   104. RY*(  18)Br   3                  0.00176
   105. RY*(  19)Br   3                  0.00162
   106. RY*(  20)Br   3                  0.00160
   107. RY*(  21)Br   3                  0.00148
   108. RY*(  22)Br   3                  0.00083
   109. RY*(  23)Br   3                  0.00084
   110. RY*(  24)Br   3                  0.00081
   111. RY*(  25)Br   3                  0.00059
   112. RY*(  26)Br   3                  0.00025
   113. RY*(  27)Br   3                  0.00025
   114. RY*(  28)Br   3                  0.00025
   115. RY*(  29)Br   3                  0.00025
   116. RY*(  30)Br   3                  0.00026
   117. RY*(  31)Br   3                  0.00025
   118. RY*(  32)Br   3                  0.00025
   119. RY*(  33)Br   3                  0.00022
   120. RY*(  34)Br   3                  0.00022
   121. RY*(  35)Br   3                  0.00021
   122. RY*(  36)Br   3                  0.00018
   123. RY*(  37)Br   3                  0.00017
   124. RY*(  38)Br   3                  0.00009
   125. RY*(  39)Br   3                  0.00004
   126. RY*(  40)Br   3                  0.00004
   127. RY*(  41)Br   3                  0.00004
       -------------------------------
              Total Lewis   35.81880  ( 99.5537%)
        Valence non-Lewis    0.00000  (  0.0000%)
        Rydberg non-Lewis    0.16057  (  0.4463%)
       -------------------------------
            Total unit  2   35.97937  (100.0000%)
           Charge unit  2   -0.97937
 Leave Link  607 at Tue Oct 19 16:41:50 2021, MaxMem= 16106127360 cpu:              69.7 elap:               2.5
 (Enter /sw/contrib/gaussian/g16/B01/g16/l9999.exe)
 1\1\GINC-N2098\SP\RMP2-FC\Aug-CC-pVTZ\Br1H2O1(1-)\CGAVINH\19-Oct-2021\
 0\\#p pop=NBO SP NoSymm mp2/aug-cc-pvtz density=current\\title\\-1,1\O
 \X,1,10.\H,1,0.96078759,2,90.\Br,1,3.25661955,2,90.,3,101.73887131,0\H
 ,1,0.97293,2,50.,3,101.73887131,0\\Version=ES64L-G16RevB.01\HF=-2648.5
 975235\MP2=-2649.1139319\RMSD=6.869e-09\Dipole=0.6644341,0.5364659,0.2
 5203\Quadrupole=11.4860717,-23.2292704,11.7431987,-6.783037,-0.1452893
 ,-0.2387765\PG=C01 [X(Br1H2O1)]\\@


 AS FAR AS THE LAWS OF MATHEMATICS REFER TO REALITY,
 THEY ARE NOT CERTAIN; AND AS FAR AS THEY ARE CERTAIN,
 THEY DO NOT REFER TO REALITY.

                                         -- ALBERT EINSTEIN
 Job cpu time:       0 days  0 hours  4 minutes 33.3 seconds.
 Elapsed time:       0 days  0 hours  0 minutes 12.7 seconds.
 File lengths (MBytes):  RWF=     11 Int=      0 D2E=      0 Chk=      8 Scr=      1
 Normal termination of Gaussian 16 at Tue Oct 19 16:41:51 2021.
