 Entering Gaussian System, Link 0=g16
 Input=brhod_oop_50_sp.gjf
 Output=brhod_oop_50_sp.log
 Initial command:
 /sw/contrib/gaussian/g16/B01/g16/l1.exe "/scr/Gau-26922.inp" -scrdir="/scr/"
 Entering Link 1 = /sw/contrib/gaussian/g16/B01/g16/l1.exe PID=     26923.
  
 Copyright (c) 1988-2017, Gaussian, Inc.  All Rights Reserved.
  
 This is part of the Gaussian(R) 16 program.  It is based on
 the Gaussian(R) 09 system (copyright 2009, Gaussian, Inc.),
 the Gaussian(R) 03 system (copyright 2003, Gaussian, Inc.),
 the Gaussian(R) 98 system (copyright 1998, Gaussian, Inc.),
 the Gaussian(R) 94 system (copyright 1995, Gaussian, Inc.),
 the Gaussian 92(TM) system (copyright 1992, Gaussian, Inc.),
 the Gaussian 90(TM) system (copyright 1990, Gaussian, Inc.),
 the Gaussian 88(TM) system (copyright 1988, Gaussian, Inc.),
 the Gaussian 86(TM) system (copyright 1986, Carnegie Mellon
 University), and the Gaussian 82(TM) system (copyright 1983,
 Carnegie Mellon University). Gaussian is a federally registered
 trademark of Gaussian, Inc.
  
 This software contains proprietary and confidential information,
 including trade secrets, belonging to Gaussian, Inc.
  
 This software is provided under written license and may be
 used, copied, transmitted, or stored only in accord with that
 written license.
  
 The following legend is applicable only to US Government
 contracts under FAR:
  
                    RESTRICTED RIGHTS LEGEND
  
 Use, reproduction and disclosure by the US Government is
 subject to restrictions as set forth in subparagraphs (a)
 and (c) of the Commercial Computer Software - Restricted
 Rights clause in FAR 52.227-19.
  
 Gaussian, Inc.
 340 Quinnipiac St., Bldg. 40, Wallingford CT 06492
  
  
 ---------------------------------------------------------------
 Warning -- This program may not be used in any manner that
 competes with the business of Gaussian, Inc. or will provide
 assistance to any competitor of Gaussian, Inc.  The licensee
 of this program is prohibited from giving any competitor of
 Gaussian, Inc. access to this program.  By using this program,
 the user acknowledges that Gaussian, Inc. is engaged in the
 business of creating and licensing software in the field of
 computational chemistry and represents and warrants to the
 licensee that it is not a competitor of Gaussian, Inc. and that
 it will not use this program in any manner prohibited above.
 ---------------------------------------------------------------
  

 Cite this work as:
 Gaussian 16, Revision B.01,
 M. J. Frisch, G. W. Trucks, H. B. Schlegel, G. E. Scuseria, 
 M. A. Robb, J. R. Cheeseman, G. Scalmani, V. Barone, 
 G. A. Petersson, H. Nakatsuji, X. Li, M. Caricato, A. V. Marenich, 
 J. Bloino, B. G. Janesko, R. Gomperts, B. Mennucci, H. P. Hratchian, 
 J. V. Ortiz, A. F. Izmaylov, J. L. Sonnenberg, D. Williams-Young, 
 F. Ding, F. Lipparini, F. Egidi, J. Goings, B. Peng, A. Petrone, 
 T. Henderson, D. Ranasinghe, V. G. Zakrzewski, J. Gao, N. Rega, 
 G. Zheng, W. Liang, M. Hada, M. Ehara, K. Toyota, R. Fukuda, 
 J. Hasegawa, M. Ishida, T. Nakajima, Y. Honda, O. Kitao, H. Nakai, 
 T. Vreven, K. Throssell, J. A. Montgomery, Jr., J. E. Peralta, 
 F. Ogliaro, M. J. Bearpark, J. J. Heyd, E. N. Brothers, K. N. Kudin, 
 V. N. Staroverov, T. A. Keith, R. Kobayashi, J. Normand, 
 K. Raghavachari, A. P. Rendell, J. C. Burant, S. S. Iyengar, 
 J. Tomasi, M. Cossi, J. M. Millam, M. Klene, C. Adamo, R. Cammi, 
 J. W. Ochterski, R. L. Martin, K. Morokuma, O. Farkas, 
 J. B. Foresman, and D. J. Fox, Gaussian, Inc., Wallingford CT, 2016.
 
 ******************************************
 Gaussian 16:  ES64L-G16RevB.01 20-Dec-2017
                19-Oct-2021 
 ******************************************
 %nproc=28
 Will use up to   28 processors via shared memory.
 %mem=120GB
 %chk=/gscratch/ilahie/mccoygrp/coire_hocl/oop_s_rOH_opt/brhod/brhod_oop_50_sp.ch
 k
 ----------------------------------------------------
 #p pop=NBO SP NoSymm mp2/aug-cc-pvtz density=current
 ----------------------------------------------------
 1/30=1,38=1,172=1/1;
 2/12=2,15=1,17=6,18=5,40=1/2;
 3/5=16,6=1,7=10,11=9,25=1,30=1,71=1/1,2,3;
 4//1;
 5/5=2,38=5/2;
 8/6=4,10=1/1;
 9/15=1,16=-3/6;
 10/5=1,13=10,31=1/2;
 6/7=2,8=2,9=2,10=2,22=-1,40=1/1,7;
 99/5=1,9=1/99;
 Leave Link    1 at Tue Oct 19 16:42:04 2021, MaxMem= 16106127360 cpu:              25.9 elap:               1.0
 (Enter /sw/contrib/gaussian/g16/B01/g16/l101.exe)
 -----
 title
 -----
 Symbolic Z-matrix:
 Charge = -1 Multiplicity = 1
 O
 X                    1     10. 
 H(iso=2)             1    r1       2     90. 
 Br                   1    r2       2     90.      3    a1       0
 H                    1    r3       2    oop      3    a1       0
       Variables:
  r1                    0.96079                  
  r2                    3.25662                  
  r3                    0.96974                  
  a1                  101.73887                  
  OOP                  40.                       
 
 ITRead=  0  0  0  0
 MicOpt= -1 -1 -1 -1
 NAtoms=      4 NQM=        4 NQMF=       0 NMMI=      0 NMMIF=      0
                NMic=       0 NMicF=      0.
                    Isotopes and Nuclear Properties:
 (Nuclear quadrupole moments (NQMom) in fm**2, nuclear magnetic moments (NMagM)
  in nuclear magnetons)

  Atom         1           2           3           4
 IAtWgt=          16           2          79           1
 AtmWgt=  15.9949146   2.0141018  78.9183361   1.0078250
 NucSpn=           0           2           3           1
 AtZEff=  -0.0000000  -0.0000000  -0.0000000  -0.0000000
 NQMom=    0.0000000   0.2860000  31.3000000   0.0000000
 NMagM=    0.0000000   0.8574380   2.1063990   2.7928460
 AtZNuc=   8.0000000   1.0000000  35.0000000   1.0000000
 Leave Link  101 at Tue Oct 19 16:42:05 2021, MaxMem= 16106127360 cpu:               3.4 elap:               0.1
 (Enter /sw/contrib/gaussian/g16/B01/g16/l202.exe)
                          Input orientation:                          
 ---------------------------------------------------------------------
 Center     Atomic      Atomic             Coordinates (Angstroms)
 Number     Number       Type             X           Y           Z
 ---------------------------------------------------------------------
      1          8           0        0.000000    0.000000    0.000000
      2          1           0        0.960788    0.000000    0.000000
      3         35           0       -0.662564   -3.188507    0.000000
      4          1           0       -0.126819   -0.610300    0.742864
 ---------------------------------------------------------------------
                    Distance matrix (angstroms):
                    1          2          3          4
     1  O    0.000000
     2  H    0.960788   0.000000
     3  Br   3.256620   3.577967   0.000000
     4  H    0.969740   1.451620   2.736060   0.000000
 Symmetry turned off by external request.
 Stoichiometry    BrH2O(1-)
 Framework group  C1[X(BrH2O)]
 Deg. of freedom     6
 Full point group                 C1      NOp   1
 Rotational constants (GHZ):         240.2348725           3.1103337           3.0905773
 Leave Link  202 at Tue Oct 19 16:42:05 2021, MaxMem= 16106127360 cpu:               0.3 elap:               0.0
 (Enter /sw/contrib/gaussian/g16/B01/g16/l301.exe)
 Standard basis: Aug-CC-pVTZ (5D, 7F)
 Ernie: Thresh=  0.10000D-02 Tol=  0.10000D-05 Strict=F.
 Ernie:  35 primitive shells out of 175 were deleted.
   151 basis functions,   343 primitive gaussians,   174 cartesian basis functions
    23 alpha electrons       23 beta electrons
       nuclear repulsion energy        66.5799943768 Hartrees.
 IExCor=    0 DFT=F Ex=HF Corr=None ExCW=0 ScaHFX=  1.000000
 ScaDFX=  1.000000  1.000000  1.000000  1.000000 ScalE2=  1.000000  1.000000
 IRadAn=      5 IRanWt=     -1 IRanGd=            0 ICorTp=0 IEmpDi=  4
 NAtoms=    4 NActive=    4 NUniq=    4 SFac= 1.00D+00 NAtFMM=   60 NAOKFM=F Big=F
 Integral buffers will be    131072 words long.
 Raffenetti 1 integral format.
 Two-electron integral symmetry is turned off.
 Leave Link  301 at Tue Oct 19 16:42:05 2021, MaxMem= 16106127360 cpu:               1.5 elap:               0.1
 (Enter /sw/contrib/gaussian/g16/B01/g16/l302.exe)
 NPDir=0 NMtPBC=     1 NCelOv=     1 NCel=       1 NClECP=     1 NCelD=      1
         NCelK=      1 NCelE2=     1 NClLst=     1 CellRange=     0.0.
 One-electron integrals computed using PRISM.
 NBasis=   151 RedAO= T EigKep=  3.58D-04  NBF=   151
 NBsUse=   151 1.00D-06 EigRej= -1.00D+00 NBFU=   151
 Leave Link  302 at Tue Oct 19 16:42:05 2021, MaxMem= 16106127360 cpu:               5.3 elap:               0.2
 (Enter /sw/contrib/gaussian/g16/B01/g16/l303.exe)
 DipDrv:  MaxL=1.
 Leave Link  303 at Tue Oct 19 16:42:05 2021, MaxMem= 16106127360 cpu:               0.9 elap:               0.1
 (Enter /sw/contrib/gaussian/g16/B01/g16/l401.exe)
 ExpMin= 2.53D-02 ExpMax= 1.06D+07 ExpMxC= 1.21D+04 IAcc=3 IRadAn=         5 AccDes= 0.00D+00
 Harris functional with IExCor=  205 and IRadAn=       5 diagonalized for initial guess.
 HarFok:  IExCor=  205 AccDes= 0.00D+00 IRadAn=         5 IDoV= 1 UseB2=F ITyADJ=14
 ICtDFT=  3500011 ScaDFX=  1.000000  1.000000  1.000000  1.000000
 FoFCou: FMM=F IPFlag=           0 FMFlag=      100000 FMFlg1=           0
         NFxFlg=           0 DoJE=T BraDBF=F KetDBF=T FulRan=T
         wScrn=  0.000000 ICntrl=       500 IOpCl=  0 I1Cent=   200000004 NGrid=           0
         NMat0=    1 NMatS0=      1 NMatT0=    0 NMatD0=    1 NMtDS0=    0 NMtDT0=    0
 Symmetry not used in FoFCou.
 Harris En= -2648.01532764465    
 JPrj=0 DoOrth=F DoCkMO=F.
 Leave Link  401 at Tue Oct 19 16:42:05 2021, MaxMem= 16106127360 cpu:               7.0 elap:               0.3
 (Enter /sw/contrib/gaussian/g16/B01/g16/l502.exe)
 Keep R1 ints in memory in canonical form, NReq=88255701.
 FoFCou: FMM=F IPFlag=           0 FMFlag=           0 FMFlg1=           0
         NFxFlg=           0 DoJE=F BraDBF=F KetDBF=F FulRan=T
         wScrn=  0.000000 ICntrl=       600 IOpCl=  0 I1Cent=           0 NGrid=           0
         NMat0=    1 NMatS0=  11476 NMatT0=    0 NMatD0=    1 NMtDS0=    0 NMtDT0=    0
 Symmetry not used in FoFCou.
 Two-electron integral symmetry not used.
 Closed shell SCF:
 Using DIIS extrapolation, IDIIS=  1040.
 NGot= 16106127360 LenX= 16040205766 LenY= 16040175049
 Requested convergence on RMS density matrix=1.00D-08 within 128 cycles.
 Requested convergence on MAX density matrix=1.00D-06.
 Requested convergence on             energy=1.00D-06.
 No special actions if energy rises.

 Cycle   1  Pass 1  IDiag  1:
 E= -2648.41843984469    
 DIIS: error= 5.69D-02 at cycle   1 NSaved=   1.
 NSaved= 1 IEnMin= 1 EnMin= -2648.41843984469     IErMin= 1 ErrMin= 5.69D-02
 ErrMax= 5.69D-02  0.00D+00 EMaxC= 1.00D-01 BMatC= 5.28D-01 BMatP= 5.28D-01
 IDIUse=3 WtCom= 4.31D-01 WtEn= 5.69D-01
 Coeff-Com:  0.100D+01
 Coeff-En:   0.100D+01
 Coeff:      0.100D+01
 Gap=     0.338 Goal=   None    Shift=    0.000
 GapD=    0.338 DampG=1.000 DampE=0.500 DampFc=0.5000 IDamp=-1.
 Damping current iteration by 5.00D-01
 RMSDP=2.96D-03 MaxDP=8.75D-02              OVMax= 1.22D-01

 Cycle   2  Pass 1  IDiag  1:
 E= -2648.50994128716     Delta-E=       -0.091501442465 Rises=F Damp=T
 DIIS: error= 2.68D-02 at cycle   2 NSaved=   2.
 NSaved= 2 IEnMin= 2 EnMin= -2648.50994128716     IErMin= 2 ErrMin= 2.68D-02
 ErrMax= 2.68D-02  0.00D+00 EMaxC= 1.00D-01 BMatC= 9.93D-02 BMatP= 5.28D-01
 IDIUse=3 WtCom= 7.32D-01 WtEn= 2.68D-01
 Coeff-Com: -0.594D+00 0.159D+01
 Coeff-En:   0.000D+00 0.100D+01
 Coeff:     -0.435D+00 0.143D+01
 Gap=     0.261 Goal=   None    Shift=    0.000
 RMSDP=1.20D-03 MaxDP=3.43D-02 DE=-9.15D-02 OVMax= 6.31D-02

 Cycle   3  Pass 1  IDiag  1:
 E= -2648.59137323812     Delta-E=       -0.081431950963 Rises=F Damp=F
 DIIS: error= 4.65D-03 at cycle   3 NSaved=   3.
 NSaved= 3 IEnMin= 3 EnMin= -2648.59137323812     IErMin= 3 ErrMin= 4.65D-03
 ErrMax= 4.65D-03  0.00D+00 EMaxC= 1.00D-01 BMatC= 2.81D-03 BMatP= 9.93D-02
 IDIUse=3 WtCom= 9.54D-01 WtEn= 4.65D-02
 Coeff-Com: -0.162D+00 0.348D+00 0.814D+00
 Coeff-En:   0.000D+00 0.000D+00 0.100D+01
 Coeff:     -0.155D+00 0.332D+00 0.823D+00
 Gap=     0.279 Goal=   None    Shift=    0.000
 RMSDP=2.11D-04 MaxDP=5.58D-03 DE=-8.14D-02 OVMax= 1.26D-02

 Cycle   4  Pass 1  IDiag  1:
 E= -2648.59315659725     Delta-E=       -0.001783359136 Rises=F Damp=F
 DIIS: error= 6.03D-04 at cycle   4 NSaved=   4.
 NSaved= 4 IEnMin= 4 EnMin= -2648.59315659725     IErMin= 4 ErrMin= 6.03D-04
 ErrMax= 6.03D-04  0.00D+00 EMaxC= 1.00D-01 BMatC= 3.47D-05 BMatP= 2.81D-03
 IDIUse=3 WtCom= 9.94D-01 WtEn= 6.03D-03
 Coeff-Com:  0.206D-01-0.482D-01-0.980D-02 0.104D+01
 Coeff-En:   0.000D+00 0.000D+00 0.000D+00 0.100D+01
 Coeff:      0.205D-01-0.479D-01-0.975D-02 0.104D+01
 Gap=     0.278 Goal=   None    Shift=    0.000
 RMSDP=4.53D-05 MaxDP=1.32D-03 DE=-1.78D-03 OVMax= 2.67D-03

 Cycle   5  Pass 1  IDiag  1:
 E= -2648.59320379103     Delta-E=       -0.000047193774 Rises=F Damp=F
 DIIS: error= 1.11D-04 at cycle   5 NSaved=   5.
 NSaved= 5 IEnMin= 5 EnMin= -2648.59320379103     IErMin= 5 ErrMin= 1.11D-04
 ErrMax= 1.11D-04  0.00D+00 EMaxC= 1.00D-01 BMatC= 1.96D-06 BMatP= 3.47D-05
 IDIUse=3 WtCom= 9.99D-01 WtEn= 1.11D-03
 Coeff-Com: -0.290D-02 0.791D-02-0.201D-01-0.408D+00 0.142D+01
 Coeff-En:   0.000D+00 0.000D+00 0.000D+00 0.000D+00 0.100D+01
 Coeff:     -0.289D-02 0.790D-02-0.200D-01-0.408D+00 0.142D+01
 Gap=     0.279 Goal=   None    Shift=    0.000
 RMSDP=2.06D-05 MaxDP=5.31D-04 DE=-4.72D-05 OVMax= 1.23D-03

 Cycle   6  Pass 1  IDiag  1:
 E= -2648.59320954802     Delta-E=       -0.000005756995 Rises=F Damp=F
 DIIS: error= 2.34D-05 at cycle   6 NSaved=   6.
 NSaved= 6 IEnMin= 6 EnMin= -2648.59320954802     IErMin= 6 ErrMin= 2.34D-05
 ErrMax= 2.34D-05  0.00D+00 EMaxC= 1.00D-01 BMatC= 9.93D-08 BMatP= 1.96D-06
 IDIUse=1 WtCom= 1.00D+00 WtEn= 0.00D+00
 Coeff-Com: -0.541D-03 0.152D-02-0.244D-02-0.552D-01 0.785D-01 0.978D+00
 Coeff:     -0.541D-03 0.152D-02-0.244D-02-0.552D-01 0.785D-01 0.978D+00
 Gap=     0.279 Goal=   None    Shift=    0.000
 RMSDP=2.89D-06 MaxDP=7.84D-05 DE=-5.76D-06 OVMax= 2.01D-04

 Cycle   7  Pass 1  IDiag  1:
 E= -2648.59320974019     Delta-E=       -0.000000192162 Rises=F Damp=F
 DIIS: error= 7.80D-06 at cycle   7 NSaved=   7.
 NSaved= 7 IEnMin= 7 EnMin= -2648.59320974019     IErMin= 7 ErrMin= 7.80D-06
 ErrMax= 7.80D-06  0.00D+00 EMaxC= 1.00D-01 BMatC= 1.44D-08 BMatP= 9.93D-08
 IDIUse=1 WtCom= 1.00D+00 WtEn= 0.00D+00
 Coeff-Com: -0.212D-03 0.232D-03 0.322D-02 0.278D-01-0.145D+00 0.122D+00
 Coeff-Com:  0.993D+00
 Coeff:     -0.212D-03 0.232D-03 0.322D-02 0.278D-01-0.145D+00 0.122D+00
 Coeff:      0.993D+00
 Gap=     0.279 Goal=   None    Shift=    0.000
 RMSDP=1.23D-06 MaxDP=2.89D-05 DE=-1.92D-07 OVMax= 9.05D-05

 Cycle   8  Pass 1  IDiag  1:
 E= -2648.59320976646     Delta-E=       -0.000000026279 Rises=F Damp=F
 DIIS: error= 1.83D-06 at cycle   8 NSaved=   8.
 NSaved= 8 IEnMin= 8 EnMin= -2648.59320976646     IErMin= 8 ErrMin= 1.83D-06
 ErrMax= 1.83D-06  0.00D+00 EMaxC= 1.00D-01 BMatC= 6.13D-10 BMatP= 1.44D-08
 IDIUse=1 WtCom= 1.00D+00 WtEn= 0.00D+00
 Coeff-Com:  0.118D-03-0.233D-03-0.468D-03 0.982D-03 0.144D-01-0.771D-01
 Coeff-Com: -0.148D+00 0.121D+01
 Coeff:      0.118D-03-0.233D-03-0.468D-03 0.982D-03 0.144D-01-0.771D-01
 Coeff:     -0.148D+00 0.121D+01
 Gap=     0.279 Goal=   None    Shift=    0.000
 RMSDP=4.10D-07 MaxDP=1.16D-05 DE=-2.63D-08 OVMax= 2.22D-05

 Cycle   9  Pass 1  IDiag  1:
 E= -2648.59320976806     Delta-E=       -0.000000001601 Rises=F Damp=F
 DIIS: error= 5.11D-07 at cycle   9 NSaved=   9.
 NSaved= 9 IEnMin= 9 EnMin= -2648.59320976806     IErMin= 9 ErrMin= 5.11D-07
 ErrMax= 5.11D-07  0.00D+00 EMaxC= 1.00D-01 BMatC= 3.56D-11 BMatP= 6.13D-10
 IDIUse=1 WtCom= 1.00D+00 WtEn= 0.00D+00
 Coeff-Com:  0.815D-07 0.112D-04-0.158D-03-0.191D-02 0.827D-02-0.407D-02
 Coeff-Com: -0.548D-01-0.199D-01 0.107D+01
 Coeff:      0.815D-07 0.112D-04-0.158D-03-0.191D-02 0.827D-02-0.407D-02
 Coeff:     -0.548D-01-0.199D-01 0.107D+01
 Gap=     0.279 Goal=   None    Shift=    0.000
 RMSDP=8.19D-08 MaxDP=2.60D-06 DE=-1.60D-09 OVMax= 4.62D-06

 Cycle  10  Pass 1  IDiag  1:
 E= -2648.59320976815     Delta-E=       -0.000000000085 Rises=F Damp=F
 DIIS: error= 1.45D-07 at cycle  10 NSaved=  10.
 NSaved=10 IEnMin=10 EnMin= -2648.59320976815     IErMin=10 ErrMin= 1.45D-07
 ErrMax= 1.45D-07  0.00D+00 EMaxC= 1.00D-01 BMatC= 3.16D-12 BMatP= 3.56D-11
 IDIUse=1 WtCom= 1.00D+00 WtEn= 0.00D+00
 Coeff-Com: -0.898D-05 0.168D-04 0.491D-04 0.825D-04-0.175D-02 0.642D-02
 Coeff-Com:  0.176D-01-0.106D+00-0.703D-01 0.115D+01
 Coeff:     -0.898D-05 0.168D-04 0.491D-04 0.825D-04-0.175D-02 0.642D-02
 Coeff:      0.176D-01-0.106D+00-0.703D-01 0.115D+01
 Gap=     0.279 Goal=   None    Shift=    0.000
 RMSDP=2.31D-08 MaxDP=5.48D-07 DE=-8.46D-11 OVMax= 1.61D-06

 Cycle  11  Pass 1  IDiag  1:
 E= -2648.59320976816     Delta-E=       -0.000000000009 Rises=F Damp=F
 DIIS: error= 4.13D-08 at cycle  11 NSaved=  11.
 NSaved=11 IEnMin=11 EnMin= -2648.59320976816     IErMin=11 ErrMin= 4.13D-08
 ErrMax= 4.13D-08  0.00D+00 EMaxC= 1.00D-01 BMatC= 1.87D-13 BMatP= 3.16D-12
 IDIUse=1 WtCom= 1.00D+00 WtEn= 0.00D+00
 Coeff-Com:  0.268D-05-0.560D-05-0.571D-05 0.692D-04 0.929D-04-0.152D-02
 Coeff-Com: -0.218D-02 0.299D-01-0.483D-01-0.282D+00 0.130D+01
 Coeff:      0.268D-05-0.560D-05-0.571D-05 0.692D-04 0.929D-04-0.152D-02
 Coeff:     -0.218D-02 0.299D-01-0.483D-01-0.282D+00 0.130D+01
 Gap=     0.279 Goal=   None    Shift=    0.000
 RMSDP=7.01D-09 MaxDP=1.88D-07 DE=-9.09D-12 OVMax= 5.57D-07

 SCF Done:  E(RHF) =  -2648.59320977     A.U. after   11 cycles
            NFock= 11  Conv=0.70D-08     -V/T= 2.0000
 KE= 2.648531071280D+03 PE=-6.481434378158D+03 EE= 1.117730102733D+03
 Leave Link  502 at Tue Oct 19 16:42:08 2021, MaxMem= 16106127360 cpu:              35.0 elap:               2.3
 (Enter /sw/contrib/gaussian/g16/B01/g16/l801.exe)
 ExpMin= 2.53D-02 ExpMax= 1.06D+07 ExpMxC= 1.21D+04 IAcc=3 IRadAn=         5 AccDes= 0.00D+00
 HarFok:  IExCor=  205 AccDes= 0.00D+00 IRadAn=         5 IDoV=-2 UseB2=F ITyADJ=14
 ICtDFT= 12500011 ScaDFX=  1.000000  1.000000  1.000000  1.000000
 Largest valence mixing into a core orbital is  1.27D-04
 Largest core mixing into a valence orbital is  3.65D-05
 Range of M.O.s used for correlation:    11   151
 NBasis=   151 NAE=    23 NBE=    23 NFC=    10 NFV=     0
 NROrb=    141 NOA=    13 NOB=    13 NVA=   128 NVB=   128

 **** Warning!!: The largest alpha MO coefficient is  0.14849922D+02

 Leave Link  801 at Tue Oct 19 16:42:08 2021, MaxMem= 16106127360 cpu:               1.8 elap:               0.1
 (Enter /sw/contrib/gaussian/g16/B01/g16/l906.exe)
 Frozen-core derivative calculation, NFC=  10 NFV=   0.
 FulOut=F Deriv=T AODrv=F NAtomX=     4
   MMem=         214  MDisk=          13 MDiskD=          13
  W3Min=      604302 MinDsk=     1007783 NBas6D=         174
 NBas2D=       15618    NTT=       15225    LW2=     9911920
    MDV= 16105778317 MDiskM=      462752 NBas2p=       15367
 Fully in-core method, ICMem=   275550978.
 IMap=   1   2   3   4   5   6   7   8   9  10  11  12  13  14  15  16  17  18  19  20
 IMap=  21  22  23
 JobTyp=1 Pass  1 fully in-core, NPsUse= 28.
 Compute canonical integrals.
 FoFCou: FMM=F IPFlag=           0 FMFlag=           0 FMFlg1=           0
         NFxFlg=           0 DoJE=F BraDBF=F KetDBF=F FulRan=T
         wScrn=  0.000000 ICntrl=       600 IOpCl=  1 I1Cent=           0 NGrid=           0
         NMat0=    1 NMatS0=  15618 NMatT0=    0 NMatD0=    1 NMtDS0=    0 NMtDT0=    0
 Symmetry not used in FoFCou.
 Spin components of T(2) and E(2):
     alpha-alpha T2 =       0.2043852847D-01 E2=     -0.6928570676D-01
     alpha-beta  T2 =       0.1089549605D+00 E2=     -0.3772599949D+00
     beta-beta   T2 =       0.2043852847D-01 E2=     -0.6928570676D-01
 The integrals were generated   1 times.
 ANorm=    0.1072302204D+01
 E2 =    -0.5158314084D+00 EUMP2 =    -0.26491090411766D+04
 Leave Link  906 at Tue Oct 19 16:42:11 2021, MaxMem= 16106127360 cpu:              91.5 elap:               3.3
 (Enter /sw/contrib/gaussian/g16/B01/g16/l1002.exe)
 Minotr:  Closed shell wavefunction.
          Computing MP2/KS-MP2 derivatives.
          Using Z-Vector for PSCF gradient.
          Skipping F1 and S1 gradient terms here.
          Frozen-core window.
          Direct CPHF calculation.
          Differentiating once with respect to electric field.
                with respect to dipole field.
          Electric field/nuclear overlap derivatives assumed to be zero.
          Requested convergence is 1.0D-10 RMS, and 1.0D-09 maximum.
          NewPWx=F KeepS1=T KeepF1=T KeepIn=T MapXYZ=F SortEE=F KeepMc=T.
 Keep R1 ints in memory in canonical form, NReq=88259077.
 FoFCou: FMM=F IPFlag=           0 FMFlag=           0 FMFlg1=           0
         NFxFlg=           0 DoJE=F BraDBF=F KetDBF=F FulRan=T
         wScrn=  0.000000 ICntrl=       600 IOpCl=  0 I1Cent=           0 NGrid=           0
         NMat0=    1 NMatS0=  11476 NMatT0=    0 NMatD0=    1 NMtDS0=    0 NMtDT0=    0
 Symmetry not used in FoFCou.
 Two-electron integral symmetry not used.
          MDV=   16106127360 using IRadAn=       5.
          Solving linear equations separately, MaxMat=       0.
          There are     1 degrees of freedom in the 1st order CPHF.  IDoFFX=0 NUNeed=     1.
 LinEq1:  Iter=  0 NonCon=     1 RMS=2.38D-03 Max=3.12D-02 NDo=     1
 AX will form     1 AO Fock derivatives at one time.
 LinEq1:  Iter=  1 NonCon=     1 RMS=4.02D-04 Max=4.09D-03 NDo=     1
 LinEq1:  Iter=  2 NonCon=     1 RMS=1.96D-04 Max=2.34D-03 NDo=     1
 LinEq1:  Iter=  3 NonCon=     1 RMS=5.27D-05 Max=7.96D-04 NDo=     1
 LinEq1:  Iter=  4 NonCon=     1 RMS=1.01D-05 Max=1.14D-04 NDo=     1
 LinEq1:  Iter=  5 NonCon=     1 RMS=4.86D-06 Max=5.79D-05 NDo=     1
 LinEq1:  Iter=  6 NonCon=     1 RMS=1.15D-06 Max=1.36D-05 NDo=     1
 LinEq1:  Iter=  7 NonCon=     1 RMS=2.19D-07 Max=1.90D-06 NDo=     1
 LinEq1:  Iter=  8 NonCon=     1 RMS=6.16D-08 Max=5.99D-07 NDo=     1
 LinEq1:  Iter=  9 NonCon=     1 RMS=1.11D-08 Max=1.46D-07 NDo=     1
 LinEq1:  Iter= 10 NonCon=     1 RMS=1.69D-09 Max=1.73D-08 NDo=     1
 LinEq1:  Iter= 11 NonCon=     1 RMS=3.36D-10 Max=3.14D-09 NDo=     1
 LinEq1:  Iter= 12 NonCon=     0 RMS=7.89D-11 Max=9.04D-10 NDo=     1
 Linear equations converged to 1.000D-10 1.000D-09 after    12 iterations.
 End of Minotr F.D. properties file   721 does not exist.
 End of Minotr F.D. properties file   722 does not exist.
 End of Minotr F.D. properties file   788 does not exist.
 Leave Link 1002 at Tue Oct 19 16:42:14 2021, MaxMem= 16106127360 cpu:              35.9 elap:               2.6
 (Enter /sw/contrib/gaussian/g16/B01/g16/l601.exe)
 Copying SCF densities to generalized density rwf, IOpCl= 0 IROHF=0.

 **********************************************************************

            Population analysis using the MP2 Density.

 **********************************************************************

 Alpha  occ. eigenvalues -- -489.72556 -64.86576 -58.22026 -58.22024 -58.22018
 Alpha  occ. eigenvalues --  -20.40738  -9.53822  -7.14576  -7.14563  -7.14538
 Alpha  occ. eigenvalues --   -2.88753  -2.88752  -2.88717  -2.88702  -2.88694
 Alpha  occ. eigenvalues --   -1.19248  -0.69383  -0.53780  -0.43799  -0.35104
 Alpha  occ. eigenvalues --   -0.14792  -0.14614  -0.14379
 Alpha virt. eigenvalues --    0.13509   0.16185   0.23846   0.24421   0.25704
 Alpha virt. eigenvalues --    0.26714   0.28392   0.29882   0.32598   0.36093
 Alpha virt. eigenvalues --    0.37260   0.38727   0.42191   0.45468   0.47864
 Alpha virt. eigenvalues --    0.49329   0.53763   0.54090   0.55555   0.56414
 Alpha virt. eigenvalues --    0.58407   0.59389   0.63802   0.73720   0.74659
 Alpha virt. eigenvalues --    0.75841   0.78424   0.82825   0.88038   0.88130
 Alpha virt. eigenvalues --    0.88787   0.98002   0.98838   1.01967   1.02386
 Alpha virt. eigenvalues --    1.02996   1.03261   1.05165   1.06470   1.06852
 Alpha virt. eigenvalues --    1.08971   1.10028   1.11106   1.16786   1.17606
 Alpha virt. eigenvalues --    1.18843   1.19644   1.20841   1.21848   1.22776
 Alpha virt. eigenvalues --    1.26140   1.30627   1.35272   1.36008   1.40132
 Alpha virt. eigenvalues --    1.44170   1.50466   1.55738   1.65433   1.66106
 Alpha virt. eigenvalues --    1.70816   1.77561   2.03474   2.05929   2.13720
 Alpha virt. eigenvalues --    2.29908   2.40972   2.41531   2.44721   2.46042
 Alpha virt. eigenvalues --    2.49049   2.51325   2.55874   2.56323   2.56968
 Alpha virt. eigenvalues --    2.57418   2.57745   2.58125   2.58398   2.62069
 Alpha virt. eigenvalues --    2.63336   2.64555   2.65167   2.66500   2.70075
 Alpha virt. eigenvalues --    2.73557   2.79901   2.82089   2.90315   2.93442
 Alpha virt. eigenvalues --    2.94639   2.98070   3.09723   3.85360   3.88217
 Alpha virt. eigenvalues --    4.15681   4.25163   4.29527   4.33993   4.40046
 Alpha virt. eigenvalues --    4.46114   4.53444   4.59477   4.61572   4.72149
 Alpha virt. eigenvalues --    4.93171   5.04280   5.29897   5.34291   5.43127
 Alpha virt. eigenvalues --    5.45926   5.70644   5.77087   6.41547   6.67254
 Alpha virt. eigenvalues --    6.89540   7.16679   7.29010   7.35798   7.45035
 Alpha virt. eigenvalues --    7.50499   7.53307   7.58458   7.71568   7.96594
 Alpha virt. eigenvalues --    8.12826   8.99918  15.90330
          Condensed to atoms (all electrons):
               1          2          3          4
     1  O    8.118791   0.204654  -0.062584   0.182896
     2  H    0.204654   0.584951   0.002112   0.019851
     3  Br  -0.062584   0.002112  36.002510   0.029665
     4  H    0.182896   0.019851   0.029665   0.540562
 Mulliken charges:
               1
     1  O   -0.443756
     2  H    0.188432
     3  Br  -0.971702
     4  H    0.227027
 Sum of Mulliken charges =  -1.00000
 Mulliken charges with hydrogens summed into heavy atoms:
               1
     1  O   -0.028298
     3  Br  -0.971702
 Electronic spatial extent (au):  <R**2>=           1437.3997
 Charge=             -1.0000 electrons
 Dipole moment (field-independent basis, Debye):
    X=              4.1508    Y=             13.7310    Z=              0.7375  Tot=             14.3636
 Quadrupole moment (field-independent basis, Debye-Ang):
   XX=            -31.4570   YY=            -79.3999   ZZ=            -30.6188
   XY=             -9.4024   XZ=             -0.2187   YZ=             -0.3063
 Traceless Quadrupole moment (field-independent basis, Debye-Ang):
   XX=             15.7015   YY=            -32.2413   ZZ=             16.5398
   XY=             -9.4024   XZ=             -0.2187   YZ=             -0.3063
 Octapole moment (field-independent basis, Debye-Ang**2):
  XXX=             48.8799  YYY=            384.8285  ZZZ=             -1.7283  XYY=             46.1426
  XXY=             83.2652  XXZ=             -0.9657  XZZ=             15.1081  YZZ=             76.3727
  YYZ=             -3.0593  XYZ=             -0.4644
 Hexadecapole moment (field-independent basis, Debye-Ang**3):
 XXXX=           -115.2905 YYYY=          -2016.5105 ZZZZ=            -53.0908 XXXY=           -155.8109
 XXXZ=              0.4179 YYYX=           -250.7200 YYYZ=             10.9347 ZZZX=              0.2720
 ZZZY=              2.3735 XXYY=           -293.6531 XXZZ=            -28.3642 YYZZ=           -262.8119
 XXYZ=              1.2774 YYXZ=              1.7565 ZZXY=            -50.4969
 N-N= 6.657999437681D+01 E-N=-6.479887066653D+03  KE= 2.648379276708D+03
 No NMR shielding tensors so no spin-rotation constants.
 Leave Link  601 at Tue Oct 19 16:42:14 2021, MaxMem= 16106127360 cpu:               4.1 elap:               0.2
 (Enter /sw/contrib/gaussian/g16/B01/g16/l607.exe)
 ******************************Gaussian NBO Version 3.1******************************
             N A T U R A L   A T O M I C   O R B I T A L   A N D
          N A T U R A L   B O N D   O R B I T A L   A N A L Y S I S
 ******************************Gaussian NBO Version 3.1******************************
       /RESON  / : Allow strongly delocalized NBO set

 Analyzing the MP2 density

 Job title: title                                                           

 Storage needed:     69217 in NPA,     91732 in NBO (********** available)
 GSVD:  LWork=         337 too small for GESVD, short by       43655 words or       43655 for optimal perf.


 NATURAL POPULATIONS:  Natural atomic orbital occupancies 
                                                          
   NAO  Atom  No  lang   Type(AO)    Occupancy
 --------------------------------------------
     1    O    1  S      Cor( 1S)     1.99968
     2    O    1  S      Val( 2S)     1.74893
     3    O    1  S      Ryd( 3S)     0.00630
     4    O    1  S      Ryd( 4S)     0.00069
     5    O    1  S      Ryd( 5S)     0.00019
     6    O    1  px     Val( 2p)     1.52861
     7    O    1  px     Ryd( 3p)     0.00982
     8    O    1  px     Ryd( 4p)     0.00058
     9    O    1  px     Ryd( 5p)     0.00011
    10    O    1  py     Val( 2p)     1.81642
    11    O    1  py     Ryd( 3p)     0.01736
    12    O    1  py     Ryd( 4p)     0.00061
    13    O    1  py     Ryd( 5p)     0.00016
    14    O    1  pz     Val( 2p)     1.73343
    15    O    1  pz     Ryd( 3p)     0.01547
    16    O    1  pz     Ryd( 4p)     0.00064
    17    O    1  pz     Ryd( 5p)     0.00010
    18    O    1  dxy    Ryd( 3d)     0.00942
    19    O    1  dxy    Ryd( 4d)     0.00078
    20    O    1  dxy    Ryd( 5d)     0.00015
    21    O    1  dxz    Ryd( 3d)     0.00988
    22    O    1  dxz    Ryd( 4d)     0.00069
    23    O    1  dxz    Ryd( 5d)     0.00011
    24    O    1  dyz    Ryd( 3d)     0.01044
    25    O    1  dyz    Ryd( 4d)     0.00044
    26    O    1  dyz    Ryd( 5d)     0.00011
    27    O    1  dx2y2  Ryd( 3d)     0.00964
    28    O    1  dx2y2  Ryd( 4d)     0.00038
    29    O    1  dx2y2  Ryd( 5d)     0.00014
    30    O    1  dz2    Ryd( 3d)     0.00958
    31    O    1  dz2    Ryd( 4d)     0.00044
    32    O    1  dz2    Ryd( 5d)     0.00013
    33    O    1  f(0)   Ryd( 4f)     0.00054
    34    O    1  f(0)   Ryd( 5f)     0.00010
    35    O    1  f(C1)  Ryd( 4f)     0.00043
    36    O    1  f(C1)  Ryd( 5f)     0.00009
    37    O    1  f(S1)  Ryd( 4f)     0.00060
    38    O    1  f(S1)  Ryd( 5f)     0.00011
    39    O    1  f(C2)  Ryd( 4f)     0.00067
    40    O    1  f(C2)  Ryd( 5f)     0.00014
    41    O    1  f(S2)  Ryd( 4f)     0.00052
    42    O    1  f(S2)  Ryd( 5f)     0.00009
    43    O    1  f(C3)  Ryd( 4f)     0.00046
    44    O    1  f(C3)  Ryd( 5f)     0.00010
    45    O    1  f(S3)  Ryd( 4f)     0.00069
    46    O    1  f(S3)  Ryd( 5f)     0.00015

    47    H    2  S      Val( 1S)     0.54791
    48    H    2  S      Ryd( 2S)     0.00173
    49    H    2  S      Ryd( 3S)     0.00038
    50    H    2  S      Ryd( 4S)     0.00015
    51    H    2  px     Ryd( 3p)     0.00023
    52    H    2  px     Ryd( 2p)     0.00065
    53    H    2  px     Ryd( 4p)     0.00018
    54    H    2  py     Ryd( 2p)     0.00101
    55    H    2  py     Ryd( 3p)     0.00016
    56    H    2  py     Ryd( 4p)     0.00006
    57    H    2  pz     Ryd( 2p)     0.00085
    58    H    2  pz     Ryd( 3p)     0.00013
    59    H    2  pz     Ryd( 4p)     0.00006
    60    H    2  dxy    Ryd( 3d)     0.00025
    61    H    2  dxy    Ryd( 4d)     0.00007
    62    H    2  dxz    Ryd( 3d)     0.00019
    63    H    2  dxz    Ryd( 4d)     0.00007
    64    H    2  dyz    Ryd( 3d)     0.00010
    65    H    2  dyz    Ryd( 4d)     0.00005
    66    H    2  dx2y2  Ryd( 3d)     0.00015
    67    H    2  dx2y2  Ryd( 4d)     0.00006
    68    H    2  dz2    Ryd( 3d)     0.00011
    69    H    2  dz2    Ryd( 4d)     0.00005

    70   Br    3  S      Cor( 1S)     2.00003
    71   Br    3  S      Cor( 2S)     2.00000
    72   Br    3  S      Cor( 3S)     2.00000
    73   Br    3  S      Val( 4S)     1.98105
    74   Br    3  S      Ryd( 5S)     0.00459
    75   Br    3  S      Ryd( 6S)     0.00070
    76   Br    3  S      Ryd( 7S)     0.00017
    77   Br    3  px     Cor( 2p)     2.00002
    78   Br    3  px     Cor( 3p)     2.00000
    79   Br    3  px     Val( 4p)     1.95356
    80   Br    3  px     Ryd( 5p)     0.01250
    81   Br    3  px     Ryd( 6p)     0.00085
    82   Br    3  px     Ryd( 7p)     0.00005
    83   Br    3  py     Cor( 2p)     2.00002
    84   Br    3  py     Cor( 3p)     2.00000
    85   Br    3  py     Val( 4p)     1.94893
    86   Br    3  py     Ryd( 5p)     0.01181
    87   Br    3  py     Ryd( 6p)     0.00085
    88   Br    3  py     Ryd( 7p)     0.00005
    89   Br    3  pz     Cor( 2p)     2.00002
    90   Br    3  pz     Cor( 3p)     2.00000
    91   Br    3  pz     Val( 4p)     1.95212
    92   Br    3  pz     Ryd( 5p)     0.01243
    93   Br    3  pz     Ryd( 6p)     0.00085
    94   Br    3  pz     Ryd( 7p)     0.00005
    95   Br    3  dxy    Cor( 3d)     1.99769
    96   Br    3  dxy    Ryd( 4d)     0.01884
    97   Br    3  dxy    Ryd( 5d)     0.00170
    98   Br    3  dxy    Ryd( 6d)     0.00023
    99   Br    3  dxz    Cor( 3d)     1.99769
   100   Br    3  dxz    Ryd( 4d)     0.01881
   101   Br    3  dxz    Ryd( 5d)     0.00181
   102   Br    3  dxz    Ryd( 6d)     0.00023
   103   Br    3  dyz    Cor( 3d)     1.99769
   104   Br    3  dyz    Ryd( 4d)     0.01903
   105   Br    3  dyz    Ryd( 5d)     0.00169
   106   Br    3  dyz    Ryd( 6d)     0.00026
   107   Br    3  dx2y2  Cor( 3d)     1.99768
   108   Br    3  dx2y2  Ryd( 4d)     0.01870
   109   Br    3  dx2y2  Ryd( 5d)     0.00172
   110   Br    3  dx2y2  Ryd( 6d)     0.00028
   111   Br    3  dz2    Cor( 3d)     1.99769
   112   Br    3  dz2    Ryd( 4d)     0.01876
   113   Br    3  dz2    Ryd( 5d)     0.00177
   114   Br    3  dz2    Ryd( 6d)     0.00024
   115   Br    3  f(0)   Ryd( 4f)     0.00177
   116   Br    3  f(0)   Ryd( 5f)     0.00026
   117   Br    3  f(C1)  Ryd( 4f)     0.00176
   118   Br    3  f(C1)  Ryd( 5f)     0.00025
   119   Br    3  f(S1)  Ryd( 4f)     0.00176
   120   Br    3  f(S1)  Ryd( 5f)     0.00026
   121   Br    3  f(C2)  Ryd( 4f)     0.00176
   122   Br    3  f(C2)  Ryd( 5f)     0.00027
   123   Br    3  f(S2)  Ryd( 4f)     0.00177
   124   Br    3  f(S2)  Ryd( 5f)     0.00025
   125   Br    3  f(C3)  Ryd( 4f)     0.00175
   126   Br    3  f(C3)  Ryd( 5f)     0.00026
   127   Br    3  f(S3)  Ryd( 4f)     0.00175
   128   Br    3  f(S3)  Ryd( 5f)     0.00027

   129    H    4  S      Val( 1S)     0.50531
   130    H    4  S      Ryd( 2S)     0.00310
   131    H    4  S      Ryd( 3S)     0.00041
   132    H    4  S      Ryd( 4S)     0.00012
   133    H    4  px     Ryd( 2p)     0.00295
   134    H    4  px     Ryd( 3p)     0.00034
   135    H    4  px     Ryd( 4p)     0.00009
   136    H    4  py     Ryd( 2p)     0.00452
   137    H    4  py     Ryd( 3p)     0.00040
   138    H    4  py     Ryd( 4p)     0.00016
   139    H    4  pz     Ryd( 2p)     0.00274
   140    H    4  pz     Ryd( 3p)     0.00044
   141    H    4  pz     Ryd( 4p)     0.00017
   142    H    4  dxy    Ryd( 3d)     0.00017
   143    H    4  dxy    Ryd( 4d)     0.00008
   144    H    4  dxz    Ryd( 3d)     0.00009
   145    H    4  dxz    Ryd( 4d)     0.00007
   146    H    4  dyz    Ryd( 3d)     0.00023
   147    H    4  dyz    Ryd( 4d)     0.00007
   148    H    4  dx2y2  Ryd( 3d)     0.00026
   149    H    4  dx2y2  Ryd( 4d)     0.00009
   150    H    4  dz2    Ryd( 3d)     0.00012
   151    H    4  dz2    Ryd( 4d)     0.00008

 WARNING:  5 low occupancy (<1.9990e) core orbitals found on Br    3


 Summary of Natural Population Analysis:                  
                                                          
                                       Natural Population 
                Natural  -----------------------------------------------
    Atom  No    Charge         Core      Valence    Rydberg      Total
 -----------------------------------------------------------------------
      O    1   -0.93611      1.99968     6.82738    0.10905     8.93611
      H    2    0.44541      0.00000     0.54791    0.00668     0.55459
     Br    3   -0.98729     27.98853     7.83566    0.16310    35.98729
      H    4    0.47799      0.00000     0.50531    0.01671     0.52201
 =======================================================================
   * Total *   -1.00000     29.98821    15.71625    0.29554    46.00000

                                 Natural Population      
 --------------------------------------------------------
   Core                      29.98821 ( 99.9607% of  30)
   Valence                   15.71625 ( 98.2266% of  16)
   Natural Minimal Basis     45.70446 ( 99.3575% of  46)
   Natural Rydberg Basis      0.29554 (  0.6425% of  46)
 --------------------------------------------------------

    Atom  No          Natural Electron Configuration
 ----------------------------------------------------------------------------
      O    1      [core]2S( 1.75)2p( 5.08)3S( 0.01)3p( 0.04)3d( 0.05)
      H    2            1S( 0.55)
     Br    3      [core]4S( 1.98)4p( 5.85)4d( 0.09)5p( 0.04)4f( 0.01)5d( 0.01)
      H    4            1S( 0.51)2p( 0.01)


 NATURAL BOND ORBITAL ANALYSIS:

                       Occupancies       Lewis Structure    Low   High
           Occ.    -------------------  -----------------   occ   occ
  Cycle   Thresh.   Lewis   Non-Lewis     CR  BD  3C  LP    (L)   (NL)   Dev
 =============================================================================
   1(1)    1.90    45.68971   0.31029     15   2   0   6     0      0    0.01
 -----------------------------------------------------------------------------

 Structure accepted: No low occupancy Lewis orbitals

 WARNING:  5 low occupancy (<1.9990e) core orbitals found on Br    3

 --------------------------------------------------------
   Core                     29.98821 ( 99.961% of  30)
   Valence Lewis            15.70151 ( 98.134% of  16)
  ==================       ============================
   Total Lewis              45.68971 ( 99.325% of  46)
  -----------------------------------------------------
   Valence non-Lewis         0.04687 (  0.102% of  46)
   Rydberg non-Lewis         0.26341 (  0.573% of  46)
  ==================       ============================
   Total non-Lewis           0.31029 (  0.675% of  46)
 --------------------------------------------------------


       (Occupancy)   Bond orbital/ Coefficients/ Hybrids
 ---------------------------------------------------------------------------------
     1. (1.96636) BD ( 1) O   1 - H   2  
                ( 72.91%)   0.8538* O   1 s( 20.52%)p 3.85( 79.00%)d 0.02(  0.47%)
                                                  f 0.00(  0.01%)
                                            0.0002  0.4530 -0.0044  0.0044 -0.0048
                                            0.8856 -0.0302  0.0080 -0.0001  0.0504
                                           -0.0095  0.0006 -0.0019 -0.0434  0.0140
                                           -0.0012  0.0016 -0.0095 -0.0006  0.0022
                                            0.0206 -0.0031 -0.0002 -0.0061  0.0001
                                            0.0015  0.0561 -0.0031  0.0023 -0.0307
                                            0.0016 -0.0015 -0.0000  0.0004 -0.0037
                                           -0.0021 -0.0004  0.0003 -0.0003 -0.0002
                                           -0.0061  0.0017  0.0076  0.0017  0.0008
                                           -0.0001
                ( 27.09%)   0.5205* H   2 s( 99.90%)p 0.00(  0.09%)d 0.00(  0.01%)
                                            0.9995  0.0036 -0.0001  0.0002 -0.0035
                                            0.0296 -0.0039  0.0035  0.0016 -0.0004
                                            0.0002  0.0018 -0.0003  0.0031 -0.0016
                                            0.0010  0.0011 -0.0027 -0.0007  0.0080
                                           -0.0012 -0.0029  0.0009
     2. (1.96697) BD ( 1) O   1 - H   4  
                ( 75.24%)   0.8674* O   1 s( 22.27%)p 3.47( 77.23%)d 0.02(  0.48%)
                                                  f 0.00(  0.02%)
                                           -0.0002 -0.4719 -0.0012 -0.0019  0.0014
                                            0.1756 -0.0185 -0.0006  0.0025  0.5313
                                           -0.0137  0.0053 -0.0004 -0.6770  0.0140
                                           -0.0078  0.0050  0.0097 -0.0041  0.0019
                                           -0.0107  0.0047 -0.0020  0.0580 -0.0022
                                           -0.0019  0.0165 -0.0009  0.0010 -0.0304
                                            0.0029 -0.0013  0.0050 -0.0019  0.0008
                                            0.0008  0.0090  0.0011  0.0015  0.0029
                                           -0.0024 -0.0007 -0.0001 -0.0009  0.0039
                                           -0.0027
                ( 24.76%)   0.4976* H   4 s( 99.85%)p 0.00(  0.14%)d 0.00(  0.01%)
                                           -0.9992 -0.0075 -0.0002 -0.0001 -0.0196
                                            0.0018  0.0011 -0.0068 -0.0135 -0.0048
                                           -0.0190  0.0192  0.0088 -0.0000  0.0016
                                            0.0010 -0.0021  0.0024  0.0007 -0.0072
                                           -0.0006  0.0020  0.0006
     3. (1.99968) CR ( 1) O   1           s(100.00%)
                                            1.0000 -0.0004  0.0000 -0.0000  0.0000
                                           -0.0001  0.0000 -0.0000  0.0000  0.0001
                                           -0.0000  0.0000  0.0000 -0.0000  0.0000
                                           -0.0000  0.0000  0.0000 -0.0000  0.0000
                                            0.0000  0.0000 -0.0000  0.0000 -0.0000
                                           -0.0000 -0.0000  0.0000  0.0000  0.0000
                                            0.0000 -0.0000  0.0000 -0.0000  0.0000
                                            0.0000  0.0000  0.0000  0.0000  0.0000
                                            0.0000 -0.0000 -0.0000 -0.0000  0.0000
                                           -0.0000
     4. (2.00003) CR ( 1)Br   3           s(100.00%)
                                            1.0000 -0.0000 -0.0000 -0.0000 -0.0000
                                           -0.0000  0.0000  0.0000 -0.0000 -0.0000
                                           -0.0000 -0.0000  0.0000  0.0000 -0.0000
                                           -0.0000 -0.0000  0.0000  0.0000  0.0000
                                            0.0000 -0.0000 -0.0000  0.0000 -0.0000
                                            0.0000 -0.0000  0.0000 -0.0000  0.0000
                                           -0.0000  0.0000 -0.0000  0.0000 -0.0000
                                            0.0000 -0.0000 -0.0000  0.0000 -0.0000
                                           -0.0000  0.0000 -0.0000  0.0000 -0.0000
                                            0.0000  0.0000 -0.0000 -0.0000 -0.0000
                                           -0.0000  0.0000  0.0000 -0.0000 -0.0000
                                            0.0000  0.0000  0.0000  0.0000
     5. (2.00000) CR ( 2)Br   3           s(100.00%)
                                           -0.0000  1.0000 -0.0000 -0.0000 -0.0000
                                           -0.0000  0.0000  0.0000 -0.0000 -0.0000
                                           -0.0000 -0.0000  0.0000  0.0000 -0.0000
                                           -0.0000 -0.0000  0.0000  0.0000  0.0000
                                            0.0000 -0.0000 -0.0000 -0.0000 -0.0000
                                            0.0000 -0.0000  0.0000 -0.0000  0.0000
                                           -0.0000  0.0000 -0.0000  0.0000 -0.0000
                                            0.0000 -0.0000 -0.0000  0.0000 -0.0000
                                           -0.0000  0.0000 -0.0000  0.0000 -0.0000
                                            0.0000  0.0000 -0.0000  0.0000 -0.0000
                                           -0.0000  0.0000  0.0000 -0.0000 -0.0000
                                            0.0000  0.0000  0.0000  0.0000
     6. (2.00000) CR ( 3)Br   3           s(100.00%)
                                           -0.0000 -0.0000  1.0000 -0.0000 -0.0000
                                           -0.0000  0.0000  0.0000 -0.0000 -0.0000
                                           -0.0000 -0.0000  0.0000  0.0000 -0.0000
                                           -0.0000 -0.0000  0.0000  0.0000  0.0000
                                            0.0000 -0.0000 -0.0000 -0.0000 -0.0000
                                            0.0000 -0.0000  0.0000 -0.0000  0.0000
                                           -0.0000  0.0000 -0.0000  0.0000 -0.0000
                                            0.0000 -0.0000 -0.0000  0.0000 -0.0000
                                           -0.0000  0.0000 -0.0000  0.0000 -0.0000
                                            0.0000  0.0000 -0.0000  0.0000 -0.0000
                                           -0.0000  0.0000  0.0000 -0.0000 -0.0000
                                            0.0000  0.0000  0.0000  0.0000
     7. (2.00002) CR ( 4)Br   3           s(  0.00%)p 1.00(100.00%)
                                            0.0000  0.0000  0.0000 -0.0000 -0.0000
                                           -0.0000  0.0000  1.0000  0.0000 -0.0000
                                           -0.0000 -0.0000  0.0000 -0.0000  0.0000
                                            0.0000 -0.0000 -0.0000  0.0000  0.0000
                                           -0.0000  0.0000  0.0000  0.0000  0.0000
                                            0.0000 -0.0000  0.0000 -0.0000  0.0000
                                           -0.0000  0.0000 -0.0000 -0.0000  0.0000
                                           -0.0000  0.0000  0.0000 -0.0000  0.0000
                                           -0.0000 -0.0000  0.0000 -0.0000  0.0000
                                           -0.0000 -0.0000  0.0000  0.0000  0.0000
                                            0.0000 -0.0000 -0.0000 -0.0000 -0.0000
                                            0.0000 -0.0000 -0.0000 -0.0000
     8. (2.00000) CR ( 5)Br   3           s(  0.00%)p 1.00(100.00%)
                                           -0.0000 -0.0000 -0.0000  0.0000  0.0000
                                            0.0000 -0.0000  0.0000  1.0000  0.0000
                                           -0.0000  0.0000  0.0000  0.0000 -0.0000
                                           -0.0000  0.0000  0.0000 -0.0000  0.0000
                                            0.0000 -0.0000 -0.0000 -0.0000 -0.0000
                                           -0.0000  0.0000 -0.0000 -0.0000 -0.0000
                                            0.0000 -0.0000  0.0000  0.0000 -0.0000
                                            0.0000 -0.0000 -0.0000  0.0000 -0.0000
                                            0.0000  0.0000 -0.0000  0.0000 -0.0000
                                            0.0000  0.0000 -0.0000  0.0000 -0.0000
                                           -0.0000  0.0000  0.0000  0.0000  0.0000
                                            0.0000  0.0000  0.0000  0.0000
     9. (2.00002) CR ( 6)Br   3           s(  0.00%)p 1.00(100.00%)
                                            0.0000  0.0000  0.0000  0.0000  0.0000
                                            0.0000 -0.0000 -0.0000  0.0000  0.0000
                                            0.0000  0.0000 -0.0000  1.0000  0.0000
                                            0.0000  0.0000 -0.0000 -0.0000 -0.0000
                                           -0.0000  0.0000  0.0000 -0.0000  0.0000
                                           -0.0000  0.0000 -0.0000  0.0000 -0.0000
                                            0.0000 -0.0000  0.0000 -0.0000  0.0000
                                           -0.0000  0.0000  0.0000 -0.0000  0.0000
                                            0.0000 -0.0000  0.0000 -0.0000  0.0000
                                           -0.0000 -0.0000  0.0000 -0.0000  0.0000
                                            0.0000 -0.0000 -0.0000  0.0000  0.0000
                                           -0.0000 -0.0000 -0.0000 -0.0000
    10. (2.00000) CR ( 7)Br   3           s(  0.00%)p 1.00(100.00%)
                                           -0.0000 -0.0000 -0.0000 -0.0000 -0.0000
                                           -0.0000  0.0000  0.0000 -0.0000 -0.0000
                                           -0.0000 -0.0000  0.0000  0.0000  1.0000
                                           -0.0000 -0.0000  0.0000  0.0000  0.0000
                                            0.0000 -0.0000 -0.0000 -0.0000 -0.0000
                                            0.0000 -0.0000  0.0000 -0.0000  0.0000
                                           -0.0000  0.0000 -0.0000  0.0000 -0.0000
                                            0.0000 -0.0000 -0.0000  0.0000 -0.0000
                                           -0.0000 -0.0000 -0.0000  0.0000 -0.0000
                                            0.0000  0.0000  0.0000  0.0000 -0.0000
                                           -0.0000  0.0000  0.0000 -0.0000 -0.0000
                                            0.0000  0.0000  0.0000  0.0000
    11. (2.00002) CR ( 8)Br   3           s(  0.00%)p 1.00(100.00%)
                                            0.0000  0.0000  0.0000 -0.0000 -0.0000
                                           -0.0000  0.0000  0.0000  0.0000  0.0000
                                            0.0000  0.0000 -0.0000 -0.0000  0.0000
                                            0.0000 -0.0000 -0.0000 -0.0000  1.0000
                                            0.0000 -0.0000  0.0000  0.0000  0.0000
                                           -0.0000  0.0000 -0.0000  0.0000 -0.0000
                                            0.0000 -0.0000  0.0000 -0.0000  0.0000
                                           -0.0000  0.0000  0.0000 -0.0000  0.0000
                                            0.0000  0.0000 -0.0000  0.0000 -0.0000
                                           -0.0000 -0.0000 -0.0000 -0.0000 -0.0000
                                           -0.0000 -0.0000 -0.0000  0.0000  0.0000
                                           -0.0000 -0.0000 -0.0000 -0.0000
    12. (2.00000) CR ( 9)Br   3           s(  0.00%)p 1.00(100.00%)
                                            0.0000  0.0000  0.0000  0.0000  0.0000
                                            0.0000 -0.0000 -0.0000  0.0000  0.0000
                                            0.0000 -0.0000 -0.0000 -0.0000  0.0000
                                            0.0000  0.0000 -0.0000 -0.0000  0.0000
                                            1.0000  0.0000  0.0000 -0.0000  0.0000
                                           -0.0000  0.0000 -0.0000  0.0000 -0.0000
                                            0.0000 -0.0000  0.0000 -0.0000  0.0000
                                           -0.0000  0.0000  0.0000 -0.0000  0.0000
                                           -0.0000 -0.0000  0.0000 -0.0000  0.0000
                                           -0.0000 -0.0000  0.0000  0.0000  0.0000
                                            0.0000 -0.0000 -0.0000  0.0000  0.0000
                                           -0.0000 -0.0000 -0.0000 -0.0000
    13. (1.99769) CR (10)Br   3           s(  0.00%)p 0.00(  0.00%)d 1.00(100.00%)
                                            0.0000  0.0000  0.0000  0.0000  0.0000
                                            0.0000  0.0000  0.0000 -0.0000  0.0000
                                            0.0000  0.0000 -0.0000 -0.0000  0.0000
                                            0.0000  0.0000 -0.0000 -0.0000 -0.0000
                                           -0.0000  0.0000  0.0000 -0.0000  0.0000
                                            1.0000  0.0000 -0.0000  0.0000 -0.0000
                                            0.0000 -0.0000  0.0000 -0.0000  0.0000
                                           -0.0000  0.0000  0.0000 -0.0000  0.0000
                                            0.0000  0.0000 -0.0000  0.0000 -0.0000
                                           -0.0000 -0.0000 -0.0000 -0.0000 -0.0000
                                           -0.0000 -0.0000 -0.0000  0.0000  0.0000
                                           -0.0000 -0.0000 -0.0000 -0.0000
    14. (1.99769) CR (11)Br   3           s(  0.00%)p 0.00(  0.00%)d 1.00(100.00%)
                                            0.0000  0.0000  0.0000  0.0000  0.0000
                                            0.0000 -0.0000  0.0000 -0.0000  0.0000
                                            0.0000  0.0000 -0.0000 -0.0000  0.0000
                                            0.0000  0.0000  0.0000 -0.0000 -0.0000
                                           -0.0000  0.0000  0.0000 -0.0000  0.0000
                                           -0.0000  0.0000 -0.0000  0.0000  1.0000
                                            0.0000 -0.0000  0.0000 -0.0000  0.0000
                                           -0.0000 -0.0000 -0.0000  0.0000 -0.0000
                                            0.0000 -0.0000 -0.0000 -0.0000 -0.0000
                                           -0.0000 -0.0000  0.0000  0.0000  0.0000
                                            0.0000 -0.0000 -0.0000  0.0000  0.0000
                                           -0.0000 -0.0000  0.0000  0.0000
    15. (1.99769) CR (12)Br   3           s(  0.00%)p 0.00(  0.00%)d 1.00(100.00%)
                                            0.0000  0.0000  0.0000  0.0000  0.0000
                                            0.0000  0.0000 -0.0000  0.0000  0.0000
                                            0.0000  0.0000 -0.0000 -0.0000  0.0000
                                            0.0000  0.0000 -0.0000 -0.0000 -0.0000
                                           -0.0000  0.0000  0.0000 -0.0000  0.0000
                                           -0.0000  0.0000 -0.0000  0.0000 -0.0000
                                            0.0000 -0.0000  0.0000  1.0000  0.0000
                                           -0.0000  0.0000  0.0000 -0.0000  0.0000
                                            0.0000 -0.0000 -0.0000 -0.0000  0.0000
                                           -0.0000 -0.0000 -0.0000 -0.0000  0.0000
                                           -0.0000 -0.0000 -0.0000  0.0000  0.0000
                                           -0.0000 -0.0000 -0.0000 -0.0000
    16. (1.99768) CR (13)Br   3           s(  0.00%)p 0.00(  0.00%)d 1.00(100.00%)
                                           -0.0000 -0.0000 -0.0000  0.0000 -0.0000
                                            0.0000 -0.0000  0.0000 -0.0000  0.0000
                                           -0.0000  0.0000  0.0000  0.0000 -0.0000
                                           -0.0000  0.0000  0.0000 -0.0000  0.0000
                                            0.0000 -0.0000 -0.0000 -0.0000 -0.0000
                                            0.0000 -0.0000  0.0000 -0.0000 -0.0000
                                           -0.0000 -0.0000  0.0000  0.0000 -0.0000
                                            0.0000 -0.0000  1.0000  0.0000 -0.0000
                                           -0.0000 -0.0000  0.0000 -0.0000 -0.0000
                                            0.0000  0.0000  0.0000  0.0000  0.0000
                                            0.0000  0.0000  0.0000 -0.0000 -0.0000
                                            0.0000  0.0000  0.0000  0.0000
    17. (1.99769) CR (14)Br   3           s(  0.00%)p 0.00(  0.00%)d 1.00(100.00%)
                                            0.0000  0.0000  0.0000  0.0000  0.0000
                                            0.0000 -0.0000 -0.0000  0.0000 -0.0000
                                           -0.0000 -0.0000  0.0000 -0.0000 -0.0000
                                           -0.0000  0.0000  0.0000 -0.0000  0.0000
                                           -0.0000  0.0000 -0.0000 -0.0000  0.0000
                                            0.0000 -0.0000  0.0000 -0.0000 -0.0000
                                            0.0000 -0.0000  0.0000 -0.0000 -0.0000
                                            0.0000 -0.0000 -0.0000 -0.0000  0.0000
                                           -0.0000  1.0000  0.0000 -0.0000  0.0000
                                            0.0000  0.0000  0.0000  0.0000  0.0000
                                            0.0000  0.0000  0.0000 -0.0000 -0.0000
                                            0.0000  0.0000 -0.0000 -0.0000
    18. (1.97093) LP ( 1) O   1           s( 57.00%)p 0.75( 42.86%)d 0.00(  0.13%)
                                                  f 0.00(  0.00%)
                                            0.0003  0.7550  0.0022 -0.0023  0.0026
                                           -0.4222 -0.0026  0.0037 -0.0013  0.3371
                                            0.0085 -0.0035  0.0013 -0.3696 -0.0074
                                            0.0031  0.0008  0.0189 -0.0015 -0.0021
                                           -0.0272  0.0041  0.0008  0.0129 -0.0019
                                            0.0001 -0.0040  0.0015 -0.0029 -0.0029
                                            0.0007  0.0006  0.0031 -0.0014 -0.0004
                                            0.0001  0.0021 -0.0005 -0.0016  0.0013
                                            0.0026 -0.0004 -0.0009  0.0004  0.0034
                                           -0.0018
    19. (1.96095) LP ( 2) O   1           s(  0.14%)p99.99( 99.51%)d 2.23(  0.32%)
                                                  f 0.18(  0.03%)
                                            0.0000  0.0336 -0.0150 -0.0093 -0.0002
                                           -0.0042 -0.0007  0.0009 -0.0020 -0.7721
                                           -0.0238  0.0050 -0.0014 -0.6308 -0.0225
                                            0.0054 -0.0015 -0.0334  0.0102 -0.0049
                                           -0.0276  0.0080 -0.0039 -0.0148  0.0030
                                           -0.0015 -0.0106 -0.0009  0.0031 -0.0275
                                            0.0005  0.0044 -0.0013 -0.0008  0.0012
                                           -0.0005  0.0057 -0.0020 -0.0107  0.0037
                                           -0.0000  0.0003  0.0003  0.0007 -0.0086
                                            0.0044
    20. (1.98110) LP ( 1)Br   3           s( 99.91%)p 0.00(  0.09%)d 0.00(  0.00%)
                                                  f 0.00(  0.00%)
                                           -0.0000 -0.0000 -0.0000  0.9996 -0.0000
                                            0.0000 -0.0000  0.0000 -0.0000 -0.0038
                                            0.0004 -0.0000  0.0001 -0.0000 -0.0000
                                           -0.0285  0.0005 -0.0002 -0.0001  0.0000
                                           -0.0000 -0.0054  0.0009 -0.0001  0.0003
                                           -0.0000  0.0006 -0.0003  0.0001 -0.0000
                                            0.0003 -0.0001 -0.0000 -0.0000  0.0018
                                           -0.0007  0.0001 -0.0000 -0.0005  0.0001
                                            0.0002 -0.0000 -0.0003  0.0001 -0.0000
                                           -0.0004 -0.0003 -0.0000 -0.0000 -0.0000
                                           -0.0000 -0.0005 -0.0004  0.0002  0.0002
                                           -0.0002 -0.0002 -0.0001 -0.0001
    21. (1.95399) LP ( 2)Br   3           s(  0.00%)p 1.00( 99.99%)d 0.00(  0.00%)
                                                  f 0.00(  0.00%)
                                           -0.0000 -0.0000 -0.0000  0.0032 -0.0001
                                           -0.0003  0.0006  0.0000 -0.0000  0.8538
                                            0.0003  0.0006 -0.0002 -0.0000  0.0000
                                            0.0970 -0.0007  0.0001 -0.0004 -0.0000
                                            0.0000 -0.5114  0.0010  0.0000 -0.0000
                                           -0.0000  0.0026 -0.0010  0.0005 -0.0000
                                            0.0020 -0.0011  0.0011  0.0000 -0.0001
                                           -0.0003  0.0007 -0.0000  0.0027 -0.0014
                                            0.0016  0.0000 -0.0025  0.0015 -0.0017
                                           -0.0003 -0.0004 -0.0002 -0.0002 -0.0009
                                           -0.0009  0.0001 -0.0001  0.0010  0.0009
                                           -0.0003 -0.0003  0.0006  0.0006
    22. (1.95378) LP ( 3)Br   3           s(  0.01%)p99.99( 99.98%)d 0.22(  0.00%)
                                                  f 0.05(  0.00%)
                                           -0.0000 -0.0000 -0.0000  0.0093 -0.0023
                                           -0.0035  0.0045 -0.0000  0.0000 -0.4809
                                           -0.0001 -0.0003 -0.0000  0.0000  0.0000
                                            0.5232 -0.0030 -0.0004  0.0009 -0.0000
                                            0.0000 -0.7034  0.0018  0.0001 -0.0001
                                           -0.0000 -0.0009  0.0000  0.0003  0.0000
                                           -0.0026  0.0015 -0.0016 -0.0000  0.0017
                                           -0.0014  0.0020  0.0000 -0.0007  0.0005
                                            0.0000  0.0000 -0.0018  0.0011 -0.0009
                                           -0.0006 -0.0006 -0.0003 -0.0003 -0.0011
                                           -0.0010 -0.0010 -0.0011 -0.0007 -0.0007
                                           -0.0001 -0.0002 -0.0004 -0.0005
    23. (1.94743) LP ( 4)Br   3           s(  0.08%)p99.99( 99.91%)d 0.20(  0.02%)
                                                  f 0.02(  0.00%)
                                            0.0000  0.0000  0.0000  0.0275  0.0017
                                            0.0011 -0.0004 -0.0000  0.0000  0.1993
                                            0.0014  0.0002 -0.0005 -0.0000  0.0000
                                            0.8461  0.0012 -0.0004 -0.0005 -0.0000
                                           -0.0000  0.4935  0.0037  0.0000  0.0004
                                           -0.0000  0.0033 -0.0012  0.0008 -0.0000
                                            0.0028 -0.0010  0.0007 -0.0000  0.0102
                                           -0.0034  0.0022  0.0000 -0.0030  0.0006
                                            0.0006  0.0000  0.0003 -0.0003  0.0006
                                           -0.0015 -0.0013 -0.0000 -0.0001  0.0005
                                            0.0001 -0.0019 -0.0016  0.0009  0.0006
                                           -0.0007 -0.0006 -0.0004 -0.0005
    24. (0.02016) RY*( 1) O   1           s(  0.15%)p99.99( 96.84%)d19.12(  2.92%)
                                                  f 0.55(  0.08%)
                                            0.0000 -0.0009  0.0352  0.0169  0.0018
                                           -0.0001  0.0025 -0.0031  0.0044 -0.0331
                                            0.7645  0.0297 -0.0111 -0.0269  0.6169
                                            0.0192 -0.0070  0.1148 -0.0277  0.0113
                                            0.0883 -0.0217  0.0095  0.0418 -0.0091
                                            0.0045  0.0210 -0.0021 -0.0023  0.0666
                                           -0.0077 -0.0034 -0.0023  0.0007  0.0030
                                            0.0004 -0.0060  0.0061  0.0138 -0.0111
                                            0.0028 -0.0016  0.0032 -0.0015  0.0161
                                           -0.0123
    25. (0.01480) RY*( 2) O   1           s( 21.72%)p 3.41( 74.01%)d 0.19(  4.13%)
                                                  f 0.01(  0.15%)
                                           -0.0000 -0.0108  0.4640 -0.0415  0.0043
                                            0.0107 -0.5111 -0.0137 -0.0001 -0.0082
                                            0.4251  0.0102 -0.0111  0.0051 -0.5452
                                           -0.0132  0.0084  0.1023 -0.0057 -0.0048
                                           -0.1681  0.0176  0.0000  0.0348 -0.0125
                                           -0.0030 -0.0202  0.0084 -0.0073 -0.0160
                                           -0.0019  0.0047  0.0150 -0.0101 -0.0138
                                            0.0055 -0.0080  0.0017 -0.0179  0.0090
                                            0.0106 -0.0043  0.0090 -0.0021  0.0132
                                           -0.0084
    26. (0.00706) RY*( 3) O   1           s(  3.52%)p16.89( 59.55%)d10.26( 36.18%)
                                                  f 0.21(  0.74%)
                                            0.0000  0.0042  0.1847 -0.0305  0.0137
                                           -0.0552 -0.6010 -0.0198 -0.0152 -0.0193
                                           -0.2952 -0.0088 -0.0112  0.0199  0.3761
                                            0.0269 -0.0203 -0.3792 -0.0044 -0.0037
                                            0.1484 -0.0079  0.0081  0.2717  0.0335
                                           -0.0114  0.3431  0.0429 -0.0212  0.0138
                                           -0.0199  0.0137  0.0053 -0.0024 -0.0108
                                            0.0052  0.0250 -0.0055  0.0443 -0.0178
                                           -0.0219  0.0079  0.0193 -0.0078 -0.0529
                                            0.0234
    27. (0.00627) RY*( 4) O   1           s(  0.98%)p 5.17(  5.04%)d95.10( 92.79%)
                                                  f 1.23(  1.20%)
                                           -0.0000  0.0049  0.0985 -0.0046  0.0010
                                           -0.0200 -0.1635 -0.0138  0.0035 -0.0161
                                           -0.1301 -0.0175  0.0094  0.0051  0.0741
                                            0.0009  0.0005  0.4265  0.0451 -0.0141
                                            0.5459  0.0439 -0.0142  0.0048  0.0057
                                           -0.0016 -0.2777 -0.0204  0.0011 -0.6020
                                           -0.0584  0.0155 -0.0783  0.0318  0.0063
                                           -0.0022  0.0232 -0.0088  0.0240 -0.0085
                                           -0.0038  0.0006  0.0080 -0.0053  0.0540
                                           -0.0220
    28. (0.00620) RY*( 5) O   1           s( 11.98%)p 0.89( 10.61%)d 6.37( 76.33%)
                                                  f 0.09(  1.09%)
                                            0.0000  0.0124  0.3458  0.0051 -0.0014
                                            0.0140  0.2673  0.0201 -0.0067  0.0223
                                            0.1096  0.0090 -0.0130 -0.0318 -0.1420
                                           -0.0096 -0.0022 -0.5575 -0.0416  0.0206
                                            0.5467  0.0349 -0.0180  0.0163  0.0096
                                           -0.0053 -0.3321 -0.0402  0.0138  0.1925
                                            0.0170 -0.0052 -0.0140  0.0020  0.0513
                                           -0.0139 -0.0123  0.0110  0.0117  0.0002
                                           -0.0554  0.0223 -0.0510  0.0116 -0.0321
                                            0.0092
    29. (0.00591) RY*( 6) O   1           s(  0.10%)p29.19(  2.82%)d99.99( 96.15%)
                                                  f 9.70(  0.94%)
                                            0.0000 -0.0001  0.0305 -0.0060  0.0003
                                           -0.0024  0.0177  0.0009 -0.0035 -0.0300
                                           -0.0914 -0.0034 -0.0175 -0.0366 -0.1296
                                           -0.0099 -0.0068  0.4988  0.0623 -0.0183
                                            0.4498  0.0528 -0.0163  0.0936  0.0123
                                           -0.0033  0.3353  0.0333 -0.0029  0.6136
                                            0.0635 -0.0099  0.0265 -0.0130  0.0372
                                           -0.0133 -0.0409  0.0170  0.0554 -0.0217
                                            0.0071 -0.0022  0.0228 -0.0081  0.0268
                                           -0.0091
    30. (0.00566) RY*( 7) O   1           s(  5.68%)p 1.11(  6.31%)d15.37( 87.25%)
                                                  f 0.14(  0.77%)
                                           -0.0000  0.0222  0.2370  0.0060 -0.0075
                                            0.0372  0.1577  0.0141 -0.0032 -0.0355
                                           -0.1444 -0.0166 -0.0039  0.0250  0.1162
                                            0.0071  0.0031  0.1921  0.0192 -0.0031
                                           -0.2658 -0.0299  0.0094  0.7680  0.0956
                                           -0.0099 -0.3849 -0.0467  0.0036  0.1185
                                            0.0122 -0.0034  0.0371 -0.0148  0.0085
                                           -0.0029  0.0425 -0.0175  0.0030 -0.0030
                                            0.0483 -0.0179 -0.0268  0.0094  0.0194
                                           -0.0066
    31. (0.00282) RY*( 8) O   1           s(  5.68%)p 4.09( 23.23%)d12.32( 70.03%)
                                                  f 0.19(  1.06%)
                                            0.0000 -0.0028  0.2344  0.0428 -0.0062
                                            0.0293 -0.2638  0.0103 -0.0454  0.0182
                                           -0.2512 -0.0147 -0.0465 -0.0262  0.3034
                                            0.0332 -0.0028  0.1434  0.0425  0.0037
                                           -0.1622 -0.0460  0.0008 -0.5016 -0.0952
                                           -0.0316 -0.4912 -0.0638 -0.0620  0.3682
                                            0.0301  0.0465  0.0232 -0.0107  0.0183
                                           -0.0065 -0.0631  0.0407 -0.0440  0.0200
                                           -0.0017 -0.0060 -0.0313  0.0138  0.0191
                                           -0.0061
    32. (0.00223) RY*( 9) O   1           s( 48.44%)p 0.45( 21.86%)d 0.60( 28.89%)
                                                  f 0.02(  0.81%)
                                            0.0000 -0.0069  0.6934  0.0335 -0.0485
                                           -0.0117  0.4132  0.0548 -0.0021 -0.0058
                                           -0.1335 -0.0176 -0.0769 -0.0045  0.1410
                                            0.0242  0.0148  0.0994  0.0397 -0.0004
                                           -0.1425 -0.0693  0.0145 -0.1782 -0.0838
                                           -0.0152  0.3888  0.1183  0.0450 -0.1977
                                           -0.0815 -0.0140  0.0135 -0.0115 -0.0324
                                            0.0406 -0.0320  0.0310  0.0145 -0.0003
                                            0.0063  0.0007  0.0264 -0.0451 -0.0115
                                           -0.0006
    33. (0.00061) RY*(10) O   1           s( 37.62%)p 0.65( 24.52%)d 0.73( 27.35%)
                                                  f 0.28( 10.51%)
                                            0.0000 -0.0032 -0.0658  0.6045  0.0802
                                           -0.0042 -0.0350  0.1123 -0.0988 -0.0048
                                            0.0057  0.0813 -0.2642 -0.0069 -0.0735
                                            0.3729 -0.0255  0.0080 -0.1513  0.0251
                                            0.0338 -0.1205  0.0498  0.0545 -0.0476
                                            0.1432  0.0117 -0.1479 -0.0756 -0.0051
                                           -0.4222 -0.0074  0.2095 -0.0534  0.0051
                                            0.0066 -0.2038  0.0148  0.0950 -0.0543
                                           -0.0544  0.0257 -0.0259  0.0094 -0.0112
                                           -0.0053
    34. (0.00057) RY*(11) O   1           s( 11.54%)p 1.22( 14.07%)d 5.15( 59.36%)
                                                  f 1.30( 15.04%)
                                            0.0000 -0.0022 -0.0156  0.3363  0.0451
                                            0.0015 -0.0046  0.0130 -0.0281  0.0062
                                            0.0478 -0.3530 -0.0851  0.0061  0.0187
                                           -0.0658  0.0280 -0.0365  0.5497  0.0160
                                           -0.0123  0.4851  0.0303  0.0132  0.0098
                                            0.0515 -0.0155  0.1701 -0.0370 -0.0365
                                            0.1364 -0.0083  0.2219 -0.0348 -0.1041
                                            0.0019  0.0177 -0.0122 -0.1830  0.0140
                                           -0.0541  0.0045 -0.0732 -0.0058 -0.2142
                                            0.0263
    35. (0.00057) RY*(12) O   1           s(  6.52%)p 6.89( 44.94%)d 5.57( 36.32%)
                                                  f 1.88( 12.23%)
                                           -0.0000  0.0032  0.0105  0.2550 -0.0089
                                            0.0017  0.0011 -0.4295  0.0551 -0.0150
                                           -0.0193 -0.4208 -0.0596 -0.0064  0.0101
                                           -0.2835  0.0086 -0.0044 -0.5040 -0.0209
                                            0.0066  0.0294 -0.0135  0.0165 -0.1392
                                            0.0255 -0.0291  0.2465 -0.0378 -0.0071
                                            0.1557  0.0012  0.1322 -0.0133 -0.0510
                                            0.0086 -0.0650 -0.0020  0.0907 -0.0074
                                            0.0248 -0.0074  0.1160 -0.0137  0.2717
                                           -0.0361
    36. (0.00052) RY*(13) O   1           s(  0.57%)p99.99( 62.03%)d46.18( 26.30%)
                                                  f19.49( 11.10%)
                                            0.0000 -0.0059 -0.0326  0.0405  0.0544
                                           -0.0052 -0.0347  0.5069 -0.0516 -0.0018
                                            0.0376 -0.5496 -0.1341 -0.0083 -0.0235
                                           -0.1833 -0.0616 -0.0069  0.0679 -0.0149
                                            0.0012 -0.4239 -0.0382 -0.0150  0.2426
                                            0.0322  0.0140 -0.0206 -0.0013 -0.0139
                                            0.1240  0.0249 -0.2174  0.0067  0.1064
                                           -0.0003 -0.1044 -0.0067  0.1678 -0.0072
                                           -0.0764  0.0088 -0.0778  0.0006  0.0355
                                            0.0041
    37. (0.00046) RY*(14) O   1           s(  0.69%)p39.08( 26.85%)d10.10(  6.94%)
                                                  f95.38( 65.53%)
                                           -0.0000  0.0048 -0.0100  0.0794 -0.0212
                                            0.0023  0.0036 -0.2866 -0.0200  0.0028
                                            0.0063  0.0996 -0.0534 -0.0065 -0.0065
                                           -0.4024 -0.1052  0.0167  0.1261  0.0393
                                           -0.0142 -0.1151 -0.0152  0.0289 -0.0916
                                            0.0285 -0.0365 -0.0456 -0.0402  0.0064
                                           -0.1463 -0.0388 -0.2730 -0.0231  0.0162
                                           -0.0015 -0.3539 -0.0472  0.2329 -0.0057
                                            0.1799  0.0135  0.1354  0.0181 -0.5883
                                           -0.0296
    38. (0.00044) RY*(15) O   1           s(  0.71%)p 1.09(  0.78%)d 3.52(  2.50%)
                                                  f99.99( 96.01%)
                                            0.0000  0.0007 -0.0044  0.0786  0.0302
                                            0.0013 -0.0043 -0.0358 -0.0169 -0.0022
                                           -0.0053  0.0419 -0.0358 -0.0042 -0.0123
                                           -0.0441 -0.0316  0.0161 -0.0673 -0.0172
                                            0.0370 -0.0964  0.0131  0.0160 -0.0706
                                            0.0105  0.0210  0.0117  0.0046  0.0405
                                            0.0036  0.0382 -0.2725 -0.0324 -0.7139
                                           -0.0750  0.0788  0.0176 -0.0778 -0.0283
                                            0.0962  0.0164 -0.5852 -0.0649  0.0051
                                           -0.0003
    39. (0.00044) RY*(16) O   1           s(  0.27%)p81.47( 22.06%)d99.99( 32.83%)
                                                  f99.99( 44.84%)
                                            0.0000 -0.0005  0.0108  0.0384 -0.0334
                                            0.0023  0.0059 -0.1144  0.0360  0.0022
                                            0.0052  0.1514  0.1421 -0.0034 -0.0063
                                            0.3764  0.1457 -0.0086  0.0931  0.0142
                                           -0.0332 -0.0205 -0.0434 -0.0334  0.2551
                                            0.0194 -0.0499  0.2433  0.0121 -0.0521
                                            0.4273  0.0477  0.0478  0.0170 -0.1437
                                           -0.0058 -0.3112 -0.0345  0.5544  0.0484
                                           -0.1192 -0.0221 -0.0480 -0.0036 -0.0155
                                           -0.0131
    40. (0.00043) RY*(17) O   1           s(  0.12%)p43.36(  5.15%)d68.40(  8.12%)
                                                  f99.99( 86.62%)
                                           -0.0000  0.0010 -0.0101 -0.0044  0.0326
                                           -0.0049 -0.0041  0.1108 -0.0345 -0.0045
                                           -0.0178  0.1492  0.0157  0.0040  0.0118
                                           -0.1223 -0.0037  0.0485 -0.1211  0.0228
                                           -0.0317  0.0606 -0.0157  0.0827 -0.1725
                                            0.0263 -0.0145  0.1366  0.0237  0.0014
                                            0.0436  0.0108 -0.1929 -0.0340 -0.0625
                                           -0.0137 -0.2826 -0.0439 -0.2567 -0.0331
                                           -0.8117 -0.0938  0.0720  0.0113 -0.0421
                                           -0.0170
    41. (0.00043) RY*(18) O   1           s(  2.57%)p17.85( 45.81%)d 6.29( 16.14%)
                                                  f13.83( 35.48%)
[...]
                                                  f 1.89(  0.83%)
   126. (0.00004) RY*(40)Br   3           s(  0.53%)p99.99( 98.55%)d 1.02(  0.54%)
                                                  f 0.71(  0.38%)
   127. (0.00004) RY*(41)Br   3           s(  0.44%)p99.99( 98.66%)d 1.42(  0.62%)
                                                  f 0.63(  0.28%)
   128. (0.00510) RY*( 1) H   4           s( 12.14%)p 7.07( 85.84%)d 0.17(  2.03%)
                                           -0.0142  0.3398 -0.0713 -0.0251  0.1254
                                           -0.0278  0.0072  0.9039 -0.0233  0.0137
                                            0.1530  0.0228 -0.0106  0.0032  0.0037
                                            0.0070 -0.0100 -0.1062 -0.0169  0.0684
                                           -0.0469  0.0077 -0.0397
   129. (0.00404) RY*( 2) H   4           s( 39.00%)p 1.53( 59.51%)d 0.04(  1.49%)
                                            0.0139  0.6175 -0.0833  0.0397 -0.3363
                                            0.0015 -0.0191 -0.0758 -0.0427 -0.0206
                                           -0.6795 -0.1072 -0.0189 -0.0580  0.0116
                                           -0.0149  0.0122 -0.0327 -0.0042 -0.0023
                                            0.0257  0.0946  0.0190
   130. (0.00307) RY*( 3) H   4           s( 23.69%)p 3.14( 74.37%)d 0.08(  1.94%)
                                           -0.0197  0.4694  0.1114 -0.0609  0.8049
                                            0.0025  0.0098 -0.2986 -0.0326 -0.0049
                                            0.0533 -0.0307 -0.0411 -0.0323  0.0161
                                           -0.0455  0.0022 -0.0015 -0.0193  0.1211
                                            0.0100 -0.0233  0.0191
   131. (0.00135) RY*( 4) H   4           s( 34.14%)p 1.83( 62.52%)d 0.10(  3.35%)
                                           -0.0078  0.4800  0.3273  0.0619 -0.4019
                                           -0.0201  0.0146 -0.1727  0.2715 -0.0119
                                            0.5719  0.1027 -0.1475  0.0702 -0.0305
                                            0.0730 -0.0109  0.1271 -0.0422 -0.0544
                                            0.0132 -0.0259  0.0205
   132. (0.00052) RY*( 5) H   4           s( 21.89%)p 2.93( 64.22%)d 0.63( 13.89%)
                                            0.0077 -0.1435  0.4376  0.0824  0.1642
                                            0.2508 -0.0240  0.1775  0.3612 -0.0283
                                           -0.3733  0.4431 -0.2308  0.0737 -0.0006
                                            0.0735 -0.0683  0.3084 -0.0810 -0.1126
                                            0.0182  0.0923  0.0166
   133. (0.00037) RY*( 6) H   4           s(  3.04%)p28.44( 86.36%)d 3.49( 10.61%)
                                           -0.0013 -0.0338  0.0107  0.1706  0.0946
                                           -0.8694  0.1360  0.0274  0.2483 -0.0271
                                           -0.0935  0.0621  0.0671 -0.1268 -0.0998
                                           -0.0455  0.0994  0.0902 -0.0389 -0.2387
                                           -0.0291  0.0238 -0.0074
   134. (0.00026) RY*( 7) H   4           s( 13.86%)p 3.79( 52.45%)d 2.43( 33.69%)
                                           -0.0017 -0.0185 -0.2328  0.2899  0.0076
                                            0.0739 -0.1926 -0.0506  0.3406 -0.5632
                                            0.0590  0.2055  0.0208 -0.2466 -0.0179
                                           -0.0680  0.0750 -0.2727  0.1124  0.3361
                                            0.1477  0.1672 -0.1258
   135. (0.00021) RY*( 8) H   4           s(  8.30%)p 3.52( 29.26%)d 7.52( 62.44%)
                                           -0.0054  0.0472 -0.1936  0.2081  0.0808
                                            0.2890  0.0716 -0.0185  0.3439  0.2282
                                            0.0575 -0.1267  0.0858 -0.2866  0.1748
                                           -0.2282 -0.2273 -0.2054  0.0071 -0.5895
                                           -0.0832 -0.0379 -0.0995
   136. (0.00017) RY*( 9) H   4           s(  3.63%)p 6.25( 22.72%)d20.27( 73.65%)
                                            0.0065 -0.0095  0.1687 -0.0879 -0.0642
                                           -0.0001 -0.1055  0.0544 -0.3912 -0.1524
                                            0.0714  0.0639 -0.1534 -0.6903 -0.1235
                                           -0.3296 -0.1514  0.2861  0.0603 -0.0729
                                            0.0671 -0.0002  0.1336
   137. (0.00014) RY*(10) H   4           s(  6.62%)p 6.06( 40.10%)d 8.05( 53.28%)
                                           -0.0031 -0.0145  0.0764  0.2452  0.0895
                                            0.0378  0.0153  0.0811 -0.1315 -0.4674
                                            0.0209 -0.3691 -0.1110  0.2491  0.0247
                                            0.1857 -0.0466  0.0374  0.2383 -0.3865
                                            0.2789  0.0402  0.3827
   138. (0.00013) RY*(11) H   4           s(  9.12%)p 4.75( 43.34%)d 5.21( 47.54%)
                                           -0.0154 -0.1370  0.2522 -0.0928 -0.0228
                                           -0.0664 -0.0585  0.0371  0.2264  0.0988
                                           -0.0838 -0.3661 -0.4707 -0.0516 -0.2088
                                           -0.1925 -0.0261 -0.4648 -0.2711  0.1721
                                            0.1078 -0.1604  0.1870
   139. (0.00009) RY*(12) H   4           s( 12.66%)p 3.13( 39.67%)d 3.77( 47.68%)
   140. (0.00009) RY*(13) H   4           s( 20.83%)p 2.07( 43.08%)d 1.73( 36.08%)
   141. (0.00007) RY*(14) H   4           s(  0.79%)p23.03( 18.23%)d99.99( 80.98%)
   142. (0.00008) RY*(15) H   4           s( 20.16%)p 0.98( 19.84%)d 2.98( 60.00%)
   143. (0.00007) RY*(16) H   4           s(  2.14%)p10.24( 21.96%)d35.40( 75.90%)
   144. (0.00005) RY*(17) H   4           s( 33.75%)p 0.60( 20.37%)d 1.36( 45.88%)
   145. (0.00004) RY*(18) H   4           s(  0.07%)p85.78(  6.13%)d99.99( 93.80%)
   146. (0.00003) RY*(19) H   4           s(  7.47%)p 4.06( 30.32%)d 8.32( 62.21%)
   147. (0.00003) RY*(20) H   4           s( 24.58%)p 0.72( 17.63%)d 2.35( 57.78%)
   148. (0.00004) RY*(21) H   4           s(  2.10%)p13.09( 27.43%)d33.62( 70.47%)
   149. (0.00001) RY*(22) H   4           s(  0.17%)p99.99( 34.53%)d99.99( 65.30%)
   150. (0.02152) BD*( 1) O   1 - H   2  
                ( 27.09%)   0.5205* O   1 s( 20.52%)p 3.85( 79.00%)d 0.02(  0.47%)
                                                  f 0.00(  0.01%)
                                           -0.0002 -0.4530  0.0044 -0.0044  0.0048
                                           -0.8856  0.0302 -0.0080  0.0001 -0.0504
                                            0.0095 -0.0006  0.0019  0.0434 -0.0140
                                            0.0012 -0.0016  0.0095  0.0006 -0.0022
                                           -0.0206  0.0031  0.0002  0.0061 -0.0001
                                           -0.0015 -0.0561  0.0031 -0.0023  0.0307
                                           -0.0016  0.0015  0.0000 -0.0004  0.0037
                                            0.0021  0.0004 -0.0003  0.0003  0.0002
                                            0.0061 -0.0017 -0.0076 -0.0017 -0.0008
                                            0.0001
                ( 72.91%)  -0.8538* H   2 s( 99.90%)p 0.00(  0.09%)d 0.00(  0.01%)
                                           -0.9995 -0.0036  0.0001 -0.0002  0.0035
                                           -0.0296  0.0039 -0.0035 -0.0016  0.0004
                                           -0.0002 -0.0018  0.0003 -0.0031  0.0016
                                           -0.0010 -0.0011  0.0027  0.0007 -0.0080
                                            0.0012  0.0029 -0.0009
   151. (0.02535) BD*( 1) O   1 - H   4  
                ( 24.76%)   0.4976* O   1 s( 22.27%)p 3.47( 77.23%)d 0.02(  0.48%)
                                                  f 0.00(  0.02%)
                                            0.0002  0.4719  0.0012  0.0019 -0.0014
                                           -0.1756  0.0185  0.0006 -0.0025 -0.5313
                                            0.0137 -0.0053  0.0004  0.6770 -0.0140
                                            0.0078 -0.0050 -0.0097  0.0041 -0.0019
                                            0.0107 -0.0047  0.0020 -0.0580  0.0022
                                            0.0019 -0.0165  0.0009 -0.0010  0.0304
                                           -0.0029  0.0013 -0.0050  0.0019 -0.0008
                                           -0.0008 -0.0090 -0.0011 -0.0015 -0.0029
                                            0.0024  0.0007  0.0001  0.0009 -0.0039
                                            0.0027
                ( 75.24%)  -0.8674* H   4 s( 99.85%)p 0.00(  0.14%)d 0.00(  0.01%)
                                            0.9992  0.0075  0.0002  0.0001  0.0196
                                           -0.0018 -0.0011  0.0068  0.0135  0.0048
                                            0.0190 -0.0192 -0.0088  0.0000 -0.0016
                                           -0.0010  0.0021 -0.0024 -0.0007  0.0072
                                            0.0006 -0.0020 -0.0006


 NHO Directionality and "Bond Bending" (deviations from line of nuclear centers)

         [Thresholds for printing:  angular deviation  >  1.0 degree]
                                    hybrid p-character > 25.0%
                                    orbital occupancy  >  0.10e

                                Line of Centers        Hybrid 1              Hybrid 2
                                ---------------  -------------------   ------------------
                NBO               Theta   Phi    Theta   Phi    Dev    Theta   Phi    Dev
 ========================================================================================
     1. BD (   1) O   1 - H   2    90.0    0.0    91.9    2.6   3.3      --     --    --
     2. BD (   1) O   1 - H   4    40.0  258.3    39.4  253.1   3.4      --     --    --
    18. LP (   1) O   1             --     --    124.4  140.9   --       --     --    --
    19. LP (   2) O   1             --     --    129.3  269.6   --       --     --    --
    21. LP (   2)Br   3             --     --    120.7    6.4   --       --     --    --
    22. LP (   3)Br   3             --     --    134.7  132.8   --       --     --    --
    23. LP (   4)Br   3             --     --     60.2   76.7   --       --     --    --


 Natural Bond Orbitals (Summary):

           NBO                  Occupancy  
 -----------------------------------------------
 Molecular unit  1  (H2O)
     1. BD (   1) O   1 - H   2          1.96636
     2. BD (   1) O   1 - H   4          1.96697
     3. CR (   1) O   1                  1.99968
    18. LP (   1) O   1                  1.97093
    19. LP (   2) O   1                  1.96095
    24. RY*(   1) O   1                  0.02016
    25. RY*(   2) O   1                  0.01480
    26. RY*(   3) O   1                  0.00706
    27. RY*(   4) O   1                  0.00627
    28. RY*(   5) O   1                  0.00620
    29. RY*(   6) O   1                  0.00591
    30. RY*(   7) O   1                  0.00566
    31. RY*(   8) O   1                  0.00282
    32. RY*(   9) O   1                  0.00223
    33. RY*(  10) O   1                  0.00061
    34. RY*(  11) O   1                  0.00057
    35. RY*(  12) O   1                  0.00057
    36. RY*(  13) O   1                  0.00052
    37. RY*(  14) O   1                  0.00046
    38. RY*(  15) O   1                  0.00044
    39. RY*(  16) O   1                  0.00044
    40. RY*(  17) O   1                  0.00043
    41. RY*(  18) O   1                  0.00043
    42. RY*(  19) O   1                  0.00041
    43. RY*(  20) O   1                  0.00041
    44. RY*(  21) O   1                  0.00037
    45. RY*(  22) O   1                  0.00034
    46. RY*(  23) O   1                  0.00031
    47. RY*(  24) O   1                  0.00029
    48. RY*(  25) O   1                  0.00018
    49. RY*(  26) O   1                  0.00015
    50. RY*(  27) O   1                  0.00010
    51. RY*(  28) O   1                  0.00008
    52. RY*(  29) O   1                  0.00007
    53. RY*(  30) O   1                  0.00008
    54. RY*(  31) O   1                  0.00007
    55. RY*(  32) O   1                  0.00008
    56. RY*(  33) O   1                  0.00006
    57. RY*(  34) O   1                  0.00007
    58. RY*(  35) O   1                  0.00005
    59. RY*(  36) O   1                  0.00005
    60. RY*(  37) O   1                  0.00004
    61. RY*(  38) O   1                  0.00003
    62. RY*(  39) O   1                  0.00002
    63. RY*(  40) O   1                  0.00000
    64. RY*(  41) O   1                  0.00000
    65. RY*(   1) H   2                  0.00200
    66. RY*(   2) H   2                  0.00157
    67. RY*(   3) H   2                  0.00080
    68. RY*(   4) H   2                  0.00046
    69. RY*(   5) H   2                  0.00028
    70. RY*(   6) H   2                  0.00017
    71. RY*(   7) H   2                  0.00012
    72. RY*(   8) H   2                  0.00011
    73. RY*(   9) H   2                  0.00010
    74. RY*(  10) H   2                  0.00009
    75. RY*(  11) H   2                  0.00009
    76. RY*(  12) H   2                  0.00006
    77. RY*(  13) H   2                  0.00006
    78. RY*(  14) H   2                  0.00003
    79. RY*(  15) H   2                  0.00004
    80. RY*(  16) H   2                  0.00003
    81. RY*(  17) H   2                  0.00004
    82. RY*(  18) H   2                  0.00003
    83. RY*(  19) H   2                  0.00002
    84. RY*(  20) H   2                  0.00001
    85. RY*(  21) H   2                  0.00001
    86. RY*(  22) H   2                  0.00001
   128. RY*(   1) H   4                  0.00510
   129. RY*(   2) H   4                  0.00404
   130. RY*(   3) H   4                  0.00307
   131. RY*(   4) H   4                  0.00135
   132. RY*(   5) H   4                  0.00052
   133. RY*(   6) H   4                  0.00037
   134. RY*(   7) H   4                  0.00026
   135. RY*(   8) H   4                  0.00021
   136. RY*(   9) H   4                  0.00017
   137. RY*(  10) H   4                  0.00014
   138. RY*(  11) H   4                  0.00013
   139. RY*(  12) H   4                  0.00009
   140. RY*(  13) H   4                  0.00009
   141. RY*(  14) H   4                  0.00007
   142. RY*(  15) H   4                  0.00008
   143. RY*(  16) H   4                  0.00007
   144. RY*(  17) H   4                  0.00005
   145. RY*(  18) H   4                  0.00004
   146. RY*(  19) H   4                  0.00003
   147. RY*(  20) H   4                  0.00003
   148. RY*(  21) H   4                  0.00004
   149. RY*(  22) H   4                  0.00001
   150. BD*(   1) O   1 - H   2          0.02152
   151. BD*(   1) O   1 - H   4          0.02535
       -------------------------------
              Total Lewis    9.86489  ( 98.5237%)
        Valence non-Lewis    0.04687  (  0.4681%)
        Rydberg non-Lewis    0.10095  (  1.0082%)
       -------------------------------
            Total unit  1   10.01271  (100.0000%)
           Charge unit  1   -0.01271

 Molecular unit  2  (Br)
     4. CR (   1)Br   3                  2.00003
     5. CR (   2)Br   3                  2.00000
     6. CR (   3)Br   3                  2.00000
     7. CR (   4)Br   3                  2.00002
     8. CR (   5)Br   3                  2.00000
     9. CR (   6)Br   3                  2.00002
    10. CR (   7)Br   3                  2.00000
    11. CR (   8)Br   3                  2.00002
    12. CR (   9)Br   3                  2.00000
    13. CR (  10)Br   3                  1.99769
    14. CR (  11)Br   3                  1.99769
    15. CR (  12)Br   3                  1.99769
    16. CR (  13)Br   3                  1.99768
    17. CR (  14)Br   3                  1.99769
    20. LP (   1)Br   3                  1.98110
    21. LP (   2)Br   3                  1.95399
    22. LP (   3)Br   3                  1.95378
    23. LP (   4)Br   3                  1.94743
    87. RY*(   1)Br   3                  0.01887
    88. RY*(   2)Br   3                  0.01886
    89. RY*(   3)Br   3                  0.01874
    90. RY*(   4)Br   3                  0.01875
    91. RY*(   5)Br   3                  0.01870
    92. RY*(   6)Br   3                  0.01253
    93. RY*(   7)Br   3                  0.01240
    94. RY*(   8)Br   3                  0.01168
    95. RY*(   9)Br   3                  0.00488
    96. RY*(  10)Br   3                  0.00182
    97. RY*(  11)Br   3                  0.00182
    98. RY*(  12)Br   3                  0.00178
    99. RY*(  13)Br   3                  0.00178
   100. RY*(  14)Br   3                  0.00179
   101. RY*(  15)Br   3                  0.00178
   102. RY*(  16)Br   3                  0.00177
   103. RY*(  17)Br   3                  0.00176
   104. RY*(  18)Br   3                  0.00176
   105. RY*(  19)Br   3                  0.00167
   106. RY*(  20)Br   3                  0.00163
   107. RY*(  21)Br   3                  0.00153
   108. RY*(  22)Br   3                  0.00085
   109. RY*(  23)Br   3                  0.00084
   110. RY*(  24)Br   3                  0.00082
   111. RY*(  25)Br   3                  0.00063
   112. RY*(  26)Br   3                  0.00025
   113. RY*(  27)Br   3                  0.00025
   114. RY*(  28)Br   3                  0.00025
   115. RY*(  29)Br   3                  0.00025
   116. RY*(  30)Br   3                  0.00026
   117. RY*(  31)Br   3                  0.00026
   118. RY*(  32)Br   3                  0.00025
   119. RY*(  33)Br   3                  0.00022
   120. RY*(  34)Br   3                  0.00022
   121. RY*(  35)Br   3                  0.00023
   122. RY*(  36)Br   3                  0.00019
   123. RY*(  37)Br   3                  0.00017
   124. RY*(  38)Br   3                  0.00011
   125. RY*(  39)Br   3                  0.00005
   126. RY*(  40)Br   3                  0.00004
   127. RY*(  41)Br   3                  0.00004
       -------------------------------
              Total Lewis   35.82482  ( 99.5485%)
        Valence non-Lewis    0.00000  (  0.0000%)
        Rydberg non-Lewis    0.16247  (  0.4515%)
       -------------------------------
            Total unit  2   35.98729  (100.0000%)
           Charge unit  2   -0.98729
 Leave Link  607 at Tue Oct 19 16:42:16 2021, MaxMem= 16106127360 cpu:              68.6 elap:               2.5
 (Enter /sw/contrib/gaussian/g16/B01/g16/l9999.exe)
 1\1\GINC-N2098\SP\RMP2-FC\Aug-CC-pVTZ\Br1H2O1(1-)\CGAVINH\19-Oct-2021\
 0\\#p pop=NBO SP NoSymm mp2/aug-cc-pvtz density=current\\title\\-1,1\O
 \X,1,10.\H,1,0.96078759,2,90.\Br,1,3.25661955,2,90.,3,101.73887131,0\H
 ,1,0.96974,2,40.,3,101.73887131,0\\Version=ES64L-G16RevB.01\HF=-2648.5
 932098\MP2=-2649.1090412\RMSD=7.010e-09\Dipole=0.6942483,0.6901349,0.3
 213316\Quadrupole=11.6737145,-23.9706366,12.2969222,-6.9904429,-0.1625
 816,-0.2276901\PG=C01 [X(Br1H2O1)]\\@


 THE DIFFERENCE BETWEEN A NOOSE AND A HALO IS ONLY 12 INCHES.
 Job cpu time:       0 days  0 hours  4 minutes 43.6 seconds.
 Elapsed time:       0 days  0 hours  0 minutes 12.8 seconds.
 File lengths (MBytes):  RWF=     11 Int=      0 D2E=      0 Chk=      8 Scr=      1
 Normal termination of Gaussian 16 at Tue Oct 19 16:42:17 2021.
