 Entering Gaussian System, Link 0=g16
 Input=brhod_oop_30_sp.gjf
 Output=brhod_oop_30_sp.log
 Initial command:
 /sw/contrib/gaussian/g16/B01/g16/l1.exe "/scr/Gau-25181.inp" -scrdir="/scr/"
 Entering Link 1 = /sw/contrib/gaussian/g16/B01/g16/l1.exe PID=     25182.
  
 Copyright (c) 1988-2017, Gaussian, Inc.  All Rights Reserved.
  
 This is part of the Gaussian(R) 16 program.  It is based on
 the Gaussian(R) 09 system (copyright 2009, Gaussian, Inc.),
 the Gaussian(R) 03 system (copyright 2003, Gaussian, Inc.),
 the Gaussian(R) 98 system (copyright 1998, Gaussian, Inc.),
 the Gaussian(R) 94 system (copyright 1995, Gaussian, Inc.),
 the Gaussian 92(TM) system (copyright 1992, Gaussian, Inc.),
 the Gaussian 90(TM) system (copyright 1990, Gaussian, Inc.),
 the Gaussian 88(TM) system (copyright 1988, Gaussian, Inc.),
 the Gaussian 86(TM) system (copyright 1986, Carnegie Mellon
 University), and the Gaussian 82(TM) system (copyright 1983,
 Carnegie Mellon University). Gaussian is a federally registered
 trademark of Gaussian, Inc.
  
 This software contains proprietary and confidential information,
 including trade secrets, belonging to Gaussian, Inc.
  
 This software is provided under written license and may be
 used, copied, transmitted, or stored only in accord with that
 written license.
  
 The following legend is applicable only to US Government
 contracts under FAR:
  
                    RESTRICTED RIGHTS LEGEND
  
 Use, reproduction and disclosure by the US Government is
 subject to restrictions as set forth in subparagraphs (a)
 and (c) of the Commercial Computer Software - Restricted
 Rights clause in FAR 52.227-19.
  
 Gaussian, Inc.
 340 Quinnipiac St., Bldg. 40, Wallingford CT 06492
  
  
 ---------------------------------------------------------------
 Warning -- This program may not be used in any manner that
 competes with the business of Gaussian, Inc. or will provide
 assistance to any competitor of Gaussian, Inc.  The licensee
 of this program is prohibited from giving any competitor of
 Gaussian, Inc. access to this program.  By using this program,
 the user acknowledges that Gaussian, Inc. is engaged in the
 business of creating and licensing software in the field of
 computational chemistry and represents and warrants to the
 licensee that it is not a competitor of Gaussian, Inc. and that
 it will not use this program in any manner prohibited above.
 ---------------------------------------------------------------
  

 Cite this work as:
 Gaussian 16, Revision B.01,
 M. J. Frisch, G. W. Trucks, H. B. Schlegel, G. E. Scuseria, 
 M. A. Robb, J. R. Cheeseman, G. Scalmani, V. Barone, 
 G. A. Petersson, H. Nakatsuji, X. Li, M. Caricato, A. V. Marenich, 
 J. Bloino, B. G. Janesko, R. Gomperts, B. Mennucci, H. P. Hratchian, 
 J. V. Ortiz, A. F. Izmaylov, J. L. Sonnenberg, D. Williams-Young, 
 F. Ding, F. Lipparini, F. Egidi, J. Goings, B. Peng, A. Petrone, 
 T. Henderson, D. Ranasinghe, V. G. Zakrzewski, J. Gao, N. Rega, 
 G. Zheng, W. Liang, M. Hada, M. Ehara, K. Toyota, R. Fukuda, 
 J. Hasegawa, M. Ishida, T. Nakajima, Y. Honda, O. Kitao, H. Nakai, 
 T. Vreven, K. Throssell, J. A. Montgomery, Jr., J. E. Peralta, 
 F. Ogliaro, M. J. Bearpark, J. J. Heyd, E. N. Brothers, K. N. Kudin, 
 V. N. Staroverov, T. A. Keith, R. Kobayashi, J. Normand, 
 K. Raghavachari, A. P. Rendell, J. C. Burant, S. S. Iyengar, 
 J. Tomasi, M. Cossi, J. M. Millam, M. Klene, C. Adamo, R. Cammi, 
 J. W. Ochterski, R. L. Martin, K. Morokuma, O. Farkas, 
 J. B. Foresman, and D. J. Fox, Gaussian, Inc., Wallingford CT, 2016.
 
 ******************************************
 Gaussian 16:  ES64L-G16RevB.01 20-Dec-2017
                19-Oct-2021 
 ******************************************
 %nproc=28
 Will use up to   28 processors via shared memory.
 %mem=120GB
 %chk=/gscratch/ilahie/mccoygrp/coire_hocl/oop_s_rOH_opt/brhod/brhod_oop_30_sp.ch
 k
 ----------------------------------------------------
 #p pop=NBO SP NoSymm mp2/aug-cc-pvtz density=current
 ----------------------------------------------------
 1/30=1,38=1,172=1/1;
 2/12=2,15=1,17=6,18=5,40=1/2;
 3/5=16,6=1,7=10,11=9,25=1,30=1,71=1/1,2,3;
 4//1;
 5/5=2,38=5/2;
 8/6=4,10=1/1;
 9/15=1,16=-3/6;
 10/5=1,13=10,31=1/2;
 6/7=2,8=2,9=2,10=2,22=-1,40=1/1,7;
 99/5=1,9=1/99;
 Leave Link    1 at Tue Oct 19 16:41:11 2021, MaxMem= 16106127360 cpu:               3.0 elap:               0.1
 (Enter /sw/contrib/gaussian/g16/B01/g16/l101.exe)
 -----
 title
 -----
 Symbolic Z-matrix:
 Charge = -1 Multiplicity = 1
 O
 X                    1     10. 
 H(iso=2)             1    r1       2     90. 
 Br                   1    r2       2     90.      3    a1       0
 H                    1    r3       2    oop      3    a1       0
       Variables:
  r1                    0.96079                  
  r2                    3.25662                  
  r3                    0.97736                  
  a1                  101.73887                  
  OOP                  60.                       
 
 ITRead=  0  0  0  0
 MicOpt= -1 -1 -1 -1
 NAtoms=      4 NQM=        4 NQMF=       0 NMMI=      0 NMMIF=      0
                NMic=       0 NMicF=      0.
                    Isotopes and Nuclear Properties:
 (Nuclear quadrupole moments (NQMom) in fm**2, nuclear magnetic moments (NMagM)
  in nuclear magnetons)

  Atom         1           2           3           4
 IAtWgt=          16           2          79           1
 AtmWgt=  15.9949146   2.0141018  78.9183361   1.0078250
 NucSpn=           0           2           3           1
 AtZEff=  -0.0000000  -0.0000000  -0.0000000  -0.0000000
 NQMom=    0.0000000   0.2860000  31.3000000   0.0000000
 NMagM=    0.0000000   0.8574380   2.1063990   2.7928460
 AtZNuc=   8.0000000   1.0000000  35.0000000   1.0000000
 Leave Link  101 at Tue Oct 19 16:41:11 2021, MaxMem= 16106127360 cpu:               2.1 elap:               0.1
 (Enter /sw/contrib/gaussian/g16/B01/g16/l202.exe)
                          Input orientation:                          
 ---------------------------------------------------------------------
 Center     Atomic      Atomic             Coordinates (Angstroms)
 Number     Number       Type             X           Y           Z
 ---------------------------------------------------------------------
      1          8           0        0.000000    0.000000    0.000000
      2          1           0        0.960788    0.000000    0.000000
      3         35           0       -0.662564   -3.188507    0.000000
      4          1           0       -0.172205   -0.828716    0.488680
 ---------------------------------------------------------------------
                    Distance matrix (angstroms):
                    1          2          3          4
     1  O    0.000000
     2  H    0.960788   0.000000
     3  Br   3.256620   3.577967   0.000000
     4  H    0.977360   1.486355   2.459243   0.000000
 Symmetry turned off by external request.
 Stoichiometry    BrH2O(1-)
 Framework group  C1[X(BrH2O)]
 Deg. of freedom     6
 Full point group                 C1      NOp   1
 Rotational constants (GHZ):         280.8703615           3.1326845           3.1069778
 Leave Link  202 at Tue Oct 19 16:41:12 2021, MaxMem= 16106127360 cpu:               0.4 elap:               0.0
 (Enter /sw/contrib/gaussian/g16/B01/g16/l301.exe)
 Standard basis: Aug-CC-pVTZ (5D, 7F)
 Ernie: Thresh=  0.10000D-02 Tol=  0.10000D-05 Strict=F.
 Ernie:  35 primitive shells out of 175 were deleted.
   151 basis functions,   343 primitive gaussians,   174 cartesian basis functions
    23 alpha electrons       23 beta electrons
       nuclear repulsion energy        67.2994039305 Hartrees.
 IExCor=    0 DFT=F Ex=HF Corr=None ExCW=0 ScaHFX=  1.000000
 ScaDFX=  1.000000  1.000000  1.000000  1.000000 ScalE2=  1.000000  1.000000
 IRadAn=      5 IRanWt=     -1 IRanGd=            0 ICorTp=0 IEmpDi=  4
 NAtoms=    4 NActive=    4 NUniq=    4 SFac= 1.00D+00 NAtFMM=   60 NAOKFM=F Big=F
 Integral buffers will be    131072 words long.
 Raffenetti 1 integral format.
 Two-electron integral symmetry is turned off.
 Leave Link  301 at Tue Oct 19 16:41:12 2021, MaxMem= 16106127360 cpu:               1.1 elap:               0.1
 (Enter /sw/contrib/gaussian/g16/B01/g16/l302.exe)
 NPDir=0 NMtPBC=     1 NCelOv=     1 NCel=       1 NClECP=     1 NCelD=      1
         NCelK=      1 NCelE2=     1 NClLst=     1 CellRange=     0.0.
 One-electron integrals computed using PRISM.
 NBasis=   151 RedAO= T EigKep=  3.38D-04  NBF=   151
 NBsUse=   151 1.00D-06 EigRej= -1.00D+00 NBFU=   151
 Leave Link  302 at Tue Oct 19 16:41:12 2021, MaxMem= 16106127360 cpu:               4.3 elap:               0.2
 (Enter /sw/contrib/gaussian/g16/B01/g16/l303.exe)
 DipDrv:  MaxL=1.
 Leave Link  303 at Tue Oct 19 16:41:12 2021, MaxMem= 16106127360 cpu:               1.2 elap:               0.1
 (Enter /sw/contrib/gaussian/g16/B01/g16/l401.exe)
 ExpMin= 2.53D-02 ExpMax= 1.06D+07 ExpMxC= 1.21D+04 IAcc=3 IRadAn=         5 AccDes= 0.00D+00
 Harris functional with IExCor=  205 and IRadAn=       5 diagonalized for initial guess.
 HarFok:  IExCor=  205 AccDes= 0.00D+00 IRadAn=         5 IDoV= 1 UseB2=F ITyADJ=14
 ICtDFT=  3500011 ScaDFX=  1.000000  1.000000  1.000000  1.000000
 FoFCou: FMM=F IPFlag=           0 FMFlag=      100000 FMFlg1=           0
         NFxFlg=           0 DoJE=T BraDBF=F KetDBF=T FulRan=T
         wScrn=  0.000000 ICntrl=       500 IOpCl=  0 I1Cent=   200000004 NGrid=           0
         NMat0=    1 NMatS0=      1 NMatT0=    0 NMatD0=    1 NMtDS0=    0 NMtDT0=    0
 Symmetry not used in FoFCou.
 Harris En= -2648.01609427765    
 JPrj=0 DoOrth=F DoCkMO=F.
 Leave Link  401 at Tue Oct 19 16:41:12 2021, MaxMem= 16106127360 cpu:               7.2 elap:               0.3
 (Enter /sw/contrib/gaussian/g16/B01/g16/l502.exe)
 Keep R1 ints in memory in canonical form, NReq=88256845.
 FoFCou: FMM=F IPFlag=           0 FMFlag=           0 FMFlg1=           0
         NFxFlg=           0 DoJE=F BraDBF=F KetDBF=F FulRan=T
         wScrn=  0.000000 ICntrl=       600 IOpCl=  0 I1Cent=           0 NGrid=           0
         NMat0=    1 NMatS0=  11476 NMatT0=    0 NMatD0=    1 NMtDS0=    0 NMtDT0=    0
 Symmetry not used in FoFCou.
 Two-electron integral symmetry not used.
 Closed shell SCF:
 Using DIIS extrapolation, IDIIS=  1040.
 NGot= 16106127360 LenX= 16040205766 LenY= 16040175049
 Requested convergence on RMS density matrix=1.00D-08 within 128 cycles.
 Requested convergence on MAX density matrix=1.00D-06.
 Requested convergence on             energy=1.00D-06.
 No special actions if energy rises.

 Cycle   1  Pass 1  IDiag  1:
 E= -2648.43157178676    
 DIIS: error= 5.64D-02 at cycle   1 NSaved=   1.
 NSaved= 1 IEnMin= 1 EnMin= -2648.43157178676     IErMin= 1 ErrMin= 5.64D-02
 ErrMax= 5.64D-02  0.00D+00 EMaxC= 1.00D-01 BMatC= 5.32D-01 BMatP= 5.32D-01
 IDIUse=3 WtCom= 4.36D-01 WtEn= 5.64D-01
 Coeff-Com:  0.100D+01
 Coeff-En:   0.100D+01
 Coeff:      0.100D+01
 Gap=     0.367 Goal=   None    Shift=    0.000
 GapD=    0.367 DampG=1.000 DampE=0.500 DampFc=0.5000 IDamp=-1.
 Damping current iteration by 5.00D-01
 RMSDP=2.98D-03 MaxDP=9.03D-02              OVMax= 1.21D-01

 Cycle   2  Pass 1  IDiag  1:
 E= -2648.52057099793     Delta-E=       -0.088999211170 Rises=F Damp=T
 DIIS: error= 2.66D-02 at cycle   2 NSaved=   2.
 NSaved= 2 IEnMin= 2 EnMin= -2648.52057099793     IErMin= 2 ErrMin= 2.66D-02
 ErrMax= 2.66D-02  0.00D+00 EMaxC= 1.00D-01 BMatC= 9.99D-02 BMatP= 5.32D-01
 IDIUse=3 WtCom= 7.34D-01 WtEn= 2.66D-01
 Coeff-Com: -0.597D+00 0.160D+01
 Coeff-En:   0.000D+00 0.100D+01
 Coeff:     -0.438D+00 0.144D+01
 Gap=     0.271 Goal=   None    Shift=    0.000
 RMSDP=1.22D-03 MaxDP=3.48D-02 DE=-8.90D-02 OVMax= 6.26D-02

 Cycle   3  Pass 1  IDiag  1:
 E= -2648.59956806505     Delta-E=       -0.078997067114 Rises=F Damp=F
 DIIS: error= 3.67D-03 at cycle   3 NSaved=   3.
 NSaved= 3 IEnMin= 3 EnMin= -2648.59956806505     IErMin= 3 ErrMin= 3.67D-03
 ErrMax= 3.67D-03  0.00D+00 EMaxC= 1.00D-01 BMatC= 2.80D-03 BMatP= 9.99D-02
 IDIUse=3 WtCom= 9.63D-01 WtEn= 3.67D-02
 Coeff-Com: -0.163D+00 0.350D+00 0.814D+00
 Coeff-En:   0.000D+00 0.000D+00 0.100D+01
 Coeff:     -0.157D+00 0.337D+00 0.820D+00
 Gap=     0.289 Goal=   None    Shift=    0.000
 RMSDP=2.22D-04 MaxDP=5.93D-03 DE=-7.90D-02 OVMax= 1.22D-02

 Cycle   4  Pass 1  IDiag  1:
 E= -2648.60135239106     Delta-E=       -0.001784326009 Rises=F Damp=F
 DIIS: error= 3.57D-04 at cycle   4 NSaved=   4.
 NSaved= 4 IEnMin= 4 EnMin= -2648.60135239106     IErMin= 4 ErrMin= 3.57D-04
 ErrMax= 3.57D-04  0.00D+00 EMaxC= 1.00D-01 BMatC= 3.16D-05 BMatP= 2.80D-03
 IDIUse=3 WtCom= 9.96D-01 WtEn= 3.57D-03
 Coeff-Com:  0.187D-01-0.441D-01-0.335D-02 0.103D+01
 Coeff-En:   0.000D+00 0.000D+00 0.000D+00 0.100D+01
 Coeff:      0.187D-01-0.440D-01-0.334D-02 0.103D+01
 Gap=     0.288 Goal=   None    Shift=    0.000
 RMSDP=4.35D-05 MaxDP=1.29D-03 DE=-1.78D-03 OVMax= 2.19D-03

 Cycle   5  Pass 1  IDiag  1:
 E= -2648.60139448545     Delta-E=       -0.000042094396 Rises=F Damp=F
 DIIS: error= 1.02D-04 at cycle   5 NSaved=   5.
 NSaved= 5 IEnMin= 5 EnMin= -2648.60139448545     IErMin= 5 ErrMin= 1.02D-04
 ErrMax= 1.02D-04  0.00D+00 EMaxC= 1.00D-01 BMatC= 1.69D-06 BMatP= 3.16D-05
 IDIUse=3 WtCom= 9.99D-01 WtEn= 1.02D-03
 Coeff-Com: -0.235D-02 0.675D-02-0.212D-01-0.395D+00 0.141D+01
 Coeff-En:   0.000D+00 0.000D+00 0.000D+00 0.000D+00 0.100D+01
 Coeff:     -0.235D-02 0.675D-02-0.212D-01-0.395D+00 0.141D+01
 Gap=     0.289 Goal=   None    Shift=    0.000
 RMSDP=1.93D-05 MaxDP=4.92D-04 DE=-4.21D-05 OVMax= 9.63D-04

 Cycle   6  Pass 1  IDiag  1:
 E= -2648.60139957694     Delta-E=       -0.000005091489 Rises=F Damp=F
 DIIS: error= 1.85D-05 at cycle   6 NSaved=   6.
 NSaved= 6 IEnMin= 6 EnMin= -2648.60139957694     IErMin= 6 ErrMin= 1.85D-05
 ErrMax= 1.85D-05  0.00D+00 EMaxC= 1.00D-01 BMatC= 7.73D-08 BMatP= 1.69D-06
 IDIUse=1 WtCom= 1.00D+00 WtEn= 0.00D+00
 Coeff-Com: -0.386D-03 0.102D-02-0.599D-03-0.250D-01-0.355D-01 0.106D+01
 Coeff:     -0.386D-03 0.102D-02-0.599D-03-0.250D-01-0.355D-01 0.106D+01
 Gap=     0.288 Goal=   None    Shift=    0.000
 RMSDP=2.93D-06 MaxDP=8.30D-05 DE=-5.09D-06 OVMax= 1.82D-04

 Cycle   7  Pass 1  IDiag  1:
 E= -2648.60139975783     Delta-E=       -0.000000180885 Rises=F Damp=F
 DIIS: error= 4.81D-06 at cycle   7 NSaved=   7.
 NSaved= 7 IEnMin= 7 EnMin= -2648.60139975783     IErMin= 7 ErrMin= 4.81D-06
 ErrMax= 4.81D-06  0.00D+00 EMaxC= 1.00D-01 BMatC= 1.17D-08 BMatP= 7.73D-08
 IDIUse=1 WtCom= 1.00D+00 WtEn= 0.00D+00
 Coeff-Com: -0.206D-03 0.234D-03 0.306D-02 0.269D-01-0.144D+00 0.167D+00
 Coeff-Com:  0.948D+00
 Coeff:     -0.206D-03 0.234D-03 0.306D-02 0.269D-01-0.144D+00 0.167D+00
 Coeff:      0.948D+00
 Gap=     0.289 Goal=   None    Shift=    0.000
 RMSDP=1.03D-06 MaxDP=2.57D-05 DE=-1.81D-07 OVMax= 6.87D-05

 Cycle   8  Pass 1  IDiag  1:
 E= -2648.60139977777     Delta-E=       -0.000000019947 Rises=F Damp=F
 DIIS: error= 1.63D-06 at cycle   8 NSaved=   8.
 NSaved= 8 IEnMin= 8 EnMin= -2648.60139977777     IErMin= 8 ErrMin= 1.63D-06
 ErrMax= 1.63D-06  0.00D+00 EMaxC= 1.00D-01 BMatC= 5.19D-10 BMatP= 1.17D-08
 IDIUse=1 WtCom= 1.00D+00 WtEn= 0.00D+00
 Coeff-Com:  0.107D-03-0.212D-03-0.426D-03 0.100D-02 0.141D-01-0.860D-01
 Coeff-Com: -0.110D+00 0.118D+01
 Coeff:      0.107D-03-0.212D-03-0.426D-03 0.100D-02 0.141D-01-0.860D-01
 Coeff:     -0.110D+00 0.118D+01
 Gap=     0.289 Goal=   None    Shift=    0.000
 RMSDP=3.57D-07 MaxDP=1.01D-05 DE=-1.99D-08 OVMax= 1.84D-05

 Cycle   9  Pass 1  IDiag  1:
 E= -2648.60139977906     Delta-E=       -0.000000001287 Rises=F Damp=F
 DIIS: error= 4.41D-07 at cycle   9 NSaved=   9.
 NSaved= 9 IEnMin= 9 EnMin= -2648.60139977906     IErMin= 9 ErrMin= 4.41D-07
 ErrMax= 4.41D-07  0.00D+00 EMaxC= 1.00D-01 BMatC= 2.95D-11 BMatP= 5.19D-10
 IDIUse=1 WtCom= 1.00D+00 WtEn= 0.00D+00
 Coeff-Com: -0.117D-05 0.126D-04-0.145D-03-0.184D-02 0.809D-02-0.631D-02
 Coeff-Com: -0.518D-01-0.120D-01 0.106D+01
 Coeff:     -0.117D-05 0.126D-04-0.145D-03-0.184D-02 0.809D-02-0.631D-02
 Coeff:     -0.518D-01-0.120D-01 0.106D+01
 Gap=     0.289 Goal=   None    Shift=    0.000
 RMSDP=6.64D-08 MaxDP=1.83D-06 DE=-1.29D-09 OVMax= 3.68D-06

 Cycle  10  Pass 1  IDiag  1:
 E= -2648.60139977912     Delta-E=       -0.000000000060 Rises=F Damp=F
 DIIS: error= 1.48D-07 at cycle  10 NSaved=  10.
 NSaved=10 IEnMin=10 EnMin= -2648.60139977912     IErMin=10 ErrMin= 1.48D-07
 ErrMax= 1.48D-07  0.00D+00 EMaxC= 1.00D-01 BMatC= 2.74D-12 BMatP= 2.95D-11
 IDIUse=1 WtCom= 1.00D+00 WtEn= 0.00D+00
 Coeff-Com: -0.841D-05 0.158D-04 0.460D-04 0.757D-04-0.181D-02 0.775D-02
 Coeff-Com:  0.148D-01-0.111D+00-0.498D-01 0.114D+01
 Coeff:     -0.841D-05 0.158D-04 0.460D-04 0.757D-04-0.181D-02 0.775D-02
 Coeff:      0.148D-01-0.111D+00-0.498D-01 0.114D+01
 Gap=     0.289 Goal=   None    Shift=    0.000
 RMSDP=1.80D-08 MaxDP=3.66D-07 DE=-6.00D-11 OVMax= 1.23D-06

 Cycle  11  Pass 1  IDiag  1:
 E= -2648.60139977913     Delta-E=       -0.000000000015 Rises=F Damp=F
 DIIS: error= 3.05D-08 at cycle  11 NSaved=  11.
 NSaved=11 IEnMin=11 EnMin= -2648.60139977913     IErMin=11 ErrMin= 3.05D-08
 ErrMax= 3.05D-08  0.00D+00 EMaxC= 1.00D-01 BMatC= 1.37D-13 BMatP= 2.74D-12
 IDIUse=1 WtCom= 1.00D+00 WtEn= 0.00D+00
 Coeff-Com:  0.187D-05-0.403D-05-0.258D-05 0.665D-04 0.135D-04-0.130D-02
 Coeff-Com: -0.744D-03 0.233D-01-0.502D-01-0.229D+00 0.126D+01
 Coeff:      0.187D-05-0.403D-05-0.258D-05 0.665D-04 0.135D-04-0.130D-02
 Coeff:     -0.744D-03 0.233D-01-0.502D-01-0.229D+00 0.126D+01
 Gap=     0.289 Goal=   None    Shift=    0.000
 RMSDP=6.85D-09 MaxDP=1.95D-07 DE=-1.46D-11 OVMax= 3.53D-07

 SCF Done:  E(RHF) =  -2648.60139978     A.U. after   11 cycles
            NFock= 11  Conv=0.68D-08     -V/T= 2.0000
 KE= 2.648523153670D+03 PE=-6.482674142525D+03 EE= 1.118250185145D+03
 Leave Link  502 at Tue Oct 19 16:41:15 2021, MaxMem= 16106127360 cpu:              57.4 elap:               3.1
 (Enter /sw/contrib/gaussian/g16/B01/g16/l801.exe)
 ExpMin= 2.53D-02 ExpMax= 1.06D+07 ExpMxC= 1.21D+04 IAcc=3 IRadAn=         5 AccDes= 0.00D+00
 HarFok:  IExCor=  205 AccDes= 0.00D+00 IRadAn=         5 IDoV=-2 UseB2=F ITyADJ=14
 ICtDFT= 12500011 ScaDFX=  1.000000  1.000000  1.000000  1.000000
 Largest valence mixing into a core orbital is  1.27D-04
 Largest core mixing into a valence orbital is  3.64D-05
 Range of M.O.s used for correlation:    11   151
 NBasis=   151 NAE=    23 NBE=    23 NFC=    10 NFV=     0
 NROrb=    141 NOA=    13 NOB=    13 NVA=   128 NVB=   128

 **** Warning!!: The largest alpha MO coefficient is  0.14623259D+02

 Leave Link  801 at Tue Oct 19 16:41:16 2021, MaxMem= 16106127360 cpu:               6.3 elap:               0.3
 (Enter /sw/contrib/gaussian/g16/B01/g16/l906.exe)
 Frozen-core derivative calculation, NFC=  10 NFV=   0.
 FulOut=F Deriv=T AODrv=F NAtomX=     4
   MMem=         214  MDisk=          13 MDiskD=          13
  W3Min=      604302 MinDsk=     1007783 NBas6D=         174
 NBas2D=       15618    NTT=       15225    LW2=     9911920
    MDV= 16105777393 MDiskM=      462752 NBas2p=       15367
 Fully in-core method, ICMem=   275550978.
 IMap=   1   2   3   4   5   6   7   8   9  10  11  12  13  14  15  16  17  18  19  20
 IMap=  21  22  23
 JobTyp=1 Pass  1 fully in-core, NPsUse= 28.
 Compute canonical integrals.
 FoFCou: FMM=F IPFlag=           0 FMFlag=           0 FMFlg1=           0
         NFxFlg=           0 DoJE=F BraDBF=F KetDBF=F FulRan=T
         wScrn=  0.000000 ICntrl=       600 IOpCl=  1 I1Cent=           0 NGrid=           0
         NMat0=    1 NMatS0=  15618 NMatT0=    0 NMatD0=    1 NMtDS0=    0 NMtDT0=    0
 Symmetry not used in FoFCou.
 Spin components of T(2) and E(2):
     alpha-alpha T2 =       0.2049004119D-01 E2=     -0.6958715214D-01
     alpha-beta  T2 =       0.1088945060D+00 E2=     -0.3780190223D+00
     beta-beta   T2 =       0.2049004119D-01 E2=     -0.6958715214D-01
 The integrals were generated   1 times.
 ANorm=    0.1072322054D+01
 E2 =    -0.5171933266D+00 EUMP2 =    -0.26491185931057D+04
 Leave Link  906 at Tue Oct 19 16:41:19 2021, MaxMem= 16106127360 cpu:              95.3 elap:               3.5
 (Enter /sw/contrib/gaussian/g16/B01/g16/l1002.exe)
 Minotr:  Closed shell wavefunction.
          Computing MP2/KS-MP2 derivatives.
          Using Z-Vector for PSCF gradient.
          Skipping F1 and S1 gradient terms here.
          Frozen-core window.
          Direct CPHF calculation.
          Differentiating once with respect to electric field.
                with respect to dipole field.
          Electric field/nuclear overlap derivatives assumed to be zero.
          Requested convergence is 1.0D-10 RMS, and 1.0D-09 maximum.
          NewPWx=F KeepS1=T KeepF1=T KeepIn=T MapXYZ=F SortEE=F KeepMc=T.
 Keep R1 ints in memory in canonical form, NReq=88259649.
 FoFCou: FMM=F IPFlag=           0 FMFlag=           0 FMFlg1=           0
         NFxFlg=           0 DoJE=F BraDBF=F KetDBF=F FulRan=T
         wScrn=  0.000000 ICntrl=       600 IOpCl=  0 I1Cent=           0 NGrid=           0
         NMat0=    1 NMatS0=  11476 NMatT0=    0 NMatD0=    1 NMtDS0=    0 NMtDT0=    0
 Symmetry not used in FoFCou.
 Two-electron integral symmetry not used.
          MDV=   16106127360 using IRadAn=       5.
          Solving linear equations separately, MaxMat=       0.
          There are     1 degrees of freedom in the 1st order CPHF.  IDoFFX=0 NUNeed=     1.
 LinEq1:  Iter=  0 NonCon=     1 RMS=2.38D-03 Max=3.04D-02 NDo=     1
 AX will form     1 AO Fock derivatives at one time.
 LinEq1:  Iter=  1 NonCon=     1 RMS=3.99D-04 Max=3.75D-03 NDo=     1
 LinEq1:  Iter=  2 NonCon=     1 RMS=1.92D-04 Max=1.96D-03 NDo=     1
 LinEq1:  Iter=  3 NonCon=     1 RMS=5.25D-05 Max=7.86D-04 NDo=     1
 LinEq1:  Iter=  4 NonCon=     1 RMS=1.04D-05 Max=1.14D-04 NDo=     1
 LinEq1:  Iter=  5 NonCon=     1 RMS=4.75D-06 Max=6.18D-05 NDo=     1
 LinEq1:  Iter=  6 NonCon=     1 RMS=1.02D-06 Max=1.07D-05 NDo=     1
 LinEq1:  Iter=  7 NonCon=     1 RMS=2.20D-07 Max=2.20D-06 NDo=     1
 LinEq1:  Iter=  8 NonCon=     1 RMS=6.44D-08 Max=6.62D-07 NDo=     1
 LinEq1:  Iter=  9 NonCon=     1 RMS=1.03D-08 Max=1.50D-07 NDo=     1
 LinEq1:  Iter= 10 NonCon=     1 RMS=1.62D-09 Max=1.47D-08 NDo=     1
 LinEq1:  Iter= 11 NonCon=     1 RMS=3.64D-10 Max=4.14D-09 NDo=     1
 LinEq1:  Iter= 12 NonCon=     1 RMS=8.59D-11 Max=1.13D-09 NDo=     1
 LinEq1:  Iter= 13 NonCon=     0 RMS=1.57D-11 Max=1.40D-10 NDo=     1
 Linear equations converged to 1.000D-10 1.000D-09 after    13 iterations.
 End of Minotr F.D. properties file   721 does not exist.
 End of Minotr F.D. properties file   722 does not exist.
 End of Minotr F.D. properties file   788 does not exist.
 Leave Link 1002 at Tue Oct 19 16:41:22 2021, MaxMem= 16106127360 cpu:              35.8 elap:               2.7
 (Enter /sw/contrib/gaussian/g16/B01/g16/l601.exe)
 Copying SCF densities to generalized density rwf, IOpCl= 0 IROHF=0.

 **********************************************************************

            Population analysis using the MP2 Density.

 **********************************************************************

 Alpha  occ. eigenvalues -- -489.73368 -64.87391 -58.22841 -58.22839 -58.22834
 Alpha  occ. eigenvalues --  -20.39755  -9.54636  -7.15392  -7.15373  -7.15357
 Alpha  occ. eigenvalues --   -2.89564  -2.89561  -2.89538  -2.89516  -2.89512
 Alpha  occ. eigenvalues --   -1.18077  -0.70343  -0.53356  -0.42579  -0.34210
 Alpha  occ. eigenvalues --   -0.15777  -0.15425  -0.15289
 Alpha virt. eigenvalues --    0.13562   0.16946   0.23595   0.24244   0.25305
 Alpha virt. eigenvalues --    0.27359   0.28071   0.29961   0.33933   0.35848
 Alpha virt. eigenvalues --    0.38941   0.39751   0.41790   0.45609   0.47998
 Alpha virt. eigenvalues --    0.48844   0.53598   0.53866   0.57029   0.58083
 Alpha virt. eigenvalues --    0.59206   0.61505   0.67481   0.74281   0.74790
 Alpha virt. eigenvalues --    0.76075   0.78511   0.84471   0.86483   0.88715
 Alpha virt. eigenvalues --    0.90474   0.97023   1.00139   1.00491   1.02391
 Alpha virt. eigenvalues --    1.02638   1.02909   1.06138   1.06862   1.07924
 Alpha virt. eigenvalues --    1.09046   1.11326   1.13496   1.16356   1.17394
 Alpha virt. eigenvalues --    1.18072   1.19312   1.20568   1.22176   1.25268
 Alpha virt. eigenvalues --    1.32533   1.35089   1.37261   1.38981   1.43683
 Alpha virt. eigenvalues --    1.49051   1.53922   1.61417   1.68464   1.70310
 Alpha virt. eigenvalues --    1.75643   1.81839   2.01712   2.05357   2.16500
 Alpha virt. eigenvalues --    2.33267   2.41105   2.42493   2.44423   2.47324
 Alpha virt. eigenvalues --    2.48360   2.54754   2.55477   2.56393   2.56549
 Alpha virt. eigenvalues --    2.56982   2.57487   2.58672   2.59669   2.62592
 Alpha virt. eigenvalues --    2.64064   2.65257   2.66743   2.68281   2.73610
 Alpha virt. eigenvalues --    2.76652   2.80575   2.85312   2.89385   2.94839
 Alpha virt. eigenvalues --    2.99615   3.05316   3.12194   3.87326   3.97335
 Alpha virt. eigenvalues --    4.20545   4.29942   4.30821   4.40510   4.45247
 Alpha virt. eigenvalues --    4.50867   4.54428   4.59374   4.64857   4.74214
 Alpha virt. eigenvalues --    4.93340   5.05907   5.30135   5.37309   5.40642
 Alpha virt. eigenvalues --    5.48552   5.69286   5.80114   6.39219   6.68652
 Alpha virt. eigenvalues --    6.91837   7.13951   7.29050   7.40716   7.45483
 Alpha virt. eigenvalues --    7.48733   7.54594   7.59731   7.72874   8.01665
 Alpha virt. eigenvalues --    8.13111   8.97001  15.82314
          Condensed to atoms (all electrons):
               1          2          3          4
     1  O    8.172483   0.207787  -0.060228   0.158441
     2  H    0.207787   0.590305   0.003692   0.019474
     3  Br  -0.060228   0.003692  35.959814   0.042187
     4  H    0.158441   0.019474   0.042187   0.534692
 Mulliken charges:
               1
     1  O   -0.478483
     2  H    0.178742
     3  Br  -0.945465
     4  H    0.245206
 Sum of Mulliken charges =  -1.00000
 Mulliken charges with hydrogens summed into heavy atoms:
               1
     1  O   -0.054535
     3  Br  -0.945465
 Electronic spatial extent (au):  <R**2>=           1435.5794
 Charge=             -1.0000 electrons
 Dipole moment (field-independent basis, Debye):
    X=              4.0054    Y=             12.9913    Z=              0.4128  Tot=             13.6010
 Quadrupole moment (field-independent basis, Debye-Ang):
   XX=            -31.1389   YY=            -76.5629   ZZ=            -31.2542
   XY=             -8.8451   XZ=             -0.1557   YZ=             -0.2733
 Traceless Quadrupole moment (field-independent basis, Debye-Ang):
   XX=             15.1798   YY=            -30.2442   ZZ=             15.0645
   XY=             -8.8451   XZ=             -0.1557   YZ=             -0.2733
 Octapole moment (field-independent basis, Debye-Ang**2):
  XXX=             48.3572  YYY=            374.5855  ZZZ=             -1.6191  XYY=             44.4209
  XXY=             82.1866  XXZ=             -0.7038  XZZ=             14.9975  YZZ=             75.8443
  YYZ=             -2.4049  XYZ=             -0.3788
 Hexadecapole moment (field-independent basis, Debye-Ang**3):
 XXXX=           -113.0029 YYYY=          -1966.7037 ZZZZ=            -51.7402 XXXY=           -153.6388
 XXXZ=              0.3874 YYYX=           -242.8588 YYYZ=              9.5466 ZZZX=              0.3190
 ZZZY=              2.2035 XXYY=           -288.6871 XXZZ=            -27.6816 YYZZ=           -259.0943
 XXYZ=              1.0727 YYXZ=              1.5641 ZZXY=            -49.8669
 N-N= 6.729940393045D+01 E-N=-6.481135181872D+03  KE= 2.648370246035D+03
 No NMR shielding tensors so no spin-rotation constants.
 Leave Link  601 at Tue Oct 19 16:41:22 2021, MaxMem= 16106127360 cpu:               4.5 elap:               0.2
 (Enter /sw/contrib/gaussian/g16/B01/g16/l607.exe)
 ******************************Gaussian NBO Version 3.1******************************
             N A T U R A L   A T O M I C   O R B I T A L   A N D
          N A T U R A L   B O N D   O R B I T A L   A N A L Y S I S
 ******************************Gaussian NBO Version 3.1******************************
       /RESON  / : Allow strongly delocalized NBO set

 Analyzing the MP2 density

 Job title: title                                                           

 Storage needed:     69217 in NPA,     91732 in NBO (********** available)
 GSVD:  LWork=         337 too small for GESVD, short by       43655 words or       43655 for optimal perf.


 NATURAL POPULATIONS:  Natural atomic orbital occupancies 
                                                          
   NAO  Atom  No  lang   Type(AO)    Occupancy
 --------------------------------------------
     1    O    1  S      Cor( 1S)     1.99967
     2    O    1  S      Val( 2S)     1.74461
     3    O    1  S      Ryd( 3S)     0.00618
     4    O    1  S      Ryd( 4S)     0.00058
     5    O    1  S      Ryd( 5S)     0.00020
     6    O    1  px     Val( 2p)     1.52566
     7    O    1  px     Ryd( 3p)     0.00991
     8    O    1  px     Ryd( 4p)     0.00058
     9    O    1  px     Ryd( 5p)     0.00009
    10    O    1  py     Val( 2p)     1.72363
    11    O    1  py     Ryd( 3p)     0.01423
    12    O    1  py     Ryd( 4p)     0.00062
    13    O    1  py     Ryd( 5p)     0.00012
    14    O    1  pz     Val( 2p)     1.86432
    15    O    1  pz     Ryd( 3p)     0.01910
    16    O    1  pz     Ryd( 4p)     0.00063
    17    O    1  pz     Ryd( 5p)     0.00006
    18    O    1  dxy    Ryd( 3d)     0.00885
    19    O    1  dxy    Ryd( 4d)     0.00062
    20    O    1  dxy    Ryd( 5d)     0.00014
    21    O    1  dxz    Ryd( 3d)     0.00963
    22    O    1  dxz    Ryd( 4d)     0.00083
    23    O    1  dxz    Ryd( 5d)     0.00015
    24    O    1  dyz    Ryd( 3d)     0.00998
    25    O    1  dyz    Ryd( 4d)     0.00045
    26    O    1  dyz    Ryd( 5d)     0.00013
    27    O    1  dx2y2  Ryd( 3d)     0.01068
    28    O    1  dx2y2  Ryd( 4d)     0.00032
    29    O    1  dx2y2  Ryd( 5d)     0.00013
    30    O    1  dz2    Ryd( 3d)     0.00849
    31    O    1  dz2    Ryd( 4d)     0.00046
    32    O    1  dz2    Ryd( 5d)     0.00012
    33    O    1  f(0)   Ryd( 4f)     0.00066
    34    O    1  f(0)   Ryd( 5f)     0.00011
    35    O    1  f(C1)  Ryd( 4f)     0.00048
    36    O    1  f(C1)  Ryd( 5f)     0.00008
    37    O    1  f(S1)  Ryd( 4f)     0.00066
    38    O    1  f(S1)  Ryd( 5f)     0.00011
    39    O    1  f(C2)  Ryd( 4f)     0.00063
    40    O    1  f(C2)  Ryd( 5f)     0.00014
    41    O    1  f(S2)  Ryd( 4f)     0.00051
    42    O    1  f(S2)  Ryd( 5f)     0.00009
    43    O    1  f(C3)  Ryd( 4f)     0.00042
    44    O    1  f(C3)  Ryd( 5f)     0.00010
    45    O    1  f(S3)  Ryd( 4f)     0.00055
    46    O    1  f(S3)  Ryd( 5f)     0.00014

    47    H    2  S      Val( 1S)     0.54808
    48    H    2  S      Ryd( 2S)     0.00170
    49    H    2  S      Ryd( 3S)     0.00039
    50    H    2  S      Ryd( 4S)     0.00012
    51    H    2  px     Ryd( 3p)     0.00024
    52    H    2  px     Ryd( 2p)     0.00069
    53    H    2  px     Ryd( 4p)     0.00016
    54    H    2  py     Ryd( 2p)     0.00077
    55    H    2  py     Ryd( 3p)     0.00016
    56    H    2  py     Ryd( 4p)     0.00006
    57    H    2  pz     Ryd( 2p)     0.00116
    58    H    2  pz     Ryd( 3p)     0.00016
    59    H    2  pz     Ryd( 4p)     0.00005
    60    H    2  dxy    Ryd( 3d)     0.00018
    61    H    2  dxy    Ryd( 4d)     0.00007
    62    H    2  dxz    Ryd( 3d)     0.00030
    63    H    2  dxz    Ryd( 4d)     0.00007
    64    H    2  dyz    Ryd( 3d)     0.00011
    65    H    2  dyz    Ryd( 4d)     0.00005
    66    H    2  dx2y2  Ryd( 3d)     0.00014
    67    H    2  dx2y2  Ryd( 4d)     0.00005
    68    H    2  dz2    Ryd( 3d)     0.00012
    69    H    2  dz2    Ryd( 4d)     0.00006

    70   Br    3  S      Cor( 1S)     2.00003
    71   Br    3  S      Cor( 2S)     2.00000
    72   Br    3  S      Cor( 3S)     2.00000
    73   Br    3  S      Val( 4S)     1.98011
    74   Br    3  S      Ryd( 5S)     0.00337
    75   Br    3  S      Ryd( 6S)     0.00061
    76   Br    3  S      Ryd( 7S)     0.00014
    77   Br    3  px     Cor( 2p)     2.00002
    78   Br    3  px     Cor( 3p)     2.00000
    79   Br    3  px     Val( 4p)     1.95298
    80   Br    3  px     Ryd( 5p)     0.01207
    81   Br    3  px     Ryd( 6p)     0.00084
    82   Br    3  px     Ryd( 7p)     0.00005
    83   Br    3  py     Cor( 2p)     2.00001
    84   Br    3  py     Cor( 3p)     2.00000
    85   Br    3  py     Val( 4p)     1.93544
    86   Br    3  py     Ryd( 5p)     0.01096
    87   Br    3  py     Ryd( 6p)     0.00081
    88   Br    3  py     Ryd( 7p)     0.00009
    89   Br    3  pz     Cor( 2p)     2.00002
    90   Br    3  pz     Cor( 3p)     2.00000
    91   Br    3  pz     Val( 4p)     1.95166
    92   Br    3  pz     Ryd( 5p)     0.01200
    93   Br    3  pz     Ryd( 6p)     0.00084
    94   Br    3  pz     Ryd( 7p)     0.00005
    95   Br    3  dxy    Cor( 3d)     1.99768
    96   Br    3  dxy    Ryd( 4d)     0.01882
    97   Br    3  dxy    Ryd( 5d)     0.00162
    98   Br    3  dxy    Ryd( 6d)     0.00022
    99   Br    3  dxz    Cor( 3d)     1.99769
   100   Br    3  dxz    Ryd( 4d)     0.01874
   101   Br    3  dxz    Ryd( 5d)     0.00179
   102   Br    3  dxz    Ryd( 6d)     0.00023
   103   Br    3  dyz    Cor( 3d)     1.99768
   104   Br    3  dyz    Ryd( 4d)     0.01893
   105   Br    3  dyz    Ryd( 5d)     0.00162
   106   Br    3  dyz    Ryd( 6d)     0.00024
   107   Br    3  dx2y2  Cor( 3d)     1.99767
   108   Br    3  dx2y2  Ryd( 4d)     0.01859
   109   Br    3  dx2y2  Ryd( 5d)     0.00169
   110   Br    3  dx2y2  Ryd( 6d)     0.00025
   111   Br    3  dz2    Cor( 3d)     1.99768
   112   Br    3  dz2    Ryd( 4d)     0.01868
   113   Br    3  dz2    Ryd( 5d)     0.00175
   114   Br    3  dz2    Ryd( 6d)     0.00023
   115   Br    3  f(0)   Ryd( 4f)     0.00176
   116   Br    3  f(0)   Ryd( 5f)     0.00025
   117   Br    3  f(C1)  Ryd( 4f)     0.00176
   118   Br    3  f(C1)  Ryd( 5f)     0.00025
   119   Br    3  f(S1)  Ryd( 4f)     0.00175
   120   Br    3  f(S1)  Ryd( 5f)     0.00026
   121   Br    3  f(C2)  Ryd( 4f)     0.00175
   122   Br    3  f(C2)  Ryd( 5f)     0.00026
   123   Br    3  f(S2)  Ryd( 4f)     0.00177
   124   Br    3  f(S2)  Ryd( 5f)     0.00025
   125   Br    3  f(C3)  Ryd( 4f)     0.00173
   126   Br    3  f(C3)  Ryd( 5f)     0.00026
   127   Br    3  f(S3)  Ryd( 4f)     0.00174
   128   Br    3  f(S3)  Ryd( 5f)     0.00026

   129    H    4  S      Val( 1S)     0.49147
   130    H    4  S      Ryd( 2S)     0.00510
   131    H    4  S      Ryd( 3S)     0.00043
   132    H    4  S      Ryd( 4S)     0.00010
   133    H    4  px     Ryd( 2p)     0.00333
   134    H    4  px     Ryd( 3p)     0.00035
   135    H    4  px     Ryd( 4p)     0.00010
   136    H    4  py     Ryd( 2p)     0.00447
   137    H    4  py     Ryd( 3p)     0.00047
   138    H    4  py     Ryd( 4p)     0.00019
   139    H    4  pz     Ryd( 2p)     0.00334
   140    H    4  pz     Ryd( 3p)     0.00042
   141    H    4  pz     Ryd( 4p)     0.00013
   142    H    4  dxy    Ryd( 3d)     0.00018
   143    H    4  dxy    Ryd( 4d)     0.00008
   144    H    4  dxz    Ryd( 3d)     0.00014
   145    H    4  dxz    Ryd( 4d)     0.00007
   146    H    4  dyz    Ryd( 3d)     0.00024
   147    H    4  dyz    Ryd( 4d)     0.00007
   148    H    4  dx2y2  Ryd( 3d)     0.00024
   149    H    4  dx2y2  Ryd( 4d)     0.00009
   150    H    4  dz2    Ryd( 3d)     0.00014
   151    H    4  dz2    Ryd( 4d)     0.00008

 WARNING:  5 low occupancy (<1.9990e) core orbitals found on Br    3


 Summary of Natural Population Analysis:                  
                                                          
                                       Natural Population 
                Natural  -----------------------------------------------
    Atom  No    Charge         Core      Valence    Rydberg      Total
 -----------------------------------------------------------------------
      O    1   -0.96587      1.99967     6.85823    0.10797     8.96587
      H    2    0.44510      0.00000     0.54808    0.00682     0.55490
     Br    3   -0.96795     27.98848     7.82019    0.15928    35.96795
      H    4    0.48873      0.00000     0.49147    0.01980     0.51127
 =======================================================================
   * Total *   -1.00000     29.98816    15.71797    0.29387    46.00000

                                 Natural Population      
 --------------------------------------------------------
   Core                      29.98816 ( 99.9605% of  30)
   Valence                   15.71797 ( 98.2373% of  16)
   Natural Minimal Basis     45.70613 ( 99.3612% of  46)
   Natural Rydberg Basis      0.29387 (  0.6388% of  46)
 --------------------------------------------------------

    Atom  No          Natural Electron Configuration
 ----------------------------------------------------------------------------
      O    1      [core]2S( 1.74)2p( 5.11)3S( 0.01)3p( 0.04)3d( 0.05)
      H    2            1S( 0.55)
     Br    3      [core]4S( 1.98)4p( 5.84)4d( 0.09)5p( 0.04)4f( 0.01)5d( 0.01)
      H    4            1S( 0.49)2S( 0.01)2p( 0.01)


 NATURAL BOND ORBITAL ANALYSIS:
 Warning:  a bond orbital has occupanc of -0.00004

                       Occupancies       Lewis Structure    Low   High
           Occ.    -------------------  -----------------   occ   occ
  Cycle   Thresh.   Lewis   Non-Lewis     CR  BD  3C  LP    (L)   (NL)   Dev
 =============================================================================
   1(1)    1.90    45.67451   0.32549     15   2   0   6     0      0    0.03
 -----------------------------------------------------------------------------

 Structure accepted: No low occupancy Lewis orbitals

 WARNING:  5 low occupancy (<1.9990e) core orbitals found on Br    3

 --------------------------------------------------------
   Core                     29.98816 ( 99.961% of  30)
   Valence Lewis            15.68635 ( 98.040% of  16)
  ==================       ============================
   Total Lewis              45.67451 ( 99.292% of  46)
  -----------------------------------------------------
   Valence non-Lewis         0.06173 (  0.134% of  46)
   Rydberg non-Lewis         0.26376 (  0.573% of  46)
  ==================       ============================
   Total non-Lewis           0.32549 (  0.708% of  46)
 --------------------------------------------------------


       (Occupancy)   Bond orbital/ Coefficients/ Hybrids
 ---------------------------------------------------------------------------------
     1. (1.96627) BD ( 1) O   1 - H   2  
                ( 72.89%)   0.8538* O   1 s( 20.94%)p 3.75( 78.60%)d 0.02(  0.45%)
                                                  f 0.00(  0.01%)
                                            0.0002  0.4575 -0.0073  0.0024 -0.0047
                                            0.8839 -0.0326  0.0083 -0.0008  0.0533
                                           -0.0132  0.0014 -0.0031 -0.0223  0.0090
                                           -0.0009  0.0015 -0.0154  0.0006  0.0022
                                            0.0135 -0.0023  0.0001 -0.0041 -0.0004
                                            0.0016  0.0539 -0.0034  0.0031 -0.0334
                                            0.0016 -0.0007  0.0000  0.0002 -0.0069
                                           -0.0013 -0.0003  0.0000 -0.0005 -0.0000
                                           -0.0054  0.0017  0.0050  0.0025  0.0013
                                           -0.0002
                ( 27.11%)   0.5207* H   2 s( 99.89%)p 0.00(  0.10%)d 0.00(  0.01%)
                                            0.9995  0.0036 -0.0002  0.0001 -0.0007
                                            0.0306 -0.0041  0.0029  0.0000 -0.0010
                                            0.0006  0.0016 -0.0001  0.0021 -0.0020
                                            0.0010  0.0008 -0.0019 -0.0007  0.0074
                                           -0.0016 -0.0045  0.0006
     2. (1.96750) BD ( 1) O   1 - H   4  
                ( 76.56%)   0.8750* O   1 s( 24.50%)p 3.06( 75.04%)d 0.02(  0.45%)
                                                  f 0.00(  0.01%)
                                           -0.0003 -0.4950  0.0009  0.0001  0.0010
                                            0.1993 -0.0188 -0.0001  0.0020  0.7152
                                           -0.0154  0.0071 -0.0025 -0.4454  0.0076
                                           -0.0053  0.0043  0.0073 -0.0051  0.0027
                                           -0.0040  0.0030 -0.0017  0.0539 -0.0026
                                           -0.0020  0.0372 -0.0022  0.0002  0.0067
                                            0.0009 -0.0021  0.0088 -0.0008 -0.0006
                                            0.0005 -0.0000  0.0008  0.0049  0.0021
                                           -0.0028 -0.0008 -0.0016 -0.0013  0.0025
                                           -0.0036
                ( 23.44%)   0.4841* H   4 s( 99.87%)p 0.00(  0.12%)d 0.00(  0.01%)
                                           -0.9992 -0.0157 -0.0004  0.0001 -0.0190
                                            0.0005  0.0003 -0.0024 -0.0197 -0.0067
                                           -0.0148  0.0129  0.0051 -0.0003  0.0024
                                            0.0004 -0.0016  0.0016  0.0003 -0.0069
                                            0.0008  0.0025  0.0010
     3. (1.99968) CR ( 1) O   1           s(100.00%)
                                            1.0000 -0.0004  0.0000 -0.0000  0.0000
                                           -0.0001  0.0000 -0.0000  0.0000  0.0001
                                           -0.0000  0.0000  0.0000 -0.0000  0.0000
                                           -0.0000  0.0000 -0.0000 -0.0000  0.0000
                                            0.0000  0.0000 -0.0000  0.0000 -0.0000
                                           -0.0000 -0.0000  0.0000  0.0000  0.0000
                                            0.0000 -0.0000  0.0000  0.0000  0.0000
                                            0.0000 -0.0000  0.0000  0.0000  0.0000
                                            0.0000 -0.0000 -0.0000 -0.0000 -0.0000
                                           -0.0000
     4. (2.00003) CR ( 1)Br   3           s(100.00%)
                                            1.0000  0.0000  0.0000 -0.0000  0.0000
                                            0.0000  0.0000 -0.0000 -0.0000  0.0000
                                            0.0000 -0.0000 -0.0000 -0.0000 -0.0000
                                            0.0000 -0.0000 -0.0000  0.0000 -0.0000
                                           -0.0000  0.0000  0.0000 -0.0000  0.0000
                                           -0.0000  0.0000 -0.0000  0.0000 -0.0000
                                            0.0000 -0.0000  0.0000 -0.0000  0.0000
                                           -0.0000  0.0000  0.0000 -0.0000  0.0000
                                            0.0000  0.0000 -0.0000  0.0000 -0.0000
                                           -0.0000 -0.0000 -0.0000 -0.0000 -0.0000
                                           -0.0000 -0.0000 -0.0000  0.0000  0.0000
                                           -0.0000 -0.0000 -0.0000 -0.0000
     5. (2.00000) CR ( 2)Br   3           s(100.00%)
                                            0.0000  1.0000 -0.0000 -0.0000 -0.0000
                                           -0.0000  0.0000  0.0000  0.0000 -0.0000
                                           -0.0000  0.0000  0.0000  0.0000  0.0000
                                           -0.0000  0.0000  0.0000  0.0000  0.0000
                                            0.0000 -0.0000 -0.0000  0.0000 -0.0000
                                            0.0000 -0.0000  0.0000 -0.0000  0.0000
                                           -0.0000  0.0000 -0.0000  0.0000 -0.0000
                                            0.0000 -0.0000 -0.0000  0.0000 -0.0000
                                           -0.0000 -0.0000  0.0000 -0.0000  0.0000
                                            0.0000  0.0000  0.0000  0.0000  0.0000
                                            0.0000  0.0000  0.0000 -0.0000 -0.0000
                                            0.0000  0.0000  0.0000  0.0000
     6. (2.00000) CR ( 3)Br   3           s(100.00%)
                                            0.0000 -0.0000  1.0000 -0.0000 -0.0000
                                           -0.0000  0.0000  0.0000  0.0000 -0.0000
                                           -0.0000  0.0000  0.0000  0.0000  0.0000
                                           -0.0000  0.0000  0.0000  0.0000  0.0000
                                            0.0000 -0.0000 -0.0000  0.0000 -0.0000
                                            0.0000 -0.0000  0.0000 -0.0000  0.0000
                                           -0.0000  0.0000 -0.0000  0.0000 -0.0000
                                            0.0000 -0.0000 -0.0000  0.0000 -0.0000
                                           -0.0000 -0.0000  0.0000 -0.0000  0.0000
                                            0.0000  0.0000  0.0000  0.0000  0.0000
                                            0.0000  0.0000  0.0000 -0.0000 -0.0000
                                            0.0000  0.0000  0.0000  0.0000
     7. (2.00002) CR ( 4)Br   3           s(  0.00%)p 1.00(100.00%)
                                           -0.0000  0.0000  0.0000  0.0000 -0.0000
                                           -0.0000  0.0000  1.0000 -0.0000 -0.0000
                                           -0.0000 -0.0000  0.0000 -0.0000 -0.0000
                                            0.0000 -0.0000 -0.0000  0.0000 -0.0000
                                           -0.0000  0.0000  0.0000 -0.0000  0.0000
                                           -0.0000 -0.0000  0.0000  0.0000  0.0000
                                           -0.0000  0.0000 -0.0000 -0.0000  0.0000
                                           -0.0000  0.0000  0.0000 -0.0000  0.0000
                                           -0.0000  0.0000 -0.0000 -0.0000  0.0000
                                           -0.0000 -0.0000  0.0000  0.0000 -0.0000
                                           -0.0000 -0.0000 -0.0000 -0.0000 -0.0000
                                            0.0000  0.0000 -0.0000 -0.0000
     8. (2.00000) CR ( 5)Br   3           s(  0.00%)p 1.00(100.00%)
                                           -0.0000  0.0000  0.0000  0.0000  0.0000
                                           -0.0000  0.0000 -0.0000  1.0000 -0.0000
                                           -0.0000 -0.0000  0.0000 -0.0000 -0.0000
                                            0.0000 -0.0000 -0.0000  0.0000 -0.0000
                                           -0.0000  0.0000  0.0000 -0.0000  0.0000
                                           -0.0000 -0.0000  0.0000  0.0000 -0.0000
                                           -0.0000  0.0000 -0.0000 -0.0000  0.0000
                                           -0.0000  0.0000  0.0000 -0.0000  0.0000
                                           -0.0000  0.0000 -0.0000 -0.0000  0.0000
                                           -0.0000 -0.0000  0.0000  0.0000 -0.0000
                                           -0.0000 -0.0000 -0.0000 -0.0000 -0.0000
                                            0.0000  0.0000 -0.0000 -0.0000
     9. (2.00001) CR ( 6)Br   3           s(  0.00%)p 1.00(100.00%)
                                           -0.0000  0.0000  0.0000  0.0000  0.0000
                                            0.0000 -0.0000 -0.0000 -0.0000  0.0000
                                            0.0000 -0.0000 -0.0000  1.0000 -0.0000
                                            0.0001  0.0000 -0.0000 -0.0000 -0.0000
                                           -0.0000  0.0000  0.0000 -0.0000  0.0000
                                           -0.0000  0.0000 -0.0000  0.0000 -0.0000
                                            0.0000 -0.0000  0.0000 -0.0000  0.0000
                                           -0.0000  0.0000  0.0000 -0.0000  0.0000
                                            0.0000  0.0000 -0.0000  0.0000  0.0000
                                           -0.0000 -0.0000 -0.0000 -0.0000 -0.0000
                                           -0.0000 -0.0000 -0.0000  0.0000  0.0000
                                           -0.0000 -0.0000 -0.0000 -0.0000
    10. (2.00000) CR ( 7)Br   3           s(  0.00%)p 1.00(100.00%)
                                           -0.0000  0.0000  0.0000  0.0000  0.0000
                                            0.0000 -0.0000 -0.0000 -0.0000  0.0000
                                            0.0000 -0.0000 -0.0000 -0.0000  1.0000
                                            0.0000  0.0000 -0.0000 -0.0000 -0.0000
                                           -0.0000  0.0000  0.0000 -0.0000  0.0000
                                           -0.0000  0.0000 -0.0000  0.0000 -0.0000
                                            0.0000 -0.0000  0.0000 -0.0000  0.0000
                                           -0.0000  0.0000  0.0000 -0.0000  0.0000
                                            0.0000  0.0000 -0.0000  0.0000  0.0000
                                           -0.0000 -0.0000 -0.0000 -0.0000 -0.0000
                                           -0.0000 -0.0000 -0.0000  0.0000  0.0000
                                           -0.0000 -0.0000 -0.0000 -0.0000
    11. (2.00002) CR ( 8)Br   3           s(  0.00%)p 1.00(100.00%)
                                           -0.0000  0.0000  0.0000  0.0000  0.0000
                                           -0.0000  0.0000 -0.0000 -0.0000  0.0000
                                            0.0000 -0.0000 -0.0000 -0.0000 -0.0000
                                            0.0000 -0.0000 -0.0000  0.0000  1.0000
                                           -0.0000 -0.0000  0.0000 -0.0000  0.0000
                                           -0.0000  0.0000 -0.0000  0.0000 -0.0000
                                           -0.0000  0.0000 -0.0000 -0.0000  0.0000
                                           -0.0000  0.0000  0.0000 -0.0000  0.0000
                                            0.0000  0.0000 -0.0000  0.0000 -0.0000
                                           -0.0000 -0.0000 -0.0000 -0.0000 -0.0000
                                           -0.0000 -0.0000 -0.0000  0.0000 -0.0000
                                           -0.0000 -0.0000 -0.0000 -0.0000
    12. (2.00000) CR ( 9)Br   3           s(  0.00%)p 1.00(100.00%)
                                           -0.0000  0.0000  0.0000  0.0000  0.0000
                                           -0.0000  0.0000 -0.0000 -0.0000  0.0000
                                            0.0000 -0.0000 -0.0000 -0.0000 -0.0000
                                            0.0000 -0.0000 -0.0000  0.0000 -0.0000
                                            1.0000 -0.0000  0.0000 -0.0000  0.0000
                                           -0.0000  0.0000 -0.0000  0.0000 -0.0000
                                            0.0000  0.0000 -0.0000 -0.0000  0.0000
                                           -0.0000  0.0000  0.0000 -0.0000  0.0000
                                            0.0000  0.0000 -0.0000  0.0000 -0.0000
                                           -0.0000 -0.0000 -0.0000 -0.0000 -0.0000
                                           -0.0000 -0.0000 -0.0000  0.0000  0.0000
                                           -0.0000 -0.0000 -0.0000 -0.0000
    13. (1.99768) CR (10)Br   3           s(  0.00%)p 0.00(  0.00%)d 1.00(100.00%)
                                           -0.0000  0.0000  0.0000  0.0000  0.0000
                                            0.0000  0.0000 -0.0000 -0.0000  0.0000
                                            0.0000 -0.0000 -0.0000 -0.0000 -0.0000
                                            0.0000 -0.0000 -0.0000 -0.0000 -0.0000
                                           -0.0000  0.0000  0.0000 -0.0000  0.0000
                                            1.0000  0.0000 -0.0000  0.0000 -0.0000
                                            0.0000 -0.0000  0.0000 -0.0000  0.0000
                                           -0.0000  0.0000  0.0000 -0.0000  0.0000
                                            0.0000  0.0000 -0.0000  0.0000 -0.0000
                                           -0.0000 -0.0000 -0.0000 -0.0000 -0.0000
                                           -0.0000 -0.0000 -0.0000  0.0000  0.0000
                                           -0.0000 -0.0000 -0.0000 -0.0000
    14. (1.99769) CR (11)Br   3           s(  0.00%)p 0.00(  0.00%)d 1.00(100.00%)
                                           -0.0000  0.0000  0.0000  0.0000  0.0000
                                            0.0000 -0.0000  0.0000 -0.0000  0.0000
                                            0.0000  0.0000 -0.0000 -0.0000 -0.0000
                                            0.0000  0.0000 -0.0000 -0.0000 -0.0000
                                           -0.0000  0.0000  0.0000 -0.0000  0.0000
                                           -0.0000  0.0000 -0.0000  0.0000  1.0000
                                            0.0000 -0.0000  0.0000 -0.0000  0.0000
                                           -0.0000  0.0000  0.0000 -0.0000  0.0000
                                            0.0000  0.0000 -0.0000  0.0000 -0.0000
                                           -0.0000 -0.0000 -0.0000 -0.0000 -0.0000
                                           -0.0000 -0.0000 -0.0000  0.0000  0.0000
                                           -0.0000 -0.0000 -0.0000 -0.0000
    15. (1.99768) CR (12)Br   3           s(  0.00%)p 0.00(  0.00%)d 1.00(100.00%)
                                           -0.0000  0.0000  0.0000  0.0000  0.0000
                                            0.0000 -0.0000 -0.0000 -0.0000  0.0000
                                            0.0000 -0.0000 -0.0000 -0.0000 -0.0000
                                            0.0000 -0.0000 -0.0000 -0.0000 -0.0000
                                           -0.0000  0.0000  0.0000 -0.0000  0.0000
                                           -0.0000  0.0000 -0.0000  0.0000 -0.0000
                                            0.0000 -0.0000  0.0000  1.0000  0.0000
                                           -0.0000  0.0000  0.0000 -0.0000  0.0000
                                            0.0000  0.0000 -0.0000  0.0000  0.0000
                                           -0.0000 -0.0000 -0.0000 -0.0000 -0.0000
                                           -0.0000 -0.0000 -0.0000  0.0000  0.0000
                                           -0.0000 -0.0000 -0.0000 -0.0000
    16. (1.99767) CR (13)Br   3           s(  0.00%)p 0.00(  0.00%)d 1.00(100.00%)
                                            0.0000 -0.0000 -0.0000 -0.0000 -0.0000
                                           -0.0000 -0.0000  0.0000  0.0000 -0.0000
                                           -0.0000  0.0000  0.0000  0.0000  0.0000
                                           -0.0001  0.0000  0.0000  0.0000  0.0000
                                            0.0000 -0.0000 -0.0000  0.0000 -0.0000
                                            0.0000 -0.0000  0.0000 -0.0000  0.0000
                                           -0.0000  0.0000 -0.0000  0.0000 -0.0000
                                            0.0000 -0.0000  1.0000  0.0000 -0.0000
                                           -0.0000 -0.0000  0.0000 -0.0000  0.0000
                                            0.0000  0.0000  0.0000  0.0000  0.0000
                                            0.0000  0.0000  0.0000 -0.0000 -0.0000
                                            0.0000  0.0000  0.0000  0.0000
    17. (1.99768) CR (14)Br   3           s(  0.00%)p 0.00(  0.00%)d 1.00(100.00%)
                                            0.0000 -0.0000 -0.0000 -0.0000 -0.0000
                                           -0.0000 -0.0000  0.0000  0.0000 -0.0000
                                           -0.0000  0.0000  0.0000  0.0000  0.0000
                                           -0.0000  0.0000  0.0000 -0.0000  0.0000
                                            0.0000 -0.0000 -0.0000  0.0000 -0.0000
                                            0.0000 -0.0000  0.0000 -0.0000  0.0000
                                           -0.0000  0.0000 -0.0000  0.0000 -0.0000
                                            0.0000 -0.0000 -0.0000  0.0000 -0.0000
                                           -0.0000  1.0000  0.0000 -0.0000  0.0000
                                            0.0000  0.0000  0.0000  0.0000  0.0000
                                            0.0000  0.0000  0.0000 -0.0000 -0.0000
                                            0.0000  0.0000  0.0000  0.0000
    18. (1.97057) LP ( 1) O   1           s( 54.46%)p 0.83( 45.41%)d 0.00(  0.12%)
                                                  f 0.00(  0.00%)
                                            0.0003  0.7379  0.0037 -0.0008  0.0024
                                           -0.4152 -0.0025  0.0035 -0.0013  0.4565
                                            0.0093 -0.0041  0.0003 -0.2706 -0.0051
                                            0.0021  0.0008  0.0258 -0.0027 -0.0024
                                           -0.0180  0.0030  0.0004  0.0137 -0.0022
                                            0.0003  0.0016  0.0009 -0.0032  0.0052
                                           -0.0009  0.0012  0.0038 -0.0015  0.0010
                                           -0.0001 -0.0005  0.0003  0.0002  0.0005
                                            0.0023 -0.0004  0.0002  0.0001  0.0036
                                           -0.0021
    19. (1.96106) LP ( 2) O   1           s(  0.03%)p99.99( 99.66%)d10.72(  0.29%)
                                                  f 0.97(  0.03%)
                                            0.0000  0.0126 -0.0083 -0.0063 -0.0001
                                            0.0034 -0.0006  0.0004 -0.0013 -0.5216
                                           -0.0157  0.0029 -0.0008 -0.8506 -0.0282
                                            0.0066 -0.0028 -0.0216  0.0071 -0.0038
                                           -0.0356  0.0112 -0.0061  0.0082  0.0019
                                           -0.0044 -0.0118 -0.0002  0.0025 -0.0258
                                            0.0011  0.0037  0.0056 -0.0027  0.0013
                                           -0.0003  0.0094 -0.0027 -0.0088  0.0041
                                           -0.0010  0.0002  0.0007  0.0005 -0.0044
                                            0.0027
    20. (1.98064) LP ( 1)Br   3           s( 98.96%)p 0.01(  1.04%)d 0.00(  0.00%)
                                                  f 0.00(  0.00%)
                                            0.0000 -0.0000 -0.0000  0.9948 -0.0002
                                           -0.0000 -0.0000 -0.0000 -0.0000 -0.0185
                                            0.0003 -0.0001  0.0001 -0.0000 -0.0000
                                           -0.0969  0.0005 -0.0005  0.0001 -0.0000
                                           -0.0000 -0.0259  0.0005 -0.0001  0.0001
                                           -0.0000  0.0007 -0.0002 -0.0001 -0.0000
                                            0.0002 -0.0001 -0.0000 -0.0000  0.0011
                                           -0.0004 -0.0001  0.0000 -0.0010  0.0003
                                            0.0002  0.0000 -0.0008  0.0002  0.0001
                                           -0.0003 -0.0003 -0.0001 -0.0001 -0.0003
                                           -0.0002 -0.0004 -0.0003  0.0002  0.0001
                                           -0.0003 -0.0002 -0.0003 -0.0002
    21. (1.95411) LP ( 2)Br   3           s(  0.00%)p 1.00( 99.99%)d 0.00(  0.00%)
                                                  f 0.00(  0.00%)
                                           -0.0000 -0.0000 -0.0000  0.0050 -0.0001
                                           -0.0009  0.0018  0.0000  0.0000  0.5654
                                            0.0006  0.0005 -0.0002  0.0000  0.0000
                                            0.1594 -0.0011 -0.0003  0.0002 -0.0000
                                           -0.0000 -0.8092  0.0007 -0.0004 -0.0000
                                           -0.0000  0.0030 -0.0010  0.0001 -0.0000
                                            0.0001 -0.0000  0.0000  0.0000 -0.0020
                                            0.0001  0.0011  0.0000  0.0015 -0.0008
                                            0.0013  0.0000 -0.0036  0.0018 -0.0016
                                            0.0003  0.0001 -0.0005 -0.0004 -0.0016
                                           -0.0013  0.0005  0.0002  0.0003  0.0002
                                           -0.0008 -0.0005  0.0004  0.0004
    22. (1.95395) LP ( 3)Br   3           s(  0.01%)p 1.00( 99.99%)d 0.00(  0.00%)
                                                  f 0.00(  0.00%)
                                           -0.0000 -0.0000 -0.0000  0.0062 -0.0009
                                           -0.0024  0.0036 -0.0000 -0.0000 -0.7993
                                           -0.0009 -0.0009  0.0003  0.0000  0.0000
                                            0.3476 -0.0017 -0.0004  0.0011 -0.0000
                                           -0.0000 -0.4900  0.0006 -0.0002 -0.0000
                                            0.0000 -0.0033  0.0007  0.0003  0.0000
                                           -0.0033  0.0017 -0.0016  0.0000 -0.0001
                                           -0.0004  0.0011  0.0000 -0.0031  0.0013
                                           -0.0004  0.0000 -0.0012  0.0005 -0.0000
                                            0.0001 -0.0000  0.0001  0.0000 -0.0010
                                           -0.0007 -0.0004 -0.0005 -0.0013 -0.0011
                                            0.0006  0.0003 -0.0012 -0.0009
    23. (1.93226) LP ( 4)Br   3           s(  1.03%)p95.83( 98.94%)d 0.02(  0.02%)
                                                  f 0.00(  0.00%)
                                           -0.0000  0.0000  0.0000  0.1016  0.0017
                                            0.0006  0.0002 -0.0000 -0.0000  0.2023
                                            0.0008 -0.0001 -0.0004 -0.0001 -0.0000
                                            0.9188 -0.0003 -0.0013 -0.0001 -0.0000
                                           -0.0000  0.3230  0.0025 -0.0003  0.0002
                                           -0.0000  0.0051 -0.0014  0.0005 -0.0000
                                            0.0025 -0.0007  0.0003 -0.0000  0.0104
                                           -0.0031  0.0015  0.0001 -0.0077  0.0018
                                            0.0004  0.0000 -0.0038  0.0010 -0.0001
                                           -0.0019 -0.0011 -0.0003 -0.0002 -0.0010
                                           -0.0008 -0.0023 -0.0014  0.0010  0.0004
                                           -0.0014 -0.0008 -0.0016 -0.0010
    24. (0.02025) RY*( 1) O   1           s(  0.07%)p99.99( 97.26%)d36.05(  2.59%)
                                                  f 1.13(  0.08%)
                                            0.0000 -0.0005  0.0225  0.0146  0.0006
                                            0.0002  0.0007 -0.0016  0.0028 -0.0208
                                            0.5155  0.0202 -0.0096 -0.0351  0.8389
                                            0.0285 -0.0123  0.0754 -0.0195  0.0089
                                            0.1181 -0.0308  0.0150 -0.0144 -0.0005
                                            0.0058  0.0238 -0.0038 -0.0008  0.0607
                                           -0.0099 -0.0007 -0.0092  0.0071  0.0025
                                            0.0004 -0.0101  0.0097  0.0141 -0.0113
                                           -0.0004 -0.0008  0.0026 -0.0012  0.0093
                                           -0.0072
    25. (0.01526) RY*( 2) O   1           s( 21.18%)p 3.55( 75.19%)d 0.16(  3.49%)
                                                  f 0.01(  0.14%)
                                            0.0000 -0.0105  0.4600 -0.0115  0.0008
                                            0.0103 -0.4793 -0.0139  0.0028 -0.0088
                                            0.6110  0.0100 -0.0110  0.0037 -0.3847
                                           -0.0098  0.0083  0.1461 -0.0134 -0.0036
                                           -0.1080  0.0145 -0.0025  0.0344 -0.0085
                                           -0.0036 -0.0047  0.0043 -0.0079  0.0073
                                           -0.0083  0.0036  0.0052 -0.0062 -0.0073
                                            0.0027 -0.0074  0.0041 -0.0149  0.0058
                                            0.0124 -0.0053  0.0155 -0.0046  0.0199
                                           -0.0109
    26. (0.00715) RY*( 3) O   1           s(  4.57%)p12.98( 59.36%)d 7.73( 35.36%)
                                                  f 0.15(  0.70%)
                                            0.0000  0.0035  0.2094 -0.0403  0.0156
                                           -0.0567 -0.6179 -0.0199 -0.0132 -0.0242
                                           -0.3844 -0.0142 -0.0068  0.0124  0.2416
                                            0.0202 -0.0225 -0.4026 -0.0002 -0.0080
                                            0.0532 -0.0059  0.0064  0.0762  0.0260
                                           -0.0124  0.4062  0.0530 -0.0257  0.1158
                                           -0.0029  0.0071  0.0098 -0.0006 -0.0234
                                            0.0099 -0.0068  0.0057  0.0244 -0.0069
                                           -0.0183  0.0053  0.0106 -0.0051 -0.0654
                                            0.0281
    27. (0.00629) RY*( 4) O   1           s(  0.42%)p20.36(  8.60%)d99.99( 89.77%)
                                                  f 2.88(  1.21%)
                                           -0.0000  0.0024  0.0628  0.0165 -0.0009
                                            0.0249  0.2462  0.0179 -0.0050  0.0215
                                            0.1502  0.0153 -0.0120 -0.0042 -0.0305
                                            0.0036  0.0008 -0.4265 -0.0367  0.0139
                                           -0.5263 -0.0428  0.0116 -0.3559 -0.0284
                                            0.0071  0.0644 -0.0008  0.0048  0.5489
                                            0.0466 -0.0110  0.0348 -0.0144  0.0050
                                            0.0008 -0.0510  0.0226 -0.0629  0.0256
                                           -0.0026  0.0015 -0.0303  0.0107 -0.0414
                                            0.0153
    28. (0.00622) RY*( 5) O   1           s( 11.39%)p 0.51(  5.77%)d 7.19( 81.82%)
                                                  f 0.09(  1.02%)
                                           -0.0000  0.0132  0.3369  0.0125 -0.0016
                                            0.0092  0.2029  0.0150 -0.0075  0.0253
                                            0.0913  0.0008 -0.0054 -0.0210 -0.0819
                                           -0.0068 -0.0025 -0.5814 -0.0311  0.0144
                                            0.5672  0.0362 -0.0132  0.0616  0.0161
                                           -0.0084 -0.3873 -0.0352  0.0109  0.0170
                                            0.0055 -0.0043 -0.0375  0.0158  0.0210
                                           -0.0020  0.0164 -0.0039  0.0125  0.0003
                                           -0.0500  0.0198 -0.0654  0.0177 -0.0124
                                            0.0001
    29. (0.00593) RY*( 6) O   1           s(  0.12%)p21.19(  2.48%)d99.99( 96.55%)
                                                  f 7.33(  0.86%)
                                           -0.0000  0.0009  0.0342  0.0001  0.0005
                                            0.0036  0.0412  0.0024 -0.0022 -0.0198
                                           -0.0577 -0.0017 -0.0142 -0.0397 -0.1320
                                           -0.0092 -0.0079  0.3814  0.0409 -0.0110
                                            0.5511  0.0624 -0.0183 -0.3266 -0.0281
                                            0.0024  0.2743  0.0261 -0.0008  0.5690
                                            0.0554 -0.0061 -0.0199  0.0066  0.0322
                                           -0.0115 -0.0659  0.0276  0.0298 -0.0110
                                           -0.0136  0.0047  0.0202 -0.0069  0.0129
                                           -0.0036
    30. (0.00565) RY*( 7) O   1           s(  6.56%)p 0.81(  5.34%)d13.32( 87.45%)
                                                  f 0.10(  0.65%)
                                           -0.0000  0.0223  0.2552 -0.0030 -0.0039
                                            0.0328  0.1368  0.0124 -0.0054 -0.0381
                                           -0.1597 -0.0184 -0.0050  0.0177  0.0762
                                            0.0046  0.0002  0.2125  0.0230 -0.0048
                                           -0.1477 -0.0173  0.0050  0.7355  0.0884
                                           -0.0086 -0.1627 -0.0201  0.0039  0.4774
                                            0.0546 -0.0048  0.0474 -0.0184  0.0317
                                           -0.0113  0.0047 -0.0017  0.0253 -0.0105
                                            0.0386 -0.0144 -0.0121  0.0040  0.0104
                                           -0.0022
    31. (0.00294) RY*( 8) O   1           s( 10.32%)p 2.25( 23.26%)d 6.34( 65.47%)
                                                  f 0.09(  0.94%)
                                           -0.0000 -0.0041  0.3206  0.0210 -0.0022
                                            0.0297 -0.2288  0.0157 -0.0475  0.0241
                                           -0.3543 -0.0342 -0.0547 -0.0151  0.2126
                                            0.0305 -0.0166  0.2517  0.0645  0.0006
                                           -0.1380 -0.0326  0.0001 -0.4191 -0.0503
                                           -0.0385 -0.6129 -0.0773 -0.0602  0.0296
                                           -0.0282  0.0223 -0.0228  0.0192  0.0142
                                           -0.0066 -0.0265  0.0184 -0.0585  0.0322
                                            0.0101 -0.0119 -0.0214  0.0053  0.0431
                                           -0.0141
    32. (0.00226) RY*( 9) O   1           s( 43.58%)p 0.53( 23.12%)d 0.75( 32.63%)
                                                  f 0.02(  0.66%)
                                            0.0000 -0.0062  0.6575  0.0230 -0.0546
                                           -0.0117  0.4463  0.0590 -0.0063 -0.0055
                                           -0.1319 -0.0374 -0.0648 -0.0005  0.0712
                                            0.0173  0.0017  0.1242  0.0518 -0.0101
                                           -0.0810 -0.0366  0.0092 -0.0911 -0.0314
                                           -0.0191  0.4022  0.0971  0.0632 -0.3176
                                           -0.1159 -0.0312 -0.0165  0.0118 -0.0258
                                            0.0384 -0.0175  0.0160 -0.0046  0.0108
                                            0.0149 -0.0034  0.0319 -0.0424 -0.0167
                                            0.0021
    33. (0.00067) RY*(10) O   1           s( 53.75%)p 0.65( 35.04%)d 0.10(  5.40%)
                                                  f 0.11(  5.81%)
                                            0.0000 -0.0039 -0.0528  0.7303  0.0354
                                           -0.0009 -0.0334 -0.0364 -0.0371 -0.0031
                                            0.0212 -0.5659 -0.1382 -0.0051 -0.0141
                                            0.0597  0.0553 -0.0263  0.0055 -0.0394
                                            0.0128  0.0782  0.0094  0.0415 -0.0030
                                            0.1079  0.0142 -0.0001  0.0062  0.0120
                                           -0.1539  0.0889  0.0131 -0.0356 -0.0449
                                            0.0121 -0.2034  0.0440 -0.0871 -0.0259
                                            0.0311  0.0080 -0.0170  0.0257  0.0193
                                            0.0252
    34. (0.00056) RY*(11) O   1           s(  0.09%)p70.10(  6.46%)d99.99( 73.34%)
                                                  f99.99( 20.11%)
                                            0.0000 -0.0022 -0.0104 -0.0164  0.0232
                                           -0.0002 -0.0020  0.2322 -0.0321  0.0101
                                            0.0361  0.0202  0.0278  0.0143  0.0337
                                            0.0610  0.0446 -0.0135  0.5730  0.0223
                                           -0.0206  0.6084  0.0310  0.0065  0.0162
                                            0.0084 -0.0026  0.0649 -0.0018 -0.0261
                                            0.1658 -0.0093  0.1588 -0.0228 -0.0574
                                           -0.0024  0.1261 -0.0107 -0.2851  0.0323
                                            0.0233  0.0072 -0.1150  0.0000 -0.2433
                                            0.0277
    35. (0.00056) RY*(12) O   1           s(  1.19%)p49.63( 58.90%)d29.60( 35.13%)
                                                  f 4.03(  4.78%)
                                            0.0000 -0.0029 -0.0396  0.0798  0.0627
                                           -0.0031 -0.0150  0.2758 -0.0501  0.0039
                                            0.0132  0.3014 -0.0430 -0.0001 -0.0545
                                            0.6428  0.0341  0.0093  0.0935  0.0102
                                            0.0262 -0.1956  0.0309 -0.0051  0.3877
                                            0.0559  0.0267 -0.2247 -0.0052  0.0139
                                           -0.3123 -0.0002 -0.0704  0.0015  0.0364
                                            0.0057 -0.1403  0.0263 -0.0412 -0.0198
                                           -0.0374  0.0056 -0.0645  0.0198 -0.1135
                                            0.0142
    36. (0.00053) RY*(13) O   1           s(  0.52%)p88.36( 46.21%)d75.14( 39.30%)
                                                  f26.72( 13.97%)
                                            0.0000 -0.0053 -0.0323 -0.0448  0.0464
                                           -0.0051 -0.0308  0.5428 -0.0536  0.0025
                                            0.0419 -0.3029 -0.0406 -0.0074 -0.0157
                                           -0.2534 -0.0627 -0.0035  0.2767  0.0024
                                           -0.0034 -0.4318 -0.0416 -0.0190  0.1879
                                            0.0026  0.0108  0.0595  0.0072 -0.0201
                                            0.2957  0.0309 -0.2830  0.0057  0.0649
                                            0.0023  0.0767 -0.0078  0.1474 -0.0120
                                           -0.0970  0.0076 -0.1232  0.0040 -0.0541
                                            0.0046
    37. (0.00046) RY*(14) O   1           s(  1.15%)p15.49( 17.76%)d 4.98(  5.71%)
                                                  f65.73( 75.39%)
                                           -0.0000  0.0040 -0.0048  0.1068 -0.0050
                                            0.0042  0.0072 -0.2884  0.0036  0.0057
                                            0.0076  0.1602  0.0001 -0.0055 -0.0038
                                           -0.2539 -0.0643  0.0178  0.1472  0.0333
                                           -0.0086 -0.0609 -0.0056  0.0274 -0.0159
                                            0.0402 -0.0328 -0.0515 -0.0266  0.0190
                                           -0.1502 -0.0131 -0.4874 -0.0439  0.1147
                                            0.0068 -0.0757 -0.0089 -0.0710 -0.0261
                                            0.1258  0.0055  0.2106  0.0215 -0.6546
                                           -0.0212
    38. (0.00044) RY*(15) O   1           s(  0.34%)p10.20(  3.44%)d23.14(  7.82%)
                                                  f99.99( 88.40%)
                                            0.0000  0.0010 -0.0034  0.0529  0.0238
                                           -0.0013 -0.0020 -0.0215 -0.0217 -0.0037
                                           -0.0142  0.1576  0.0175 -0.0030 -0.0036
                                            0.0830  0.0348  0.0302 -0.0637  0.0073
                                           -0.0030 -0.0152 -0.0124  0.0467 -0.2247
                                           -0.0089  0.0037  0.1076  0.0260  0.0278
                                            0.0728  0.0411 -0.4078 -0.0442 -0.6891
                                           -0.0710 -0.0536  0.0004 -0.0480 -0.0228
                                            0.0624  0.0037 -0.4714 -0.0443  0.0457
                                            0.0024
    39. (0.00044) RY*(16) O   1           s(  0.16%)p42.60(  6.91%)d67.47( 10.94%)
                                                  f99.99( 81.99%)
                                            0.0000  0.0006 -0.0039 -0.0161  0.0367
                                           -0.0021 -0.0087  0.1590 -0.0098 -0.0055
                                           -0.0064  0.1973  0.0313 -0.0010  0.0105
                                           -0.0595  0.0025 -0.0350  0.0865 -0.0138
                                           -0.0246  0.1170  0.0141  0.0530 -0.1839
                                            0.0167 -0.0299  0.1020 -0.0165 -0.0720
                                            0.1789 -0.0192 -0.0095 -0.0063  0.1434
                                            0.0209 -0.8620 -0.1008  0.1803  0.0197
                                            0.0124  0.0081  0.0536  0.0078  0.0976
                                           -0.0004
    40. (0.00044) RY*(17) O   1           s(  0.91%)p 1.37(  1.25%)d 3.47(  3.17%)
                                                  f99.99( 94.67%)
                                           -0.0000 -0.0000 -0.0047  0.0770  0.0563
                                            0.0030 -0.0084  0.0853  0.0135  0.0005
                                            0.0055  0.0665  0.0165 -0.0030 -0.0100
                                           -0.0048 -0.0087 -0.0479  0.0896 -0.0452
                                            0.0394 -0.0938  0.0168 -0.0342 -0.0601
                                           -0.0281  0.0078 -0.0467 -0.0247 -0.0023
                                           -0.0039  0.0149  0.1419  0.0242  0.0506
                                            0.0183  0.1005  0.0136  0.2232  0.0170
                                            0.9186  0.1040 -0.0807 -0.0092  0.0374
                                            0.0119
[...]
                                           -0.0164  0.7658 -0.0617 -0.0131  0.1375
                                           -0.0229 -0.0004  0.6134 -0.0209 -0.0126
                                           -0.0041 -0.0007 -0.0407 -0.0202 -0.0006
                                           -0.0048  0.0036 -0.0695  0.0007  0.0702
                                           -0.0151  0.0243 -0.0170
   129. (0.00425) RY*( 2) H   4           s( 16.75%)p 4.90( 82.13%)d 0.07(  1.13%)
                                            0.0061  0.4079  0.0259  0.0180 -0.0964
                                            0.0119 -0.0132 -0.4869  0.0037 -0.0130
                                           -0.7459 -0.1319 -0.0239 -0.0329 -0.0025
                                           -0.0395  0.0227  0.0341 -0.0295 -0.0063
                                            0.0510  0.0387  0.0441
   130. (0.00357) RY*( 3) H   4           s(  5.63%)p16.59( 93.34%)d 0.18(  1.04%)
                                           -0.0223  0.1793  0.1525 -0.0189  0.8397
                                           -0.0051  0.0156 -0.4023  0.0188 -0.0104
                                            0.2552  0.0197 -0.0121 -0.0391  0.0077
                                           -0.0267 -0.0016  0.0126 -0.0115  0.0710
                                            0.0043 -0.0517  0.0058
   131. (0.00198) RY*( 4) H   4           s( 24.76%)p 2.99( 74.10%)d 0.05(  1.15%)
                                           -0.0081  0.4244  0.2528  0.0591 -0.4872
                                            0.0145 -0.0020 -0.3807  0.2178 -0.0181
                                            0.5447  0.0841 -0.0834  0.0517 -0.0306
                                            0.0563 -0.0060  0.0525 -0.0056  0.0065
                                            0.0329  0.0240  0.0127
   132. (0.00048) RY*( 5) H   4           s( 22.91%)p 2.66( 60.88%)d 0.71( 16.21%)
                                            0.0037 -0.0941  0.4692 -0.0113  0.0816
                                            0.3269 -0.0443  0.1849  0.3195 -0.0055
                                           -0.2341  0.5369 -0.1179  0.0192  0.0046
                                            0.1170 -0.0571  0.3254 -0.0031  0.0609
                                            0.0123  0.1872 -0.0035
   133. (0.00038) RY*( 6) H   4           s(  3.10%)p28.21( 87.44%)d 3.05(  9.46%)
                                           -0.0012 -0.0224 -0.0002  0.1746  0.0452
                                           -0.8442  0.0959  0.0356  0.3071 -0.0585
                                           -0.0738  0.2043  0.0662 -0.0784 -0.1330
                                            0.0042  0.0539  0.1682 -0.0011 -0.1797
                                           -0.0355  0.0724 -0.0274
   134. (0.00030) RY*( 7) H   4           s( 11.39%)p 4.74( 54.03%)d 3.03( 34.58%)
                                            0.0000  0.0537  0.2786 -0.1828 -0.0077
                                           -0.0840  0.2238  0.0385 -0.2243  0.6071
                                            0.0004 -0.1857  0.1680  0.2207  0.1053
                                            0.1025 -0.0842  0.3176 -0.1545 -0.2501
                                           -0.2716 -0.0495 -0.0700
   135. (0.00024) RY*( 8) H   4           s(  3.33%)p 5.39( 17.93%)d23.65( 78.74%)
                                           -0.0030  0.0321 -0.1091  0.1427  0.0225
                                            0.2073 -0.1285  0.0053  0.2392  0.2371
                                            0.0353  0.0333 -0.0595 -0.4908  0.1619
                                           -0.3337 -0.1524 -0.0821  0.0075 -0.6067
                                           -0.0232 -0.0507 -0.0874
   136. (0.00020) RY*( 9) H   4           s(  2.37%)p12.95( 30.75%)d28.17( 66.87%)
                                            0.0087  0.0056  0.1431 -0.0561 -0.0520
                                           -0.0549 -0.1420  0.0340 -0.4234 -0.2288
                                            0.1026 -0.1732  0.0915 -0.4720 -0.0651
                                           -0.1809 -0.0740  0.5266  0.0563  0.0633
                                            0.0817  0.2935  0.1618
   137. (0.00015) RY*(10) H   4           s( 17.04%)p 3.45( 58.82%)d 1.42( 24.14%)
                                           -0.0128 -0.1135  0.3875 -0.0848  0.0515
                                           -0.0531 -0.0020  0.1725  0.2966 -0.1124
                                           -0.0231 -0.5747 -0.3488  0.0659 -0.1309
                                           -0.0075 -0.0458 -0.1030 -0.1705 -0.1496
                                            0.1988 -0.0381  0.3388
   138. (0.00016) RY*(11) H   4           s( 13.61%)p 1.28( 17.46%)d 5.06( 68.93%)
                                            0.0006  0.0531 -0.2459  0.2698  0.1034
                                            0.1765  0.0083 -0.0029  0.0736 -0.2191
                                            0.0489 -0.1592  0.2269  0.3125  0.1649
                                            0.4039  0.0195  0.2363  0.1938 -0.4275
                                            0.1606  0.2808  0.1421
   139. (0.00011) RY*(12) H   4           s(  2.90%)p19.16( 55.56%)d14.32( 41.54%)
                                            0.0111  0.0029 -0.0661  0.1565 -0.0021
                                           -0.0977  0.0708 -0.0404 -0.4255 -0.0510
                                            0.0111  0.2606 -0.5364 -0.0892  0.2089
                                            0.3257 -0.0239 -0.0549 -0.4503 -0.1787
                                            0.1139 -0.0091  0.0801
   140. (0.00009) RY*(13) H   4           s(  3.24%)p18.20( 58.97%)d11.66( 37.79%)
   141. (0.00009) RY*(14) H   4           s(  3.40%)p 5.70( 19.38%)d22.71( 77.21%)
   142. (0.00009) RY*(15) H   4           s(  0.99%)p 7.02(  6.94%)d93.15( 92.07%)
   143. (0.00007) RY*(16) H   4           s( 16.91%)p 0.10(  1.63%)d 4.82( 81.46%)
   144. (0.00007) RY*(17) H   4           s( 27.91%)p 0.87( 24.23%)d 1.72( 47.87%)
   145. (0.00004) RY*(18) H   4           s(  2.74%)p10.92( 29.93%)d24.57( 67.33%)
   146. (0.00005) RY*(19) H   4           s(  2.49%)p 9.56( 23.81%)d29.59( 73.70%)
   147. (0.00005) RY*(20) H   4           s( 47.80%)p 0.13(  6.26%)d 0.96( 45.94%)
   148. (0.00004) RY*(21) H   4           s(  6.85%)p 2.20( 15.05%)d11.39( 78.09%)
   149. (0.00002) RY*(22) H   4           s(  4.95%)p 8.38( 41.45%)d10.84( 53.60%)
   150. (0.02143) BD*( 1) O   1 - H   2  
                ( 27.11%)   0.5207* O   1 s( 20.94%)p 3.75( 78.60%)d 0.02(  0.45%)
                                                  f 0.00(  0.01%)
                                           -0.0002 -0.4575  0.0073 -0.0024  0.0047
                                           -0.8839  0.0326 -0.0083  0.0008 -0.0533
                                            0.0132 -0.0014  0.0031  0.0223 -0.0090
                                            0.0009 -0.0015  0.0154 -0.0006 -0.0022
                                           -0.0135  0.0023 -0.0001  0.0041  0.0004
                                           -0.0016 -0.0539  0.0034 -0.0031  0.0334
                                           -0.0016  0.0007 -0.0000 -0.0002  0.0069
                                            0.0013  0.0003 -0.0000  0.0005  0.0000
                                            0.0054 -0.0017 -0.0050 -0.0025 -0.0013
                                            0.0002
                ( 72.89%)  -0.8538* H   2 s( 99.89%)p 0.00(  0.10%)d 0.00(  0.01%)
                                           -0.9995 -0.0036  0.0002 -0.0001  0.0007
                                           -0.0306  0.0041 -0.0029 -0.0000  0.0010
                                           -0.0006 -0.0016  0.0001 -0.0021  0.0020
                                           -0.0010 -0.0008  0.0019  0.0007 -0.0074
                                            0.0016  0.0045 -0.0006
   151. (0.04030) BD*( 1) O   1 - H   4  
                ( 23.44%)   0.4841* O   1 s( 24.50%)p 3.06( 75.04%)d 0.02(  0.45%)
                                                  f 0.00(  0.01%)
                                            0.0003  0.4950 -0.0009 -0.0001 -0.0010
                                           -0.1993  0.0188  0.0001 -0.0020 -0.7152
                                            0.0154 -0.0071  0.0025  0.4454 -0.0076
                                            0.0053 -0.0043 -0.0073  0.0051 -0.0027
                                            0.0040 -0.0030  0.0017 -0.0539  0.0026
                                            0.0020 -0.0372  0.0022 -0.0002 -0.0067
                                           -0.0009  0.0021 -0.0088  0.0008  0.0006
                                           -0.0005  0.0000 -0.0008 -0.0049 -0.0021
                                            0.0028  0.0008  0.0016  0.0013 -0.0025
                                            0.0036
                ( 76.56%)  -0.8750* H   4 s( 99.87%)p 0.00(  0.12%)d 0.00(  0.01%)
                                            0.9992  0.0157  0.0004 -0.0001  0.0190
                                           -0.0005 -0.0003  0.0024  0.0197  0.0067
                                            0.0148 -0.0129 -0.0051  0.0003 -0.0024
                                           -0.0004  0.0016 -0.0016 -0.0003  0.0069
                                           -0.0008 -0.0025 -0.0010


 NHO Directionality and "Bond Bending" (deviations from line of nuclear centers)

         [Thresholds for printing:  angular deviation  >  1.0 degree]
                                    hybrid p-character > 25.0%
                                    orbital occupancy  >  0.10e

                                Line of Centers        Hybrid 1              Hybrid 2
                                ---------------  -------------------   ------------------
                NBO               Theta   Phi    Theta   Phi    Dev    Theta   Phi    Dev
 ========================================================================================
     1. BD (   1) O   1 - H   2    90.0    0.0    90.8    2.6   2.7      --     --    --
     2. BD (   1) O   1 - H   4    60.0  258.3    58.9  255.5   2.6      --     --    --
    18. LP (   1) O   1             --     --    113.7  132.0   --       --     --    --
    19. LP (   2) O   1             --     --    148.5  270.2   --       --     --    --
    21. LP (   2)Br   3             --     --    144.0   15.6   --       --     --    --
    22. LP (   3)Br   3             --     --    119.3  156.6   --       --     --    --
    23. LP (   4)Br   3             --     --     70.9   77.5   --       --     --    --


 Natural Bond Orbitals (Summary):

           NBO                  Occupancy  
 -----------------------------------------------
 Molecular unit  1  (H2O)
     1. BD (   1) O   1 - H   2          1.96627
     2. BD (   1) O   1 - H   4          1.96750
     3. CR (   1) O   1                  1.99968
    18. LP (   1) O   1                  1.97057
    19. LP (   2) O   1                  1.96106
    24. RY*(   1) O   1                  0.02025
    25. RY*(   2) O   1                  0.01526
    26. RY*(   3) O   1                  0.00715
    27. RY*(   4) O   1                  0.00629
    28. RY*(   5) O   1                  0.00622
    29. RY*(   6) O   1                  0.00593
    30. RY*(   7) O   1                  0.00565
    31. RY*(   8) O   1                  0.00294
    32. RY*(   9) O   1                  0.00226
    33. RY*(  10) O   1                  0.00067
    34. RY*(  11) O   1                  0.00056
    35. RY*(  12) O   1                  0.00056
    36. RY*(  13) O   1                  0.00053
    37. RY*(  14) O   1                  0.00046
    38. RY*(  15) O   1                  0.00044
    39. RY*(  16) O   1                  0.00044
    40. RY*(  17) O   1                  0.00044
    41. RY*(  18) O   1                  0.00044
    42. RY*(  19) O   1                  0.00042
    43. RY*(  20) O   1                  0.00041
    44. RY*(  21) O   1                  0.00036
    45. RY*(  22) O   1                  0.00035
    46. RY*(  23) O   1                  0.00029
    47. RY*(  24) O   1                  0.00028
    48. RY*(  25) O   1                  0.00021
    49. RY*(  26) O   1                  0.00013
    50. RY*(  27) O   1                  0.00008
    51. RY*(  28) O   1                  0.00007
    52. RY*(  29) O   1                  0.00008
    53. RY*(  30) O   1                  0.00007
    54. RY*(  31) O   1                  0.00008
    55. RY*(  32) O   1                  0.00008
    56. RY*(  33) O   1                  0.00007
    57. RY*(  34) O   1                  0.00007
    58. RY*(  35) O   1                  0.00004
    59. RY*(  36) O   1                  0.00005
    60. RY*(  37) O   1                  0.00004
    61. RY*(  38) O   1                  0.00004
    62. RY*(  39) O   1                  0.00001
    63. RY*(  40) O   1                  0.00001
    64. RY*(  41) O   1                 -0.00004
    65. RY*(   1) H   2                  0.00192
    66. RY*(   2) H   2                  0.00168
    67. RY*(   3) H   2                  0.00082
    68. RY*(   4) H   2                  0.00051
    69. RY*(   5) H   2                  0.00029
    70. RY*(   6) H   2                  0.00019
    71. RY*(   7) H   2                  0.00012
    72. RY*(   8) H   2                  0.00011
    73. RY*(   9) H   2                  0.00011
    74. RY*(  10) H   2                  0.00009
    75. RY*(  11) H   2                  0.00009
    76. RY*(  12) H   2                  0.00005
    77. RY*(  13) H   2                  0.00005
    78. RY*(  14) H   2                  0.00005
    79. RY*(  15) H   2                  0.00002
    80. RY*(  16) H   2                  0.00003
    81. RY*(  17) H   2                  0.00003
    82. RY*(  18) H   2                  0.00003
    83. RY*(  19) H   2                  0.00002
    84. RY*(  20) H   2                  0.00001
    85. RY*(  21) H   2                  0.00002
    86. RY*(  22) H   2                  0.00001
   128. RY*(   1) H   4                  0.00688
   129. RY*(   2) H   4                  0.00425
   130. RY*(   3) H   4                  0.00357
   131. RY*(   4) H   4                  0.00198
   132. RY*(   5) H   4                  0.00048
   133. RY*(   6) H   4                  0.00038
   134. RY*(   7) H   4                  0.00030
   135. RY*(   8) H   4                  0.00024
   136. RY*(   9) H   4                  0.00020
   137. RY*(  10) H   4                  0.00015
   138. RY*(  11) H   4                  0.00016
   139. RY*(  12) H   4                  0.00011
   140. RY*(  13) H   4                  0.00009
   141. RY*(  14) H   4                  0.00009
   142. RY*(  15) H   4                  0.00009
   143. RY*(  16) H   4                  0.00007
   144. RY*(  17) H   4                  0.00007
   145. RY*(  18) H   4                  0.00004
   146. RY*(  19) H   4                  0.00005
   147. RY*(  20) H   4                  0.00005
   148. RY*(  21) H   4                  0.00004
   149. RY*(  22) H   4                  0.00002
   150. BD*(   1) O   1 - H   2          0.02143
   151. BD*(   1) O   1 - H   4          0.04030
       -------------------------------
              Total Lewis    9.86508  ( 98.3356%)
        Valence non-Lewis    0.06173  (  0.6153%)
        Rydberg non-Lewis    0.10524  (  1.0491%)
       -------------------------------
            Total unit  1   10.03205  (100.0000%)
           Charge unit  1   -0.03205

 Molecular unit  2  (Br)
     4. CR (   1)Br   3                  2.00003
     5. CR (   2)Br   3                  2.00000
     6. CR (   3)Br   3                  2.00000
     7. CR (   4)Br   3                  2.00002
     8. CR (   5)Br   3                  2.00000
     9. CR (   6)Br   3                  2.00001
    10. CR (   7)Br   3                  2.00000
    11. CR (   8)Br   3                  2.00002
    12. CR (   9)Br   3                  2.00000
    13. CR (  10)Br   3                  1.99768
    14. CR (  11)Br   3                  1.99769
    15. CR (  12)Br   3                  1.99768
    16. CR (  13)Br   3                  1.99767
    17. CR (  14)Br   3                  1.99768
    20. LP (   1)Br   3                  1.98064
    21. LP (   2)Br   3                  1.95411
    22. LP (   3)Br   3                  1.95395
    23. LP (   4)Br   3                  1.93226
    87. RY*(   1)Br   3                  0.01881
    88. RY*(   2)Br   3                  0.01879
    89. RY*(   3)Br   3                  0.01869
    90. RY*(   4)Br   3                  0.01869
    91. RY*(   5)Br   3                  0.01846
    92. RY*(   6)Br   3                  0.01212
    93. RY*(   7)Br   3                  0.01203
    94. RY*(   8)Br   3                  0.01077
    95. RY*(   9)Br   3                  0.00373
    96. RY*(  10)Br   3                  0.00181
    97. RY*(  11)Br   3                  0.00181
    98. RY*(  12)Br   3                  0.00177
    99. RY*(  13)Br   3                  0.00177
   100. RY*(  14)Br   3                  0.00177
   101. RY*(  15)Br   3                  0.00177
   102. RY*(  16)Br   3                  0.00177
   103. RY*(  17)Br   3                  0.00176
   104. RY*(  18)Br   3                  0.00176
   105. RY*(  19)Br   3                  0.00157
   106. RY*(  20)Br   3                  0.00155
   107. RY*(  21)Br   3                  0.00142
   108. RY*(  22)Br   3                  0.00083
   109. RY*(  23)Br   3                  0.00083
   110. RY*(  24)Br   3                  0.00079
   111. RY*(  25)Br   3                  0.00054
   112. RY*(  26)Br   3                  0.00025
   113. RY*(  27)Br   3                  0.00025
   114. RY*(  28)Br   3                  0.00025
   115. RY*(  29)Br   3                  0.00025
   116. RY*(  30)Br   3                  0.00025
   117. RY*(  31)Br   3                  0.00024
   118. RY*(  32)Br   3                  0.00025
   119. RY*(  33)Br   3                  0.00021
   120. RY*(  34)Br   3                  0.00022
   121. RY*(  35)Br   3                  0.00020
   122. RY*(  36)Br   3                  0.00017
   123. RY*(  37)Br   3                  0.00016
   124. RY*(  38)Br   3                  0.00008
   125. RY*(  39)Br   3                  0.00004
   126. RY*(  40)Br   3                  0.00004
   127. RY*(  41)Br   3                  0.00004
       -------------------------------
              Total Lewis   35.80944  ( 99.5593%)
        Valence non-Lewis    0.00000  (  0.0000%)
        Rydberg non-Lewis    0.15852  (  0.4407%)
       -------------------------------
            Total unit  2   35.96795  (100.0000%)
           Charge unit  2   -0.96795
 Leave Link  607 at Tue Oct 19 16:41:24 2021, MaxMem= 16106127360 cpu:              68.3 elap:               2.5
 (Enter /sw/contrib/gaussian/g16/B01/g16/l9999.exe)
 1\1\GINC-N2098\SP\RMP2-FC\Aug-CC-pVTZ\Br1H2O1(1-)\CGAVINH\19-Oct-2021\
 0\\#p pop=NBO SP NoSymm mp2/aug-cc-pvtz density=current\\title\\-1,1\O
 \X,1,10.\H,1,0.96078759,2,90.\Br,1,3.25661955,2,90.,3,101.73887131,0\H
 ,1,0.97736,2,60.,3,101.73887131,0\\Version=ES64L-G16RevB.01\HF=-2648.6
 013998\MP2=-2649.1185931\RMSD=6.848e-09\Dipole=0.6351272,0.3899547,0.1
 829274\Quadrupole=11.2857729,-22.4858414,11.2000684,-6.5761356,-0.1157
 829,-0.2031711\PG=C01 [X(Br1H2O1)]\\@


 AN AIRPLANE IS A COLLECTION OF SPARE PARTS
 FLYING IN CLOSE FORMATION.
 Job cpu time:       0 days  0 hours  4 minutes 48.6 seconds.
 Elapsed time:       0 days  0 hours  0 minutes 13.1 seconds.
 File lengths (MBytes):  RWF=     11 Int=      0 D2E=      0 Chk=      8 Scr=      1
 Normal termination of Gaussian 16 at Tue Oct 19 16:41:25 2021.
