 Entering Gaussian System, Link 0=g16
 Input=clhod_rOH_150_sp.gjf
 Output=clhod_rOH_150_sp.log
 Initial command:
 /sw/contrib/gaussian/g16/B01/g16/l1.exe "/scr/Gau-15853.inp" -scrdir="/scr/"
 Entering Link 1 = /sw/contrib/gaussian/g16/B01/g16/l1.exe PID=     15854.
  
 Copyright (c) 1988-2017, Gaussian, Inc.  All Rights Reserved.
  
 This is part of the Gaussian(R) 16 program.  It is based on
 the Gaussian(R) 09 system (copyright 2009, Gaussian, Inc.),
 the Gaussian(R) 03 system (copyright 2003, Gaussian, Inc.),
 the Gaussian(R) 98 system (copyright 1998, Gaussian, Inc.),
 the Gaussian(R) 94 system (copyright 1995, Gaussian, Inc.),
 the Gaussian 92(TM) system (copyright 1992, Gaussian, Inc.),
 the Gaussian 90(TM) system (copyright 1990, Gaussian, Inc.),
 the Gaussian 88(TM) system (copyright 1988, Gaussian, Inc.),
 the Gaussian 86(TM) system (copyright 1986, Carnegie Mellon
 University), and the Gaussian 82(TM) system (copyright 1983,
 Carnegie Mellon University). Gaussian is a federally registered
 trademark of Gaussian, Inc.
  
 This software contains proprietary and confidential information,
 including trade secrets, belonging to Gaussian, Inc.
  
 This software is provided under written license and may be
 used, copied, transmitted, or stored only in accord with that
 written license.
  
 The following legend is applicable only to US Government
 contracts under FAR:
  
                    RESTRICTED RIGHTS LEGEND
  
 Use, reproduction and disclosure by the US Government is
 subject to restrictions as set forth in subparagraphs (a)
 and (c) of the Commercial Computer Software - Restricted
 Rights clause in FAR 52.227-19.
  
 Gaussian, Inc.
 340 Quinnipiac St., Bldg. 40, Wallingford CT 06492
  
  
 ---------------------------------------------------------------
 Warning -- This program may not be used in any manner that
 competes with the business of Gaussian, Inc. or will provide
 assistance to any competitor of Gaussian, Inc.  The licensee
 of this program is prohibited from giving any competitor of
 Gaussian, Inc. access to this program.  By using this program,
 the user acknowledges that Gaussian, Inc. is engaged in the
 business of creating and licensing software in the field of
 computational chemistry and represents and warrants to the
 licensee that it is not a competitor of Gaussian, Inc. and that
 it will not use this program in any manner prohibited above.
 ---------------------------------------------------------------
  

 Cite this work as:
 Gaussian 16, Revision B.01,
 M. J. Frisch, G. W. Trucks, H. B. Schlegel, G. E. Scuseria, 
 M. A. Robb, J. R. Cheeseman, G. Scalmani, V. Barone, 
 G. A. Petersson, H. Nakatsuji, X. Li, M. Caricato, A. V. Marenich, 
 J. Bloino, B. G. Janesko, R. Gomperts, B. Mennucci, H. P. Hratchian, 
 J. V. Ortiz, A. F. Izmaylov, J. L. Sonnenberg, D. Williams-Young, 
 F. Ding, F. Lipparini, F. Egidi, J. Goings, B. Peng, A. Petrone, 
 T. Henderson, D. Ranasinghe, V. G. Zakrzewski, J. Gao, N. Rega, 
 G. Zheng, W. Liang, M. Hada, M. Ehara, K. Toyota, R. Fukuda, 
 J. Hasegawa, M. Ishida, T. Nakajima, Y. Honda, O. Kitao, H. Nakai, 
 T. Vreven, K. Throssell, J. A. Montgomery, Jr., J. E. Peralta, 
 F. Ogliaro, M. J. Bearpark, J. J. Heyd, E. N. Brothers, K. N. Kudin, 
 V. N. Staroverov, T. A. Keith, R. Kobayashi, J. Normand, 
 K. Raghavachari, A. P. Rendell, J. C. Burant, S. S. Iyengar, 
 J. Tomasi, M. Cossi, J. M. Millam, M. Klene, C. Adamo, R. Cammi, 
 J. W. Ochterski, R. L. Martin, K. Morokuma, O. Farkas, 
 J. B. Foresman, and D. J. Fox, Gaussian, Inc., Wallingford CT, 2016.
 
 ******************************************
 Gaussian 16:  ES64L-G16RevB.01 20-Dec-2017
                 8-Oct-2021 
 ******************************************
 %nproc=28
 Will use up to   28 processors via shared memory.
 %mem=120GB
 %chk=/gscratch/ilahie/mccoygrp/coire_hocl/rOH_s_oop_0/clhod/clhod_150_sp.chk
 ----------------------------------------------------
 #p pop=NBO SP NoSymm mp2/aug-cc-pvtz density=current
 ----------------------------------------------------
 1/30=1,38=1,172=1/1;
 2/12=2,15=1,17=6,18=5,40=1/2;
 3/5=16,6=1,7=10,11=9,25=1,30=1,71=1/1,2,3;
 4//1;
 5/5=2,38=5/2;
 8/6=4,10=1/1;
 9/15=1,16=-3/6;
 10/5=1,13=10,31=1/2;
 6/7=2,8=2,9=2,10=2,22=-1,40=1/1,7;
 99/5=1,9=1/99;
 Leave Link    1 at Fri Oct  8 13:09:34 2021, MaxMem= 16106127360 cpu:               2.4 elap:               0.1
 (Enter /sw/contrib/gaussian/g16/B01/g16/l101.exe)
 -----
 title
 -----
 Symbolic Z-matrix:
 Charge = -1 Multiplicity = 1
 O
 X                    1     10. 
 H(iso=2)             1    r1       2     90. 
 Cl                   1    r2       2     90.      3    a1       0
 H                    1    r3       2    oop      3    a1       0
       Variables:
  r1                    0.96062                  
  r2                    3.08955                  
  r3                    1.5                      
  a1                  101.71721                  
  OOP                  90.                       
 
 ITRead=  0  0  0  0
 MicOpt= -1 -1 -1 -1
 NAtoms=      4 NQM=        4 NQMF=       0 NMMI=      0 NMMIF=      0
                NMic=       0 NMicF=      0.
                    Isotopes and Nuclear Properties:
 (Nuclear quadrupole moments (NQMom) in fm**2, nuclear magnetic moments (NMagM)
  in nuclear magnetons)

  Atom         1           2           3           4
 IAtWgt=          16           2          35           1
 AtmWgt=  15.9949146   2.0141018  34.9688527   1.0078250
 NucSpn=           0           2           3           1
 AtZEff=  -0.0000000  -0.0000000  -0.0000000  -0.0000000
 NQMom=    0.0000000   0.2860000  -8.1650000   0.0000000
 NMagM=    0.0000000   0.8574380   0.8218740   2.7928460
 AtZNuc=   8.0000000   1.0000000  17.0000000   1.0000000
 Leave Link  101 at Fri Oct  8 13:09:35 2021, MaxMem= 16106127360 cpu:               2.7 elap:               0.1
 (Enter /sw/contrib/gaussian/g16/B01/g16/l202.exe)
                          Input orientation:                          
 ---------------------------------------------------------------------
 Center     Atomic      Atomic             Coordinates (Angstroms)
 Number     Number       Type             X           Y           Z
 ---------------------------------------------------------------------
      1          8           0        0.000000    0.000000    0.000000
      2          1           0        0.960616    0.000000    0.000000
      3         17           0       -0.627430   -3.025169    0.000000
      4          1           0       -0.304622   -1.468743    0.000000
 ---------------------------------------------------------------------
                    Distance matrix (angstroms):
                    1          2          3          4
     1  O    0.000000
     2  H    0.960616   0.000000
     3  Cl   3.089549   3.416656   0.000000
     4  H    1.500000   1.938565   1.589549   0.000000
 Symmetry turned off by external request.
 Stoichiometry    ClH2O(1-)
 Framework group  CS[SG(ClH2O)]
 Deg. of freedom     5
 Full point group                 CS      NOp   2
 Rotational constants (GHZ):         323.8537040           4.3726457           4.3143931
 Leave Link  202 at Fri Oct  8 13:09:35 2021, MaxMem= 16106127360 cpu:               0.2 elap:               0.0
 (Enter /sw/contrib/gaussian/g16/B01/g16/l301.exe)
 Standard basis: Aug-CC-pVTZ (5D, 7F)
 Ernie: Thresh=  0.10000D-02 Tol=  0.10000D-05 Strict=F.
 Ernie:  16 primitive shells out of 116 were deleted.
   142 basis functions,   240 primitive gaussians,   164 cartesian basis functions
    14 alpha electrons       14 beta electrons
       nuclear repulsion energy        39.0887382284 Hartrees.
 IExCor=    0 DFT=F Ex=HF Corr=None ExCW=0 ScaHFX=  1.000000
 ScaDFX=  1.000000  1.000000  1.000000  1.000000 ScalE2=  1.000000  1.000000
 IRadAn=      5 IRanWt=     -1 IRanGd=            0 ICorTp=0 IEmpDi=  4
 NAtoms=    4 NActive=    4 NUniq=    4 SFac= 1.00D+00 NAtFMM=   60 NAOKFM=F Big=F
 Integral buffers will be    131072 words long.
 Raffenetti 1 integral format.
 Two-electron integral symmetry is turned off.
 Leave Link  301 at Fri Oct  8 13:09:35 2021, MaxMem= 16106127360 cpu:               2.3 elap:               0.1
 (Enter /sw/contrib/gaussian/g16/B01/g16/l302.exe)
 NPDir=0 NMtPBC=     1 NCelOv=     1 NCel=       1 NClECP=     1 NCelD=      1
         NCelK=      1 NCelE2=     1 NClLst=     1 CellRange=     0.0.
 One-electron integrals computed using PRISM.
 NBasis=   142 RedAO= T EigKep=  3.59D-04  NBF=   142
 NBsUse=   142 1.00D-06 EigRej= -1.00D+00 NBFU=   142
 Leave Link  302 at Fri Oct  8 13:09:35 2021, MaxMem= 16106127360 cpu:               4.6 elap:               0.2
 (Enter /sw/contrib/gaussian/g16/B01/g16/l303.exe)
 DipDrv:  MaxL=1.
 Leave Link  303 at Fri Oct  8 13:09:35 2021, MaxMem= 16106127360 cpu:               0.7 elap:               0.1
 (Enter /sw/contrib/gaussian/g16/B01/g16/l401.exe)
 ExpMin= 2.53D-02 ExpMax= 4.56D+05 ExpMxC= 1.44D+03 IAcc=3 IRadAn=         5 AccDes= 0.00D+00
 Harris functional with IExCor=  205 and IRadAn=       5 diagonalized for initial guess.
 HarFok:  IExCor=  205 AccDes= 0.00D+00 IRadAn=         5 IDoV= 1 UseB2=F ITyADJ=14
 ICtDFT=  3500011 ScaDFX=  1.000000  1.000000  1.000000  1.000000
 FoFCou: FMM=F IPFlag=           0 FMFlag=      100000 FMFlg1=           0
         NFxFlg=           0 DoJE=T BraDBF=F KetDBF=T FulRan=T
         wScrn=  0.000000 ICntrl=       500 IOpCl=  0 I1Cent=   200000004 NGrid=           0
         NMat0=    1 NMatS0=      1 NMatT0=    0 NMatD0=    1 NMtDS0=    0 NMtDT0=    0
 Symmetry not used in FoFCou.
 Harris En= -535.422683988418    
 JPrj=0 DoOrth=F DoCkMO=F.
 Leave Link  401 at Fri Oct  8 13:09:35 2021, MaxMem= 16106127360 cpu:               8.0 elap:               0.3
 (Enter /sw/contrib/gaussian/g16/B01/g16/l502.exe)
 Keep R1 ints in memory in canonical form, NReq=65346283.
 FoFCou: FMM=F IPFlag=           0 FMFlag=           0 FMFlg1=           0
         NFxFlg=           0 DoJE=F BraDBF=F KetDBF=F FulRan=T
         wScrn=  0.000000 ICntrl=       600 IOpCl=  0 I1Cent=           0 NGrid=           0
         NMat0=    1 NMatS0=  10153 NMatT0=    0 NMatD0=    1 NMtDS0=    0 NMtDT0=    0
 Symmetry not used in FoFCou.
 Two-electron integral symmetry not used.
 Closed shell SCF:
 Using DIIS extrapolation, IDIIS=  1040.
 NGot= 16106127360 LenX= 16054521109 LenY= 16054493772
 Requested convergence on RMS density matrix=1.00D-08 within 128 cycles.
 Requested convergence on MAX density matrix=1.00D-06.
 Requested convergence on             energy=1.00D-06.
 No special actions if energy rises.

 Cycle   1  Pass 1  IDiag  1:
 E= -535.406663869661    
 DIIS: error= 4.04D-02 at cycle   1 NSaved=   1.
 NSaved= 1 IEnMin= 1 EnMin= -535.406663869661     IErMin= 1 ErrMin= 4.04D-02
 ErrMax= 4.04D-02  0.00D+00 EMaxC= 1.00D-01 BMatC= 4.01D-01 BMatP= 4.01D-01
 IDIUse=3 WtCom= 5.96D-01 WtEn= 4.04D-01
 Coeff-Com:  0.100D+01
 Coeff-En:   0.100D+01
 Coeff:      0.100D+01
 Gap=     0.559 Goal=   None    Shift=    0.000
 GapD=    0.559 DampG=2.000 DampE=0.500 DampFc=1.0000 IDamp=-1.
 RMSDP=2.78D-03 MaxDP=6.51D-02              OVMax= 2.21D-01

 Cycle   2  Pass 1  IDiag  1:
 E= -535.469236934948     Delta-E=       -0.062573065286 Rises=F Damp=F
 DIIS: error= 4.29D-02 at cycle   2 NSaved=   2.
 NSaved= 2 IEnMin= 2 EnMin= -535.469236934948     IErMin= 1 ErrMin= 4.04D-02
 ErrMax= 4.29D-02  0.00D+00 EMaxC= 1.00D-01 BMatC= 1.59D-01 BMatP= 4.01D-01
 IDIUse=3 WtCom= 5.71D-01 WtEn= 4.29D-01
 Coeff-Com:  0.360D+00 0.640D+00
 Coeff-En:   0.361D+00 0.639D+00
 Coeff:      0.360D+00 0.640D+00
 Gap=     0.407 Goal=   None    Shift=    0.000
 RMSDP=1.47D-03 MaxDP=4.12D-02 DE=-6.26D-02 OVMax= 1.21D-01

 Cycle   3  Pass 1  IDiag  1:
 E= -535.576684297800     Delta-E=       -0.107447362852 Rises=F Damp=F
 DIIS: error= 8.68D-03 at cycle   3 NSaved=   3.
 NSaved= 3 IEnMin= 3 EnMin= -535.576684297800     IErMin= 3 ErrMin= 8.68D-03
 ErrMax= 8.68D-03  0.00D+00 EMaxC= 1.00D-01 BMatC= 8.44D-03 BMatP= 1.59D-01
 IDIUse=3 WtCom= 9.13D-01 WtEn= 8.68D-02
 Coeff-Com: -0.256D-01 0.166D+00 0.860D+00
 Coeff-En:   0.000D+00 0.000D+00 0.100D+01
 Coeff:     -0.234D-01 0.151D+00 0.872D+00
 Gap=     0.357 Goal=   None    Shift=    0.000
 RMSDP=3.06D-04 MaxDP=7.52D-03 DE=-1.07D-01 OVMax= 2.71D-02

 Cycle   4  Pass 1  IDiag  1:
 E= -535.582571015400     Delta-E=       -0.005886717600 Rises=F Damp=F
 DIIS: error= 7.55D-04 at cycle   4 NSaved=   4.
 NSaved= 4 IEnMin= 4 EnMin= -535.582571015400     IErMin= 4 ErrMin= 7.55D-04
 ErrMax= 7.55D-04  0.00D+00 EMaxC= 1.00D-01 BMatC= 7.05D-05 BMatP= 8.44D-03
 IDIUse=3 WtCom= 9.92D-01 WtEn= 7.55D-03
 Coeff-Com: -0.260D-02-0.250D-02 0.539D-01 0.951D+00
 Coeff-En:   0.000D+00 0.000D+00 0.000D+00 0.100D+01
 Coeff:     -0.258D-02-0.248D-02 0.535D-01 0.952D+00
 Gap=     0.351 Goal=   None    Shift=    0.000
 RMSDP=6.37D-05 MaxDP=1.60D-03 DE=-5.89D-03 OVMax= 3.37D-03

 Cycle   5  Pass 1  IDiag  1:
 E= -535.582660311335     Delta-E=       -0.000089295936 Rises=F Damp=F
 DIIS: error= 2.08D-04 at cycle   5 NSaved=   5.
 NSaved= 5 IEnMin= 5 EnMin= -535.582660311335     IErMin= 5 ErrMin= 2.08D-04
 ErrMax= 2.08D-04  0.00D+00 EMaxC= 1.00D-01 BMatC= 6.12D-06 BMatP= 7.05D-05
 IDIUse=3 WtCom= 9.98D-01 WtEn= 2.08D-03
 Coeff-Com:  0.828D-03-0.130D-01-0.579D-01 0.686D-01 0.100D+01
 Coeff-En:   0.000D+00 0.000D+00 0.000D+00 0.000D+00 0.100D+01
 Coeff:      0.826D-03-0.130D-01-0.578D-01 0.684D-01 0.100D+01
 Gap=     0.352 Goal=   None    Shift=    0.000
 RMSDP=2.92D-05 MaxDP=7.59D-04 DE=-8.93D-05 OVMax= 1.87D-03

 Cycle   6  Pass 1  IDiag  1:
 E= -535.582675416209     Delta-E=       -0.000015104874 Rises=F Damp=F
 DIIS: error= 1.15D-04 at cycle   6 NSaved=   6.
 NSaved= 6 IEnMin= 6 EnMin= -535.582675416209     IErMin= 6 ErrMin= 1.15D-04
 ErrMax= 1.15D-04  0.00D+00 EMaxC= 1.00D-01 BMatC= 7.29D-07 BMatP= 6.12D-06
 IDIUse=3 WtCom= 9.99D-01 WtEn= 1.15D-03
 Coeff-Com:  0.246D-03 0.221D-02 0.716D-02-0.908D-01-0.288D+00 0.137D+01
 Coeff-En:   0.000D+00 0.000D+00 0.000D+00 0.000D+00 0.000D+00 0.100D+01
 Coeff:      0.246D-03 0.220D-02 0.715D-02-0.907D-01-0.288D+00 0.137D+01
 Gap=     0.352 Goal=   None    Shift=    0.000
 RMSDP=1.36D-05 MaxDP=3.07D-04 DE=-1.51D-05 OVMax= 9.75D-04

 Cycle   7  Pass 1  IDiag  1:
 E= -535.582678234659     Delta-E=       -0.000002818450 Rises=F Damp=F
 DIIS: error= 2.36D-05 at cycle   7 NSaved=   7.
 NSaved= 7 IEnMin= 7 EnMin= -535.582678234659     IErMin= 7 ErrMin= 2.36D-05
 ErrMax= 2.36D-05  0.00D+00 EMaxC= 1.00D-01 BMatC= 4.96D-08 BMatP= 7.29D-07
 IDIUse=1 WtCom= 1.00D+00 WtEn= 0.00D+00
 Coeff-Com: -0.161D-03 0.135D-03 0.960D-03 0.302D-01 0.411D-01-0.506D+00
 Coeff-Com:  0.143D+01
 Coeff:     -0.161D-03 0.135D-03 0.960D-03 0.302D-01 0.411D-01-0.506D+00
 Coeff:      0.143D+01
 Gap=     0.352 Goal=   None    Shift=    0.000
 RMSDP=3.38D-06 MaxDP=7.82D-05 DE=-2.82D-06 OVMax= 3.16D-04

 Cycle   8  Pass 1  IDiag  1:
 E= -535.582678435452     Delta-E=       -0.000000200793 Rises=F Damp=F
 DIIS: error= 8.01D-06 at cycle   8 NSaved=   8.
 NSaved= 8 IEnMin= 8 EnMin= -535.582678435452     IErMin= 8 ErrMin= 8.01D-06
 ErrMax= 8.01D-06  0.00D+00 EMaxC= 1.00D-01 BMatC= 3.56D-09 BMatP= 4.96D-08
 IDIUse=1 WtCom= 1.00D+00 WtEn= 0.00D+00
 Coeff-Com: -0.208D-04-0.159D-03-0.397D-03 0.580D-02 0.220D-01-0.108D+00
 Coeff-Com:  0.563D-01 0.102D+01
 Coeff:     -0.208D-04-0.159D-03-0.397D-03 0.580D-02 0.220D-01-0.108D+00
 Coeff:      0.563D-01 0.102D+01
 Gap=     0.352 Goal=   None    Shift=    0.000
 RMSDP=6.21D-07 MaxDP=1.51D-05 DE=-2.01D-07 OVMax= 5.31D-05

 Cycle   9  Pass 1  IDiag  1:
 E= -535.582678445427     Delta-E=       -0.000000009975 Rises=F Damp=F
 DIIS: error= 2.40D-06 at cycle   9 NSaved=   9.
 NSaved= 9 IEnMin= 9 EnMin= -535.582678445427     IErMin= 9 ErrMin= 2.40D-06
 ErrMax= 2.40D-06  0.00D+00 EMaxC= 1.00D-01 BMatC= 4.37D-10 BMatP= 3.56D-09
 IDIUse=1 WtCom= 1.00D+00 WtEn= 0.00D+00
 Coeff-Com:  0.193D-04-0.147D-05 0.309D-04-0.435D-02-0.720D-02 0.726D-01
 Coeff-Com: -0.182D+00-0.134D+00 0.126D+01
 Coeff:      0.193D-04-0.147D-05 0.309D-04-0.435D-02-0.720D-02 0.726D-01
 Coeff:     -0.182D+00-0.134D+00 0.126D+01
 Gap=     0.352 Goal=   None    Shift=    0.000
 RMSDP=2.80D-07 MaxDP=6.44D-06 DE=-9.97D-09 OVMax= 2.35D-05

 Cycle  10  Pass 1  IDiag  1:
 E= -535.582678446817     Delta-E=       -0.000000001390 Rises=F Damp=F
 DIIS: error= 4.57D-07 at cycle  10 NSaved=  10.
 NSaved=10 IEnMin=10 EnMin= -535.582678446817     IErMin=10 ErrMin= 4.57D-07
 ErrMax= 4.57D-07  0.00D+00 EMaxC= 1.00D-01 BMatC= 2.03D-11 BMatP= 4.37D-10
 IDIUse=1 WtCom= 1.00D+00 WtEn= 0.00D+00
 Coeff-Com: -0.296D-05 0.563D-05-0.229D-04 0.791D-03 0.777D-03-0.120D-01
 Coeff-Com:  0.421D-01-0.287D-01-0.306D+00 0.130D+01
 Coeff:     -0.296D-05 0.563D-05-0.229D-04 0.791D-03 0.777D-03-0.120D-01
 Coeff:      0.421D-01-0.287D-01-0.306D+00 0.130D+01
 Gap=     0.352 Goal=   None    Shift=    0.000
 RMSDP=6.00D-08 MaxDP=1.78D-06 DE=-1.39D-09 OVMax= 5.86D-06

 Cycle  11  Pass 1  IDiag  1:
 E= -535.582678446887     Delta-E=       -0.000000000070 Rises=F Damp=F
 DIIS: error= 1.21D-07 at cycle  11 NSaved=  11.
 NSaved=11 IEnMin=11 EnMin= -535.582678446887     IErMin=11 ErrMin= 1.21D-07
 ErrMax= 1.21D-07  0.00D+00 EMaxC= 1.00D-01 BMatC= 1.20D-12 BMatP= 2.03D-11
 IDIUse=1 WtCom= 1.00D+00 WtEn= 0.00D+00
 Coeff-Com: -0.328D-06-0.295D-06 0.125D-04 0.365D-05 0.169D-03-0.705D-03
 Coeff-Com: -0.151D-02 0.178D-01 0.118D-01-0.383D+00 0.136D+01
 Coeff:     -0.328D-06-0.295D-06 0.125D-04 0.365D-05 0.169D-03-0.705D-03
 Coeff:     -0.151D-02 0.178D-01 0.118D-01-0.383D+00 0.136D+01
 Gap=     0.352 Goal=   None    Shift=    0.000
 RMSDP=1.38D-08 MaxDP=3.26D-07 DE=-7.04D-11 OVMax= 1.29D-06

 Cycle  12  Pass 1  IDiag  1:
 E= -535.582678446890     Delta-E=       -0.000000000003 Rises=F Damp=F
 DIIS: error= 1.85D-08 at cycle  12 NSaved=  12.
 NSaved=12 IEnMin=12 EnMin= -535.582678446890     IErMin=12 ErrMin= 1.85D-08
 ErrMax= 1.85D-08  0.00D+00 EMaxC= 1.00D-01 BMatC= 4.67D-14 BMatP= 1.20D-12
 IDIUse=1 WtCom= 1.00D+00 WtEn= 0.00D+00
 Coeff-Com:  0.144D-06-0.312D-06 0.140D-05-0.377D-04-0.486D-04 0.593D-03
 Coeff-Com: -0.210D-02 0.145D-02 0.131D-01-0.491D-01-0.561D-01 0.109D+01
 Coeff:      0.144D-06-0.312D-06 0.140D-05-0.377D-04-0.486D-04 0.593D-03
 Coeff:     -0.210D-02 0.145D-02 0.131D-01-0.491D-01-0.561D-01 0.109D+01
 Gap=     0.352 Goal=   None    Shift=    0.000
 RMSDP=3.15D-09 MaxDP=6.04D-08 DE=-3.18D-12 OVMax= 2.07D-07

 SCF Done:  E(RHF) =  -535.582678447     A.U. after   12 cycles
            NFock= 12  Conv=0.32D-08     -V/T= 2.0006
 KE= 5.352767154500D+02 PE=-1.360516706769D+03 EE= 2.505685746442D+02
 Leave Link  502 at Fri Oct  8 13:09:37 2021, MaxMem= 16106127360 cpu:              19.4 elap:               1.5
 (Enter /sw/contrib/gaussian/g16/B01/g16/l801.exe)
 ExpMin= 2.53D-02 ExpMax= 4.56D+05 ExpMxC= 1.44D+03 IAcc=3 IRadAn=         5 AccDes= 0.00D+00
 HarFok:  IExCor=  205 AccDes= 0.00D+00 IRadAn=         5 IDoV=-2 UseB2=F ITyADJ=14
 ICtDFT= 12500011 ScaDFX=  1.000000  1.000000  1.000000  1.000000
 Largest valence mixing into a core orbital is  4.53D-04
 Largest core mixing into a valence orbital is  1.79D-04
 Range of M.O.s used for correlation:     7   142
 NBasis=   142 NAE=    14 NBE=    14 NFC=     6 NFV=     0
 NROrb=    136 NOA=     8 NOB=     8 NVA=   128 NVB=   128

 **** Warning!!: The largest alpha MO coefficient is  0.13713692D+02

 Leave Link  801 at Fri Oct  8 13:09:37 2021, MaxMem= 16106127360 cpu:               2.5 elap:               0.1
 (Enter /sw/contrib/gaussian/g16/B01/g16/l906.exe)
 Frozen-core derivative calculation, NFC=   6 NFV=   0.
 FulOut=F Deriv=T AODrv=F NAtomX=     4
   MMem=         252  MDisk=           8 MDiskD=           8
  W3Min=      326032 MinDsk=      657538 NBas6D=         164
 NBas2D=       13905    NTT=       13530    LW2=     3500000
    MDV= 16105867686 MDiskM=      490971 NBas2p=       13814
 Fully in-core method, ICMem=   205321089.
 IMap=   1   2   3   4   5   6   7   8   9  10  11  12  13  14
 JobTyp=1 Pass  1 fully in-core, NPsUse= 28.
 Compute canonical integrals.
 FoFCou: FMM=F IPFlag=           0 FMFlag=           0 FMFlg1=           0
         NFxFlg=           0 DoJE=F BraDBF=F KetDBF=F FulRan=T
         wScrn=  0.000000 ICntrl=       600 IOpCl=  1 I1Cent=           0 NGrid=           0
         NMat0=    1 NMatS0=  13905 NMatT0=    0 NMatD0=    1 NMtDS0=    0 NMtDT0=    0
 Symmetry not used in FoFCou.
 Spin components of T(2) and E(2):
     alpha-alpha T2 =       0.2192291367D-01 E2=     -0.6366845780D-01
     alpha-beta  T2 =       0.1183819650D+00 E2=     -0.3770931303D+00
     beta-beta   T2 =       0.2192291367D-01 E2=     -0.6366845780D-01
 The integrals were generated   1 times.
 ANorm=    0.1078066692D+01
 E2 =    -0.5044300459D+00 EUMP2 =    -0.53608710849281D+03
 Leave Link  906 at Fri Oct  8 13:09:39 2021, MaxMem= 16106127360 cpu:              50.3 elap:               1.8
 (Enter /sw/contrib/gaussian/g16/B01/g16/l1002.exe)
 Minotr:  Closed shell wavefunction.
          Computing MP2/KS-MP2 derivatives.
          Using Z-Vector for PSCF gradient.
          Skipping F1 and S1 gradient terms here.
          Frozen-core window.
          Direct CPHF calculation.
          Differentiating once with respect to electric field.
                with respect to dipole field.
          Electric field/nuclear overlap derivatives assumed to be zero.
          Requested convergence is 1.0D-10 RMS, and 1.0D-09 maximum.
          NewPWx=F KeepS1=T KeepF1=T KeepIn=T MapXYZ=F SortEE=F KeepMc=T.
 Keep R1 ints in memory in canonical form, NReq=65349196.
 FoFCou: FMM=F IPFlag=           0 FMFlag=           0 FMFlg1=           0
         NFxFlg=           0 DoJE=F BraDBF=F KetDBF=F FulRan=T
         wScrn=  0.000000 ICntrl=       600 IOpCl=  0 I1Cent=           0 NGrid=           0
         NMat0=    1 NMatS0=  10153 NMatT0=    0 NMatD0=    1 NMtDS0=    0 NMtDT0=    0
 Symmetry not used in FoFCou.
 Two-electron integral symmetry not used.
          MDV=   16106127360 using IRadAn=       5.
          Solving linear equations separately, MaxMat=       0.
          There are     1 degrees of freedom in the 1st order CPHF.  IDoFFX=0 NUNeed=     1.
 LinEq1:  Iter=  0 NonCon=     1 RMS=4.42D-03 Max=7.85D-02 NDo=     1
 AX will form     1 AO Fock derivatives at one time.
 LinEq1:  Iter=  1 NonCon=     1 RMS=7.88D-04 Max=9.33D-03 NDo=     1
 LinEq1:  Iter=  2 NonCon=     1 RMS=3.43D-04 Max=4.13D-03 NDo=     1
 LinEq1:  Iter=  3 NonCon=     1 RMS=1.16D-04 Max=1.05D-03 NDo=     1
 LinEq1:  Iter=  4 NonCon=     1 RMS=3.37D-05 Max=3.38D-04 NDo=     1
 LinEq1:  Iter=  5 NonCon=     1 RMS=4.77D-06 Max=4.97D-05 NDo=     1
 LinEq1:  Iter=  6 NonCon=     1 RMS=9.61D-07 Max=1.03D-05 NDo=     1
 LinEq1:  Iter=  7 NonCon=     1 RMS=2.54D-07 Max=2.34D-06 NDo=     1
 LinEq1:  Iter=  8 NonCon=     1 RMS=6.87D-08 Max=9.00D-07 NDo=     1
 LinEq1:  Iter=  9 NonCon=     1 RMS=1.98D-08 Max=2.42D-07 NDo=     1
 LinEq1:  Iter= 10 NonCon=     1 RMS=3.55D-09 Max=3.08D-08 NDo=     1
 LinEq1:  Iter= 11 NonCon=     1 RMS=7.14D-10 Max=7.02D-09 NDo=     1
 LinEq1:  Iter= 12 NonCon=     1 RMS=1.84D-10 Max=1.98D-09 NDo=     1
 LinEq1:  Iter= 13 NonCon=     0 RMS=2.75D-11 Max=3.04D-10 NDo=     1
 Linear equations converged to 1.000D-10 1.000D-09 after    13 iterations.
 End of Minotr F.D. properties file   721 does not exist.
 End of Minotr F.D. properties file   722 does not exist.
 End of Minotr F.D. properties file   788 does not exist.
 Leave Link 1002 at Fri Oct  8 13:09:41 2021, MaxMem= 16106127360 cpu:              23.2 elap:               1.9
 (Enter /sw/contrib/gaussian/g16/B01/g16/l601.exe)
 Copying SCF densities to generalized density rwf, IOpCl= 0 IROHF=0.

 **********************************************************************

            Population analysis using the MP2 Density.

 **********************************************************************

 Alpha  occ. eigenvalues -- -104.59734 -20.29386 -10.32172  -7.78812  -7.78754
 Alpha  occ. eigenvalues --   -7.78753  -1.02047  -0.84081  -0.38598  -0.33332
 Alpha  occ. eigenvalues --   -0.24060  -0.23788  -0.21928  -0.19698
 Alpha virt. eigenvalues --    0.15507   0.17379   0.24946   0.25874   0.26150
 Alpha virt. eigenvalues --    0.30098   0.32841   0.33618   0.36015   0.37750
 Alpha virt. eigenvalues --    0.43720   0.44736   0.44851   0.49293   0.50459
 Alpha virt. eigenvalues --    0.54232   0.54887   0.58131   0.61509   0.65120
 Alpha virt. eigenvalues --    0.66700   0.68277   0.74667   0.77918   0.84344
 Alpha virt. eigenvalues --    0.86361   0.91302   0.93664   0.94021   0.97396
 Alpha virt. eigenvalues --    1.01120   1.05533   1.06240   1.08960   1.10457
 Alpha virt. eigenvalues --    1.10903   1.13324   1.14052   1.15225   1.16648
 Alpha virt. eigenvalues --    1.17641   1.21912   1.24752   1.27314   1.28775
 Alpha virt. eigenvalues --    1.32025   1.33305   1.39394   1.40175   1.40276
 Alpha virt. eigenvalues --    1.43380   1.50274   1.61354   1.64424   1.64683
 Alpha virt. eigenvalues --    1.72080   1.73291   1.76220   1.77958   1.90415
 Alpha virt. eigenvalues --    1.93378   1.93762   2.05480   2.18406   2.22644
 Alpha virt. eigenvalues --    2.36575   2.53866   2.60676   2.63362   2.64945
 Alpha virt. eigenvalues --    2.66192   2.72618   2.75301   2.75687   2.80114
 Alpha virt. eigenvalues --    2.81619   2.82878   2.85988   2.87439   2.90059
 Alpha virt. eigenvalues --    3.04226   3.07279   3.27498   3.28854   3.28863
 Alpha virt. eigenvalues --    3.32071   3.33976   3.34212   3.35489   3.35934
 Alpha virt. eigenvalues --    3.40114   3.47018   3.83355   3.92672   4.08116
 Alpha virt. eigenvalues --    4.16504   4.17621   4.35543   4.37481   4.42261
 Alpha virt. eigenvalues --    4.53264   4.56080   4.56449   4.66102   4.72846
 Alpha virt. eigenvalues --    4.81556   4.89545   5.04663   5.12984   5.48935
 Alpha virt. eigenvalues --    5.62405   5.65643   5.96934   6.54266   6.86600
 Alpha virt. eigenvalues --    6.96526   7.07511   7.12024   7.33885   7.48775
 Alpha virt. eigenvalues --    7.51216   7.57065   7.58832   7.61403   7.79595
 Alpha virt. eigenvalues --    7.91267   8.49982  14.52232
          Condensed to atoms (all electrons):
               1          2          3          4
     1  O    8.477368   0.215737  -0.101716   0.164011
     2  H    0.215737   0.643056  -0.004261   0.021394
     3  Cl  -0.101716  -0.004261  17.566846   0.139333
     4  H    0.164011   0.021394   0.139333   0.443732
 Mulliken charges:
               1
     1  O   -0.755400
     2  H    0.124073
     3  Cl  -0.600202
     4  H    0.231529
 Sum of Mulliken charges =  -1.00000
 Mulliken charges with hydrogens summed into heavy atoms:
               1
     1  O   -0.399798
     3  Cl  -0.600202
 Electronic spatial extent (au):  <R**2>=            663.2838
 Charge=             -1.0000 electrons
 Dipole moment (field-independent basis, Debye):
    X=              2.5541    Y=              7.1192    Z=             -0.0000  Tot=              7.5635
 Quadrupole moment (field-independent basis, Debye-Ang):
   XX=            -23.4097   YY=            -49.0324   ZZ=            -25.0401
   XY=             -4.7972   XZ=             -0.0000   YZ=              0.0000
 Traceless Quadrupole moment (field-independent basis, Debye-Ang):
   XX=              9.0843   YY=            -16.5383   ZZ=              7.4540
   XY=             -4.7972   XZ=             -0.0000   YZ=              0.0000
 Octapole moment (field-independent basis, Debye-Ang**2):
  XXX=             29.2656  YYY=            217.7371  ZZZ=             -0.0000  XYY=             24.2680
  XXY=             50.6493  XXZ=             -0.0000  XZZ=              8.9650  YZZ=             47.4827
  YYZ=              0.0000  XYZ=              0.0000
 Hexadecapole moment (field-independent basis, Debye-Ang**3):
 XXXX=            -70.5979 YYYY=          -1103.5068 ZZZZ=            -35.8295 XXXY=            -90.1218
 XXXZ=             -0.0000 YYYX=           -131.5661 YYYZ=             -0.0000 ZZZX=             -0.0000
 ZZZY=              0.0000 XXYY=           -169.3095 XXZZ=            -18.0031 YYZZ=           -154.3890
 XXYZ=             -0.0000 YYXZ=             -0.0000 ZZXY=            -29.4370
 N-N= 3.908873822840D+01 E-N=-1.360468413269D+03  KE= 5.357960189808D+02
 No NMR shielding tensors so no spin-rotation constants.
 Leave Link  601 at Fri Oct  8 13:09:41 2021, MaxMem= 16106127360 cpu:               4.1 elap:               0.2
 (Enter /sw/contrib/gaussian/g16/B01/g16/l607.exe)
 ******************************Gaussian NBO Version 3.1******************************
             N A T U R A L   A T O M I C   O R B I T A L   A N D
          N A T U R A L   B O N D   O R B I T A L   A N A L Y S I S
 ******************************Gaussian NBO Version 3.1******************************
       /RESON  / : Allow strongly delocalized NBO set

 Analyzing the MP2 density

 Job title: title                                                           

 Storage needed:     61222 in NPA,     81148 in NBO (********** available)
 GSVD:  LWork=       -1046 too small for GESVD, short by       42557 words or       42557 for optimal perf.


 NATURAL POPULATIONS:  Natural atomic orbital occupancies 
                                                          
   NAO  Atom  No  lang   Type(AO)    Occupancy
 --------------------------------------------
     1    O    1  S      Cor( 1S)     1.99972
     2    O    1  S      Val( 2S)     1.81378
     3    O    1  S      Ryd( 3S)     0.00791
     4    O    1  S      Ryd( 4S)     0.00032
     5    O    1  S      Ryd( 5S)     0.00020
     6    O    1  px     Val( 2p)     1.51141
     7    O    1  px     Ryd( 3p)     0.01488
     8    O    1  px     Ryd( 4p)     0.00061
     9    O    1  px     Ryd( 5p)     0.00022
    10    O    1  py     Val( 2p)     1.74914
    11    O    1  py     Ryd( 3p)     0.01762
    12    O    1  py     Ryd( 4p)     0.00058
    13    O    1  py     Ryd( 5p)     0.00000
    14    O    1  pz     Val( 2p)     1.94853
    15    O    1  pz     Ryd( 3p)     0.02686
    16    O    1  pz     Ryd( 4p)     0.00059
    17    O    1  pz     Ryd( 5p)     0.00000
    18    O    1  dxy    Ryd( 3d)     0.00824
    19    O    1  dxy    Ryd( 4d)     0.00047
    20    O    1  dxy    Ryd( 5d)     0.00008
    21    O    1  dxz    Ryd( 3d)     0.00868
    22    O    1  dxz    Ryd( 4d)     0.00050
    23    O    1  dxz    Ryd( 5d)     0.00008
    24    O    1  dyz    Ryd( 3d)     0.00661
    25    O    1  dyz    Ryd( 4d)     0.00057
    26    O    1  dyz    Ryd( 5d)     0.00008
    27    O    1  dx2y2  Ryd( 3d)     0.01048
    28    O    1  dx2y2  Ryd( 4d)     0.00051
    29    O    1  dx2y2  Ryd( 5d)     0.00011
    30    O    1  dz2    Ryd( 3d)     0.00748
    31    O    1  dz2    Ryd( 4d)     0.00061
    32    O    1  dz2    Ryd( 5d)     0.00011
    33    O    1  f(0)   Ryd( 4f)     0.00058
    34    O    1  f(0)   Ryd( 5f)     0.00010
    35    O    1  f(C1)  Ryd( 4f)     0.00055
    36    O    1  f(C1)  Ryd( 5f)     0.00009
    37    O    1  f(S1)  Ryd( 4f)     0.00059
    38    O    1  f(S1)  Ryd( 5f)     0.00013
    39    O    1  f(C2)  Ryd( 4f)     0.00050
    40    O    1  f(C2)  Ryd( 5f)     0.00010
    41    O    1  f(S2)  Ryd( 4f)     0.00048
    42    O    1  f(S2)  Ryd( 5f)     0.00008
    43    O    1  f(C3)  Ryd( 4f)     0.00048
    44    O    1  f(C3)  Ryd( 5f)     0.00014
    45    O    1  f(S3)  Ryd( 4f)     0.00047
    46    O    1  f(S3)  Ryd( 5f)     0.00011

    47    H    2  S      Val( 1S)     0.57266
    48    H    2  S      Ryd( 2S)     0.00263
    49    H    2  S      Ryd( 3S)     0.00014
    50    H    2  S      Ryd( 4S)     0.00010
    51    H    2  px     Ryd( 2p)     0.00267
    52    H    2  px     Ryd( 3p)     0.00081
    53    H    2  px     Ryd( 4p)     0.00013
    54    H    2  py     Ryd( 2p)     0.00385
    55    H    2  py     Ryd( 3p)     0.00022
    56    H    2  py     Ryd( 4p)     0.00011
    57    H    2  pz     Ryd( 2p)     0.00639
    58    H    2  pz     Ryd( 3p)     0.00021
    59    H    2  pz     Ryd( 4p)     0.00006
    60    H    2  dxy    Ryd( 3d)     0.00007
    61    H    2  dxy    Ryd( 4d)     0.00005
    62    H    2  dxz    Ryd( 3d)     0.00008
    63    H    2  dxz    Ryd( 4d)     0.00007
    64    H    2  dyz    Ryd( 3d)     0.00013
    65    H    2  dyz    Ryd( 4d)     0.00005
    66    H    2  dx2y2  Ryd( 3d)     0.00012
    67    H    2  dx2y2  Ryd( 4d)     0.00006
    68    H    2  dz2    Ryd( 3d)     0.00013
    69    H    2  dz2    Ryd( 4d)     0.00007

    70   Cl    3  S      Cor( 1S)     2.00000
    71   Cl    3  S      Cor( 2S)     1.99976
    72   Cl    3  S      Val( 3S)     1.92338
    73   Cl    3  S      Ryd( 4S)     0.00121
    74   Cl    3  S      Ryd( 5S)     0.00016
    75   Cl    3  S      Ryd( 6S)     0.00009
    76   Cl    3  px     Cor( 2p)     2.00003
    77   Cl    3  px     Val( 3p)     1.94149
    78   Cl    3  px     Ryd( 4p)     0.01094
    79   Cl    3  px     Ryd( 5p)     0.00054
    80   Cl    3  px     Ryd( 6p)     0.00004
    81   Cl    3  py     Cor( 2p)     1.99999
    82   Cl    3  py     Val( 3p)     1.68429
    83   Cl    3  py     Ryd( 4p)     0.00867
    84   Cl    3  py     Ryd( 5p)     0.00052
    85   Cl    3  py     Ryd( 6p)     0.00022
    86   Cl    3  pz     Cor( 2p)     2.00003
    87   Cl    3  pz     Val( 3p)     1.95337
    88   Cl    3  pz     Ryd( 4p)     0.01102
    89   Cl    3  pz     Ryd( 5p)     0.00053
    90   Cl    3  pz     Ryd( 6p)     0.00000
    91   Cl    3  dxy    Ryd( 3d)     0.01821
    92   Cl    3  dxy    Ryd( 4d)     0.00052
    93   Cl    3  dxy    Ryd( 5d)     0.00016
    94   Cl    3  dxz    Ryd( 3d)     0.01781
    95   Cl    3  dxz    Ryd( 4d)     0.00083
    96   Cl    3  dxz    Ryd( 5d)     0.00010
    97   Cl    3  dyz    Ryd( 3d)     0.01788
    98   Cl    3  dyz    Ryd( 4d)     0.00053
    99   Cl    3  dyz    Ryd( 5d)     0.00015
   100   Cl    3  dx2y2  Ryd( 3d)     0.01964
   101   Cl    3  dx2y2  Ryd( 4d)     0.00064
   102   Cl    3  dx2y2  Ryd( 5d)     0.00015
   103   Cl    3  dz2    Ryd( 3d)     0.01858
   104   Cl    3  dz2    Ryd( 4d)     0.00079
   105   Cl    3  dz2    Ryd( 5d)     0.00011
   106   Cl    3  f(0)   Ryd( 4f)     0.00127
   107   Cl    3  f(0)   Ryd( 5f)     0.00014
   108   Cl    3  f(C1)  Ryd( 4f)     0.00127
   109   Cl    3  f(C1)  Ryd( 5f)     0.00013
   110   Cl    3  f(S1)  Ryd( 4f)     0.00132
   111   Cl    3  f(S1)  Ryd( 5f)     0.00015
   112   Cl    3  f(C2)  Ryd( 4f)     0.00126
   113   Cl    3  f(C2)  Ryd( 5f)     0.00014
   114   Cl    3  f(S2)  Ryd( 4f)     0.00125
   115   Cl    3  f(S2)  Ryd( 5f)     0.00013
   116   Cl    3  f(C3)  Ryd( 4f)     0.00130
   117   Cl    3  f(C3)  Ryd( 5f)     0.00015
   118   Cl    3  f(S3)  Ryd( 4f)     0.00133
   119   Cl    3  f(S3)  Ryd( 5f)     0.00016

   120    H    4  S      Val( 1S)     0.60419
   121    H    4  S      Ryd( 2S)     0.00554
   122    H    4  S      Ryd( 3S)     0.00028
   123    H    4  S      Ryd( 4S)     0.00008
   124    H    4  px     Ryd( 2p)     0.00410
   125    H    4  px     Ryd( 3p)     0.00037
   126    H    4  px     Ryd( 4p)     0.00007
   127    H    4  py     Ryd( 2p)     0.00371
   128    H    4  py     Ryd( 3p)     0.00118
   129    H    4  py     Ryd( 4p)     0.00012
   130    H    4  pz     Ryd( 2p)     0.00424
   131    H    4  pz     Ryd( 3p)     0.00030
   132    H    4  pz     Ryd( 4p)     0.00006
   133    H    4  dxy    Ryd( 3d)     0.00023
   134    H    4  dxy    Ryd( 4d)     0.00009
   135    H    4  dxz    Ryd( 3d)     0.00019
   136    H    4  dxz    Ryd( 4d)     0.00006
   137    H    4  dyz    Ryd( 3d)     0.00025
   138    H    4  dyz    Ryd( 4d)     0.00008
   139    H    4  dx2y2  Ryd( 3d)     0.00018
   140    H    4  dx2y2  Ryd( 4d)     0.00014
   141    H    4  dz2    Ryd( 3d)     0.00018
   142    H    4  dz2    Ryd( 4d)     0.00009


 Summary of Natural Population Analysis:                  
                                                          
                                       Natural Population 
                Natural  -----------------------------------------------
    Atom  No    Charge         Core      Valence    Rydberg      Total
 -----------------------------------------------------------------------
      O    1   -1.14137      1.99972     7.02286    0.11880     9.14137
      H    2    0.40917      0.00000     0.57266    0.01816     0.59083
     Cl    3   -0.64241      9.99981     7.50254    0.14006    17.64241
      H    4    0.37428      0.00000     0.60419    0.02153     0.62572
 =======================================================================
   * Total *   -1.00033     11.99953    15.70226    0.29855    28.00033

                                 Natural Population      
 --------------------------------------------------------
   Core                      11.99953 ( 99.9961% of  12)
   Valence                   15.70226 ( 98.1391% of  16)
   Natural Minimal Basis     27.70178 ( 98.9349% of  28)
   Natural Rydberg Basis      0.29855 (  1.0662% of  28)
 --------------------------------------------------------

    Atom  No          Natural Electron Configuration
 ----------------------------------------------------------------------------
      O    1      [core]2S( 1.81)2p( 5.21)3S( 0.01)3p( 0.06)3d( 0.04)
      H    2            1S( 0.57)2p( 0.01)
     Cl    3      [core]3S( 1.92)3p( 5.58)3d( 0.09)4p( 0.03)4f( 0.01)
      H    4            1S( 0.60)2S( 0.01)2p( 0.01)


 NATURAL BOND ORBITAL ANALYSIS:
 Warning:  a bond orbital has occupanc of -0.00010
 Warning:  a bond orbital has occupanc of -0.00045
 Warning:  a bond orbital has occupanc of -0.00002

                       Occupancies       Lewis Structure    Low   High
           Occ.    -------------------  -----------------   occ   occ
  Cycle   Thresh.   Lewis   Non-Lewis     CR  BD  3C  LP    (L)   (NL)   Dev
 =============================================================================
   1(1)    1.90    27.34045   0.65955      6   2   0   6     1      1    0.45
 Warning:  a bond orbital has occupanc of -0.00010
 Warning:  a bond orbital has occupanc of -0.00045
 Warning:  a bond orbital has occupanc of -0.00002
   2(2)    1.90    27.42926   0.57074      6   2   0   6     1      1    0.33
 Warning:  a bond orbital has occupanc of -0.00010
 Warning:  a bond orbital has occupanc of -0.00045
 Warning:  a bond orbital has occupanc of -0.00002
   3(3)    1.90    27.34045   0.65955      6   2   0   6     1      1    0.45
 Warning:  a bond orbital has occupanc of -0.00010
 Warning:  a bond orbital has occupanc of -0.00045
 Warning:  a bond orbital has occupanc of -0.00002
   4(4)    1.90    27.42926   0.57074      6   2   0   6     1      1    0.33
 Warning:  a bond orbital has occupanc of -0.00010
 Warning:  a bond orbital has occupanc of -0.00045
 Warning:  a bond orbital has occupanc of -0.00002
   5(1)    1.80    27.42926   0.57074      6   2   0   6     1      1    0.33
 Warning:  a bond orbital has occupanc of -0.00010
 Warning:  a bond orbital has occupanc of -0.00045
 Warning:  a bond orbital has occupanc of -0.00002
   6(2)    1.80    27.34045   0.65955      6   2   0   6     1      1    0.45
 Warning:  a bond orbital has occupanc of -0.00010
 Warning:  a bond orbital has occupanc of -0.00045
 Warning:  a bond orbital has occupanc of -0.00002
   7(3)    1.80    27.42926   0.57074      6   2   0   6     1      1    0.33
 Warning:  a bond orbital has occupanc of -0.00010
 Warning:  a bond orbital has occupanc of -0.00045
 Warning:  a bond orbital has occupanc of -0.00002
   8(1)    1.70    27.42951   0.57049      6   2   0   6     0      1    0.33
 Warning:  a bond orbital has occupanc of -0.00010
 Warning:  a bond orbital has occupanc of -0.00045
 Warning:  a bond orbital has occupanc of -0.00002
   9(2)    1.70    27.42951   0.57049      6   2   0   6     0      1    0.33
 Warning:  a bond orbital has occupanc of -0.00010
 Warning:  a bond orbital has occupanc of -0.00045
 Warning:  a bond orbital has occupanc of -0.00002
  10(1)    1.60    27.10036   0.89964      6   1   0   7     0      1    0.45
 Warning:  a bond orbital has occupanc of -0.00010
 Warning:  a bond orbital has occupanc of -0.00045
 Warning:  a bond orbital has occupanc of -0.00002
  11(2)    1.60    27.10036   0.89964      6   1   0   7     0      1    0.45
 Warning:  a bond orbital has occupanc of -0.00010
 Warning:  a bond orbital has occupanc of -0.00045
 Warning:  a bond orbital has occupanc of -0.00002
  12(1)    1.50    27.10036   0.89964      6   1   0   7     0      1    0.45
 Warning:  a bond orbital has occupanc of -0.00010
 Warning:  a bond orbital has occupanc of -0.00045
 Warning:  a bond orbital has occupanc of -0.00002
  13(2)    1.50    27.10036   0.89964      6   1   0   7     0      1    0.45
 Warning:  a bond orbital has occupanc of -0.00010
 Warning:  a bond orbital has occupanc of -0.00045
 Warning:  a bond orbital has occupanc of -0.00002
  14(1)    1.70    27.42951   0.57049      6   2   0   6     0      1    0.33
 -----------------------------------------------------------------------------

 Structure accepted: RESONANCE keyword permits strongly delocalized structure

 --------------------------------------------------------
   Core                     11.99953 ( 99.996% of  12)
   Valence Lewis            15.42998 ( 96.437% of  16)
  ==================       ============================
   Total Lewis              27.42951 ( 97.963% of  28)
  -----------------------------------------------------
   Valence non-Lewis         0.29850 (  1.066% of  28)
   Rydberg non-Lewis         0.27199 (  0.971% of  28)
  ==================       ============================
   Total non-Lewis           0.57049 (  2.037% of  28)
 --------------------------------------------------------


       (Occupancy)   Bond orbital/ Coefficients/ Hybrids
 ---------------------------------------------------------------------------------
     1. (1.96176) BD ( 1) O   1 - H   2  
                ( 71.62%)   0.8463* O   1 s( 21.35%)p 3.66( 78.19%)d 0.02(  0.45%)
                                                  f 0.00(  0.01%)
                                            0.0003  0.4619 -0.0117 -0.0020 -0.0030
                                            0.8824 -0.0499 -0.0105 -0.0099  0.0208
                                           -0.0040  0.0022 -0.0024  0.0000  0.0000
                                            0.0000  0.0000 -0.0097  0.0038 -0.0023
                                            0.0000  0.0000  0.0000  0.0000  0.0000
                                            0.0000  0.0570 -0.0057  0.0031 -0.0325
                                            0.0001  0.0008  0.0000  0.0000 -0.0091
                                           -0.0000 -0.0008  0.0004  0.0000  0.0000
                                            0.0000  0.0000  0.0064  0.0034  0.0002
                                           -0.0002
                ( 28.38%)   0.5327* H   2 s( 99.81%)p 0.00(  0.19%)d 0.00(  0.00%)
                                            0.9990  0.0058  0.0000  0.0003  0.0251
                                           -0.0341 -0.0033 -0.0071  0.0005  0.0005
                                            0.0000  0.0000  0.0000  0.0004  0.0022
                                            0.0000  0.0000  0.0000  0.0000  0.0018
                                            0.0017 -0.0019 -0.0001
     2. (1.95584) BD ( 1)Cl   3 - H   4  
                ( 80.42%)   0.8968*Cl   3 s( 14.74%)p 5.76( 84.94%)d 0.02(  0.31%)
                                                  f 0.00(  0.02%)
                                           -0.0000  0.0002  0.3839 -0.0030 -0.0013
                                            0.0010  0.0000  0.1876 -0.0027 -0.0017
                                            0.0013  0.0001  0.9022 -0.0126 -0.0069
                                            0.0024  0.0000  0.0000  0.0000  0.0000
                                            0.0000  0.0194  0.0011 -0.0001  0.0000
                                            0.0000  0.0000  0.0000  0.0000  0.0000
                                           -0.0439 -0.0019  0.0006 -0.0281 -0.0014
                                            0.0003  0.0000  0.0000 -0.0017 -0.0000
                                           -0.0079 -0.0003  0.0000  0.0000  0.0000
                                            0.0000 -0.0059 -0.0002 -0.0082 -0.0007
                ( 19.58%)   0.4425* H   4 s( 99.83%)p 0.00(  0.15%)d 0.00(  0.03%)
                                            0.9990 -0.0134 -0.0060 -0.0010 -0.0035
                                           -0.0049 -0.0032 -0.0204 -0.0309 -0.0073
                                            0.0000  0.0000  0.0000  0.0026  0.0057
                                            0.0000  0.0000  0.0000  0.0000 -0.0059
                                           -0.0112 -0.0042 -0.0077
     3. (1.99972) CR ( 1) O   1           s(100.00%)p 0.00(  0.00%)
                                            1.0000 -0.0006 -0.0000 -0.0000 -0.0000
                                           -0.0000  0.0000  0.0000 -0.0000  0.0004
                                            0.0000 -0.0000 -0.0000  0.0000  0.0000
                                            0.0000  0.0000  0.0000 -0.0000  0.0000
                                            0.0000  0.0000  0.0000  0.0000  0.0000
                                            0.0000  0.0000 -0.0000  0.0000  0.0000
                                           -0.0000 -0.0000  0.0000  0.0000  0.0000
                                            0.0000 -0.0000  0.0000  0.0000  0.0000
                                            0.0000  0.0000 -0.0000 -0.0000 -0.0000
                                            0.0000
     4. (2.00000) CR ( 1)Cl   3           s(100.00%)
                                            1.0000  0.0000 -0.0000 -0.0000 -0.0000
                                            0.0000  0.0000  0.0000 -0.0000 -0.0000
                                            0.0000  0.0000  0.0000 -0.0000 -0.0000
                                            0.0000  0.0000  0.0000  0.0000  0.0000
                                            0.0000  0.0000  0.0000  0.0000  0.0000
                                            0.0000  0.0000  0.0000  0.0000  0.0000
                                           -0.0000 -0.0000  0.0000 -0.0000 -0.0000
                                           -0.0000  0.0000  0.0000 -0.0000 -0.0000
                                           -0.0000 -0.0000  0.0000  0.0000  0.0000
                                            0.0000 -0.0000 -0.0000 -0.0000 -0.0000
     5. (1.99976) CR ( 2)Cl   3           s(100.00%)p 0.00(  0.00%)
                                            0.0000  1.0000 -0.0003  0.0000  0.0000
                                           -0.0000 -0.0000 -0.0000  0.0000  0.0000
                                           -0.0000 -0.0000 -0.0001  0.0000  0.0000
                                           -0.0000  0.0000  0.0000  0.0000  0.0000
                                            0.0000 -0.0000 -0.0000  0.0000  0.0000
                                            0.0000  0.0000  0.0000  0.0000  0.0000
                                            0.0000  0.0000 -0.0000  0.0000  0.0000
                                           -0.0000  0.0000  0.0000  0.0000 -0.0000
                                            0.0000 -0.0000  0.0000  0.0000  0.0000
                                            0.0000  0.0000 -0.0000  0.0000  0.0000
     6. (2.00003) CR ( 3)Cl   3           s(  0.00%)p 1.00(100.00%)
                                            0.0000 -0.0000  0.0000  0.0000  0.0000
                                           -0.0000  1.0000  0.0000  0.0000  0.0000
                                           -0.0000 -0.0000 -0.0000  0.0000  0.0000
                                           -0.0000  0.0000  0.0000  0.0000  0.0000
                                            0.0000 -0.0000 -0.0000 -0.0000  0.0000
                                            0.0000  0.0000  0.0000  0.0000  0.0000
                                            0.0000  0.0000 -0.0000  0.0000  0.0000
                                           -0.0000  0.0000  0.0000  0.0000  0.0000
                                            0.0000  0.0000  0.0000  0.0000  0.0000
                                            0.0000  0.0000  0.0000  0.0000 -0.0000
     7. (1.99999) CR ( 4)Cl   3           s(  0.00%)p 1.00(100.00%)
                                            0.0000 -0.0000  0.0000  0.0000  0.0000
                                           -0.0000 -0.0000 -0.0000  0.0000  0.0000
                                           -0.0000  1.0000 -0.0001  0.0000  0.0000
                                           -0.0000  0.0000  0.0000  0.0000  0.0000
                                            0.0000 -0.0000 -0.0000 -0.0000  0.0000
                                            0.0000  0.0000  0.0000  0.0000  0.0000
                                            0.0000  0.0000  0.0000  0.0000  0.0000
                                            0.0000  0.0000  0.0000  0.0000  0.0000
                                            0.0000  0.0000  0.0000  0.0000  0.0000
                                            0.0000  0.0000  0.0000  0.0000  0.0000
     8. (2.00003) CR ( 5)Cl   3           s(  0.00%)p 1.00(100.00%)
                                            0.0000  0.0000  0.0000  0.0000  0.0000
                                            0.0000  0.0000  0.0000  0.0000  0.0000
                                            0.0000  0.0000  0.0000  0.0000  0.0000
                                            0.0000  1.0000  0.0000  0.0000  0.0000
                                           -0.0000  0.0000  0.0000  0.0000  0.0000
                                            0.0000 -0.0000  0.0000 -0.0000 -0.0000
                                            0.0000  0.0000  0.0000  0.0000  0.0000
                                            0.0000 -0.0000  0.0000  0.0000  0.0000
                                            0.0000  0.0000 -0.0000  0.0000  0.0000
                                           -0.0000  0.0000  0.0000  0.0000  0.0000
     9. (1.96789) LP ( 1) O   1           s( 64.82%)p 0.54( 35.13%)d 0.00(  0.05%)
                                                  f 0.00(  0.00%)
                                            0.0003  0.8051 -0.0006 -0.0002  0.0001
                                           -0.4298  0.0037 -0.0016  0.0031  0.4080
                                            0.0065  0.0026  0.0026  0.0000  0.0000
                                            0.0000  0.0000  0.0205 -0.0029 -0.0006
                                            0.0000  0.0000  0.0000  0.0000  0.0000
                                            0.0000 -0.0066  0.0014 -0.0007  0.0081
                                           -0.0018  0.0015  0.0000  0.0000  0.0026
                                           -0.0008 -0.0010  0.0001  0.0000  0.0000
                                            0.0000  0.0000 -0.0003 -0.0012  0.0020
                                           -0.0002
    10. (1.95272) LP ( 2) O   1           s(  0.00%)p 1.00( 99.85%)d 0.00(  0.15%)
                                                  f 0.00(  0.01%)
                                            0.0000  0.0000  0.0000  0.0000  0.0000
                                            0.0000  0.0000  0.0000  0.0000  0.0000
                                            0.0000  0.0000  0.0000  0.9989  0.0236
                                            0.0044  0.0079  0.0000  0.0000  0.0000
                                            0.0358 -0.0028 -0.0022 -0.0127  0.0018
                                            0.0013  0.0000  0.0000  0.0000  0.0000
                                            0.0000  0.0000 -0.0071  0.0023  0.0000
                                            0.0000  0.0000  0.0000  0.0026  0.0005
                                            0.0010 -0.0004  0.0000  0.0000  0.0000
                                            0.0000
    11. (1.71028) LP ( 3) O   1           s( 13.79%)p 6.24( 86.04%)d 0.01(  0.16%)
                                                  f 0.00(  0.01%)
                                            0.0006  0.3711  0.0137  0.0023  0.0028
                                           -0.1712  0.0074  0.0006  0.0032 -0.9115
                                           -0.0135 -0.0008  0.0010 -0.0000 -0.0000
                                           -0.0000 -0.0000 -0.0234  0.0023 -0.0001
                                           -0.0000 -0.0000 -0.0000 -0.0000 -0.0000
                                           -0.0000 -0.0277  0.0064 -0.0014 -0.0155
                                            0.0040 -0.0000 -0.0000 -0.0000  0.0009
                                            0.0002  0.0067 -0.0028 -0.0000 -0.0000
                                           -0.0000 -0.0000  0.0021 -0.0010 -0.0010
                                           -0.0013
    12. (1.97414) LP ( 1)Cl   3           s( 85.24%)p 0.17( 14.75%)d 0.00(  0.01%)
                                                  f 0.00(  0.00%)
                                            0.0000  0.0003  0.9233  0.0012  0.0007
                                           -0.0006 -0.0000 -0.0802  0.0013  0.0001
                                           -0.0004 -0.0001 -0.3756  0.0052 -0.0000
                                           -0.0008  0.0000  0.0000  0.0000  0.0000
                                            0.0000 -0.0026  0.0001 -0.0004  0.0000
                                            0.0000  0.0000  0.0000  0.0000  0.0000
                                            0.0059 -0.0001  0.0010  0.0036 -0.0001
                                            0.0007  0.0000  0.0000  0.0001  0.0001
                                            0.0002  0.0003  0.0000  0.0000  0.0000
                                            0.0000  0.0002  0.0003  0.0002  0.0004
    13. (1.95380) LP ( 2)Cl   3           s(  0.00%)p 1.00( 99.98%)d 0.00(  0.02%)
                                                  f 0.00(  0.00%)
                                            0.0000  0.0000  0.0000  0.0000  0.0000
                                            0.0000  0.0000  0.0000  0.0000  0.0000
                                            0.0000  0.0000  0.0000  0.0000  0.0000
                                            0.0000 -0.0000  0.9999  0.0043  0.0022
                                           -0.0003  0.0000  0.0000  0.0000  0.0031
                                            0.0005 -0.0003  0.0110 -0.0007 -0.0044
                                            0.0000  0.0000  0.0000  0.0000  0.0000
                                            0.0000 -0.0040  0.0017  0.0000  0.0000
                                            0.0000  0.0000 -0.0045  0.0018  0.0020
                                           -0.0009  0.0000  0.0000  0.0000  0.0000
    14. (1.95354) LP ( 3)Cl   3           s(  0.00%)p 1.00( 99.98%)d 0.00(  0.02%)
                                                  f 0.00(  0.00%)
                                            0.0000 -0.0000  0.0019  0.0002  0.0008
                                           -0.0004 -0.0000  0.9788  0.0051  0.0025
                                           -0.0009  0.0000 -0.2043 -0.0009 -0.0002
                                           -0.0002  0.0000  0.0000  0.0000  0.0000
                                            0.0000  0.0108 -0.0006 -0.0041  0.0000
                                            0.0000  0.0000  0.0000  0.0000  0.0000
                                            0.0060  0.0003 -0.0012 -0.0002 -0.0004
                                           -0.0004  0.0000  0.0000 -0.0017  0.0008
                                            0.0003 -0.0001  0.0000  0.0000  0.0000
                                            0.0000 -0.0048  0.0019  0.0035 -0.0014
    15. (0.02598) RY*( 1) O   1           s(  0.00%)p 1.00( 99.23%)d 0.01(  0.75%)
                                                  f 0.00(  0.01%)
                                            0.0000  0.0000  0.0000  0.0000  0.0000
                                            0.0000  0.0000  0.0000  0.0000  0.0000
                                            0.0000  0.0000  0.0000 -0.0264  0.9951
                                           -0.0247 -0.0265  0.0000  0.0000  0.0000
                                            0.0735 -0.0165  0.0061 -0.0388  0.0151
                                           -0.0087  0.0000  0.0000  0.0000  0.0000
                                            0.0000  0.0000 -0.0078  0.0092  0.0000
                                            0.0000  0.0000  0.0000 -0.0018  0.0006
                                            0.0001 -0.0013  0.0000  0.0000  0.0000
                                            0.0000
    16. (0.01998) RY*( 2) O   1           s( 11.78%)p 7.34( 86.54%)d 0.14(  1.66%)
                                                  f 0.00(  0.02%)
                                            0.0000 -0.0052  0.3429  0.0045 -0.0133
                                           -0.0077 -0.3927  0.0051  0.0152 -0.0141
                                            0.8429 -0.0122 -0.0065  0.0000  0.0000
                                            0.0000  0.0000  0.1238 -0.0211  0.0074
                                            0.0000  0.0000  0.0000  0.0000  0.0000
                                            0.0000 -0.0197 -0.0058  0.0063  0.0078
                                           -0.0143  0.0077  0.0000  0.0000  0.0001
                                           -0.0004 -0.0028  0.0059  0.0000  0.0000
                                            0.0000  0.0000  0.0091 -0.0045  0.0056
                                           -0.0010
    17. (0.01139) RY*( 3) O   1           s( 14.53%)p 5.70( 82.75%)d 0.17(  2.49%)
                                                  f 0.02(  0.23%)
                                            0.0000 -0.0145  0.3801 -0.0180  0.0178
                                           -0.0395 -0.7615  0.0195  0.0345  0.0079
                                           -0.4943 -0.0026 -0.0119 -0.0000 -0.0000
                                           -0.0000 -0.0000 -0.0888 -0.0104  0.0048
                                           -0.0000 -0.0000 -0.0000 -0.0000 -0.0000
                                           -0.0000  0.1106  0.0554 -0.0286  0.0134
                                            0.0198 -0.0129 -0.0000 -0.0000 -0.0052
                                            0.0024  0.0172 -0.0181 -0.0000 -0.0000
                                           -0.0000 -0.0000  0.0295 -0.0263  0.0054
                                           -0.0084
    18. (0.00660) RY*( 4) O   1           s( 22.61%)p 0.28(  6.43%)d 3.11( 70.30%)
                                                  f 0.03(  0.66%)
                                           -0.0000  0.0138  0.4751  0.0072 -0.0094
                                            0.0370  0.2471 -0.0058 -0.0122  0.0365
                                            0.0179 -0.0078 -0.0023 -0.0000 -0.0000
                                           -0.0000 -0.0000 -0.7125 -0.0163  0.0004
                                           -0.0000 -0.0000 -0.0000 -0.0000 -0.0000
                                           -0.0000 -0.4184  0.0010 -0.0075  0.1377
                                            0.0283 -0.0154 -0.0000 -0.0000  0.0110
                                            0.0008  0.0355 -0.0257 -0.0000 -0.0000
                                           -0.0000 -0.0000 -0.0565  0.0249 -0.0275
                                           -0.0007
    19. (0.00637) RY*( 5) O   1           s(  0.00%)p 1.00(  0.02%)d99.99( 99.22%)
                                                  f46.62(  0.77%)
                                            0.0000  0.0000  0.0000  0.0000  0.0000
                                            0.0000  0.0000  0.0000  0.0000  0.0000
                                            0.0000  0.0000  0.0000 -0.0053  0.0000
                                           -0.0109 -0.0041  0.0000  0.0000  0.0000
                                            0.4584  0.0259 -0.0082  0.8826  0.0487
                                           -0.0033  0.0000  0.0000  0.0000  0.0000
                                            0.0000  0.0000  0.0066 -0.0113  0.0000
                                            0.0000  0.0000  0.0000  0.0719 -0.0449
                                            0.0173 -0.0026  0.0000  0.0000  0.0000
                                            0.0000
    20. (0.00613) RY*( 6) O   1           s(  0.00%)p 1.00(  0.81%)d99.99( 98.21%)
                                                  f 1.21(  0.98%)
                                            0.0000  0.0000  0.0000  0.0000  0.0000
                                            0.0000  0.0000  0.0000  0.0000  0.0000
                                            0.0000  0.0000  0.0000 -0.0357 -0.0820
                                            0.0092  0.0021  0.0000  0.0000  0.0000
                                            0.8750  0.0666 -0.0274 -0.4583 -0.0348
                                            0.0060  0.0000  0.0000  0.0000  0.0000
                                            0.0000  0.0000 -0.0655  0.0354  0.0000
                                            0.0000  0.0000  0.0000  0.0498 -0.0218
                                           -0.0323  0.0151  0.0000  0.0000  0.0000
                                            0.0000
    21. (0.00609) RY*( 7) O   1           s(  4.37%)p 0.64(  2.79%)d21.14( 92.27%)
                                                  f 0.13(  0.57%)
                                           -0.0000  0.0123  0.2081 -0.0100 -0.0099
                                            0.0252  0.1563 -0.0118 -0.0046 -0.0232
                                           -0.0457  0.0090 -0.0036  0.0000  0.0000
                                            0.0000  0.0000  0.2225  0.0165 -0.0041
                                            0.0000  0.0000  0.0000  0.0000  0.0000
                                            0.0000  0.2446  0.0041  0.0037  0.8989
                                            0.0687 -0.0166  0.0000  0.0000  0.0444
                                           -0.0209 -0.0463  0.0305  0.0000  0.0000
                                            0.0000  0.0000  0.0027  0.0025 -0.0064
                                            0.0106
    22. (0.00569) RY*( 8) O   1           s( 15.27%)p 0.43(  6.51%)d 5.00( 76.31%)
                                                  f 0.12(  1.91%)
                                           -0.0000  0.0050  0.3908 -0.0006 -0.0014
                                            0.0511  0.1601 -0.0199 -0.0021  0.0067
                                           -0.1891 -0.0058 -0.0255 -0.0000 -0.0000
                                           -0.0000 -0.0000  0.6338  0.0184  0.0024
                                           -0.0000 -0.0000 -0.0000 -0.0000 -0.0000
                                           -0.0000 -0.5864  0.0204 -0.0160 -0.1266
                                            0.0175 -0.0135 -0.0000 -0.0000  0.0369
                                           -0.0237  0.0368 -0.0365 -0.0000 -0.0000
                                           -0.0000 -0.0000  0.0093 -0.0247  0.1004
                                           -0.0606
    23. (0.00257) RY*( 9) O   1           s( 30.21%)p 0.50( 15.01%)d 1.78( 53.81%)
                                                  f 0.03(  0.97%)
                                            0.0000 -0.0053  0.5470 -0.0413 -0.0339
                                           -0.0214  0.3822  0.0278 -0.0311  0.0002
                                           -0.0358  0.0211 -0.0112  0.0000  0.0000
                                            0.0000  0.0000  0.0544  0.0153 -0.0139
                                            0.0000  0.0000  0.0000  0.0000  0.0000
                                            0.0000  0.6140  0.1127  0.0429 -0.3665
                                           -0.0928 -0.0167  0.0000  0.0000 -0.0379
                                            0.0452  0.0061 -0.0057  0.0000  0.0000
                                            0.0000  0.0000  0.0538 -0.0552 -0.0137
                                            0.0015
    24. (0.00066) RY*(10) O   1           s( 17.01%)p 0.77( 13.09%)d 4.06( 68.99%)
                                                  f 0.05(  0.92%)
                                            0.0000 -0.0009  0.0397  0.3629 -0.1919
                                           -0.0029 -0.0278 -0.0900 -0.0127 -0.0055
                                           -0.0420  0.3463  0.0087 -0.0000 -0.0000
                                           -0.0000 -0.0000  0.0003  0.1306 -0.0217
                                           -0.0000 -0.0000 -0.0000 -0.0000 -0.0000
                                           -0.0000 -0.0186 -0.3967  0.0165  0.0464
                                           -0.7060  0.1172 -0.0000 -0.0000 -0.0007
                                            0.0126 -0.0654  0.0420 -0.0000 -0.0000
                                           -0.0000 -0.0000 -0.0123  0.0299  0.0316
                                            0.0301
    25. (0.00061) RY*(11) O   1           s(  3.63%)p18.90( 68.55%)d 7.31( 26.51%)
                                                  f 0.36(  1.31%)
                                            0.0000 -0.0040 -0.0163  0.1848 -0.0427
                                           -0.0026 -0.0102 -0.1376 -0.0045  0.0030
                                            0.0290  0.8157 -0.0164  0.0000  0.0000
                                            0.0000  0.0000 -0.0058  0.1978 -0.0233
                                            0.0000  0.0000  0.0000  0.0000  0.0000
                                            0.0000  0.0039  0.2439 -0.0083 -0.0318
                                            0.4055 -0.0203  0.0000  0.0000  0.0065
                                           -0.0027  0.1047 -0.0187  0.0000  0.0000
                                            0.0000  0.0000 -0.0286 -0.0028 -0.0254
                                            0.0160
    26. (0.00059) RY*(12) O   1           s(  0.00%)p 1.00( 62.53%)d 0.57( 35.67%)
                                                  f 0.03(  1.80%)
                                            0.0000  0.0000  0.0000  0.0000  0.0000
                                            0.0000  0.0000  0.0000  0.0000  0.0000
                                            0.0000  0.0000  0.0000 -0.0001  0.0327
                                            0.7786 -0.1344  0.0000  0.0000  0.0000
                                           -0.0283  0.2710 -0.0251  0.0348 -0.5289
                                            0.0278  0.0000  0.0000  0.0000  0.0000
                                            0.0000  0.0000  0.0402 -0.0131  0.0000
                                            0.0000  0.0000  0.0000  0.0989  0.0009
                                            0.0801 -0.0032  0.0000  0.0000  0.0000
                                            0.0000
    27. (0.00053) RY*(13) O   1           s(  0.00%)p 1.00( 29.48%)d 1.97( 58.12%)
                                                  f 0.42( 12.40%)
                                            0.0000  0.0000  0.0000  0.0000  0.0000
                                            0.0000  0.0000  0.0000  0.0000  0.0000
                                            0.0000  0.0000  0.0000 -0.0025 -0.0026
                                            0.5330 -0.1030  0.0000  0.0000  0.0000
                                            0.0069 -0.0749  0.0045 -0.0404  0.7575
                                            0.0090  0.0000  0.0000  0.0000  0.0000
                                            0.0000  0.0000  0.1796 -0.0110  0.0000
                                            0.0000  0.0000  0.0000  0.0946  0.0027
                                           -0.2875  0.0062  0.0000  0.0000  0.0000
                                            0.0000
    28. (0.00048) RY*(14) O   1           s(  0.29%)p99.99( 37.33%)d25.08(  7.18%)
                                                  f99.99( 55.20%)
                                           -0.0000  0.0027 -0.0253 -0.0284  0.0375
                                            0.0100  0.0177  0.5750 -0.0078  0.0023
                                            0.0075  0.2049 -0.0093  0.0000  0.0000
                                            0.0000  0.0000 -0.0167 -0.2405 -0.0242
                                            0.0000  0.0000  0.0000  0.0000  0.0000
                                            0.0000 -0.0542  0.0399 -0.0358  0.0182
                                           -0.0821  0.0136  0.0000  0.0000  0.3634
                                           -0.0111  0.0124 -0.0177  0.0000  0.0000
                                            0.0000  0.0000  0.6311  0.0188 -0.1439
                                           -0.0076
    29. (0.00048) RY*(15) O   1           s(  0.21%)p 2.80(  0.57%)d15.16(  3.11%)
                                                  f99.99( 96.11%)
                                           -0.0000  0.0016  0.0321  0.0130 -0.0291
                                            0.0006 -0.0020  0.0624  0.0098 -0.0022
                                           -0.0125  0.0352  0.0186 -0.0000 -0.0000
                                           -0.0000 -0.0000  0.0078  0.1073  0.0219
                                           -0.0000 -0.0000 -0.0000 -0.0000 -0.0000
                                           -0.0000 -0.0538  0.0412 -0.0489 -0.0510
                                            0.0909 -0.0346 -0.0000 -0.0000 -0.0608
                                            0.0036 -0.9476 -0.0163 -0.0000 -0.0000
                                           -0.0000 -0.0000 -0.0205  0.0130 -0.2419
                                            0.0006
    30. (0.00048) RY*(16) O   1           s(  0.00%)p 1.00(  3.79%)d 1.09(  4.14%)
                                                  f24.32( 92.07%)
                                            0.0000  0.0000  0.0000  0.0000  0.0000
                                            0.0000  0.0000  0.0000  0.0000  0.0000
                                            0.0000  0.0000  0.0000  0.0034  0.0049
                                           -0.1849  0.0603  0.0000  0.0000  0.0000
                                           -0.0215  0.1832 -0.0116 -0.0588  0.0101
                                           -0.0610  0.0000  0.0000  0.0000  0.0000
                                            0.0000  0.0000  0.6564  0.0231  0.0000
                                            0.0000  0.0000  0.0000  0.6549  0.0208
                                            0.2448  0.0049  0.0000  0.0000  0.0000
                                            0.0000
    31. (0.00047) RY*(17) O   1           s(  0.00%)p 1.00(  0.63%)d36.30( 22.70%)
                                                  f99.99( 76.67%)
                                            0.0000  0.0000  0.0000  0.0000  0.0000
                                            0.0000  0.0000  0.0000  0.0000  0.0000
                                            0.0000  0.0000  0.0000 -0.0026 -0.0014
                                            0.0772 -0.0169  0.0000  0.0000  0.0000
                                           -0.0123  0.3039  0.0261 -0.0291  0.3615
                                            0.0474  0.0000  0.0000  0.0000  0.0000
                                            0.0000  0.0000 -0.2968 -0.0140  0.0000
                                            0.0000  0.0000  0.0000 -0.0740 -0.0007
                                            0.8197  0.0323  0.0000  0.0000  0.0000
                                            0.0000
    32. (0.00046) RY*(18) O   1           s(  0.14%)p99.99( 32.84%)d15.03(  2.09%)
                                                  f99.99( 64.93%)
                                            0.0000 -0.0038 -0.0015  0.0237  0.0285
                                           -0.0050 -0.0038 -0.5618  0.0269  0.0001
                                            0.0083 -0.1086 -0.0142  0.0000  0.0000
                                            0.0000  0.0000 -0.0586  0.0512 -0.0646
                                            0.0000  0.0000  0.0000  0.0000  0.0000
                                            0.0000  0.0473 -0.0305  0.0297 -0.0478
                                            0.0641 -0.0160  0.0000  0.0000  0.7030
                                            0.0674 -0.1515 -0.0198  0.0000  0.0000
                                            0.0000  0.0000  0.2394 -0.0164  0.2639
                                           -0.0031
    33. (0.00045) RY*(19) O   1           s(  0.00%)p 1.00(  2.68%)d18.32( 49.16%)
                                                  f17.94( 48.15%)
                                            0.0000  0.0000  0.0000  0.0000  0.0000
                                            0.0000  0.0000  0.0000  0.0000  0.0000
                                            0.0000  0.0000  0.0000 -0.0020 -0.0135
                                            0.1545 -0.0526  0.0000  0.0000  0.0000
                                            0.1046 -0.6871  0.0040 -0.0116 -0.0907
                                           -0.0134  0.0000  0.0000  0.0000  0.0000
                                            0.0000  0.0000  0.4373  0.0390  0.0000
                                            0.0000  0.0000  0.0000 -0.3477 -0.0328
                                            0.4072  0.0323  0.0000  0.0000  0.0000
                                            0.0000
    34. (0.00041) RY*(20) O   1           s(  0.36%)p35.92( 12.96%)d99.99( 82.73%)
                                                  f10.95(  3.95%)
                                            0.0000 -0.0016  0.0032  0.0386  0.0459
                                            0.0015  0.0148 -0.2897  0.0394 -0.0045
                                           -0.0159  0.1806 -0.1048 -0.0000 -0.0000
                                           -0.0000 -0.0000  0.0242 -0.8986 -0.1289
                                           -0.0000 -0.0000 -0.0000 -0.0000 -0.0000
                                           -0.0000  0.0036  0.0270  0.0084  0.0048
                                           -0.0411 -0.0002 -0.0000 -0.0000 -0.1297
                                           -0.0147 -0.1029 -0.0240 -0.0000 -0.0000
                                           -0.0000 -0.0000 -0.0822 -0.0479 -0.0397
                                           -0.0265
    35. (0.00041) RY*(21) O   1           s(  0.00%)p 1.00(  0.83%)d40.73( 33.80%)
                                                  f78.76( 65.37%)
                                            0.0000  0.0000  0.0000  0.0000  0.0000
                                            0.0000  0.0000  0.0000  0.0000  0.0000
                                            0.0000  0.0000  0.0000  0.0058  0.0061
                                           -0.0880  0.0222  0.0000  0.0000  0.0000
                                            0.0358  0.5549  0.1627  0.0096  0.0445
                                            0.0183  0.0000  0.0000  0.0000  0.0000
                                            0.0000  0.0000  0.4891  0.0597  0.0000
                                            0.0000  0.0000  0.0000 -0.6285 -0.0759
                                           -0.1003 -0.0077  0.0000  0.0000  0.0000
                                            0.0000
    36. (0.00041) RY*(22) O   1           s(  0.19%)p35.35(  6.54%)d40.23(  7.45%)
                                                  f99.99( 85.83%)
                                           -0.0000 -0.0001  0.0372 -0.0031 -0.0215
                                            0.0003  0.0034 -0.2189  0.0982  0.0013
                                           -0.0175 -0.0622  0.0607 -0.0000 -0.0000
                                           -0.0000 -0.0000  0.0713  0.0291  0.0678
                                           -0.0000 -0.0000 -0.0000 -0.0000 -0.0000
                                           -0.0000  0.0020 -0.2247 -0.0853 -0.0384
                                            0.0664 -0.0172 -0.0000 -0.0000  0.1975
                                            0.0350  0.2074  0.0301 -0.0000 -0.0000
                                           -0.0000 -0.0000 -0.0567 -0.0046 -0.8727
                                           -0.0964
    37. (0.00035) RY*(23) O   1           s(  5.46%)p 2.68( 14.63%)d 5.62( 30.70%)
                                                  f 9.01( 49.21%)
                                            0.0000 -0.0028 -0.0416  0.1862  0.1349
                                           -0.0008 -0.0007 -0.3527  0.0416  0.0045
                                            0.0158 -0.1409  0.0072  0.0000  0.0000
                                            0.0000  0.0000 -0.0179  0.1387 -0.0115
                                            0.0000  0.0000  0.0000  0.0000  0.0000
                                            0.0000 -0.0725  0.4664  0.0943  0.0655
                                           -0.2250 -0.0269  0.0000  0.0000 -0.3926
                                           -0.0818  0.0352 -0.0342  0.0000  0.0000
                                            0.0000  0.0000  0.5408  0.0635 -0.1605
                                           -0.0814
    38. (0.00029) RY*(24) O   1           s( 41.01%)p 0.25( 10.29%)d 0.50( 20.51%)
                                                  f 0.69( 28.19%)
                                           -0.0000  0.0030 -0.0234  0.5810  0.2683
                                            0.0096 -0.0111  0.2074 -0.1800  0.0024
                                            0.0061 -0.1636 -0.0226  0.0000  0.0000
                                            0.0000  0.0000  0.0144 -0.0331 -0.0560
                                            0.0000  0.0000  0.0000  0.0000  0.0000
                                            0.0000  0.0060  0.4136  0.0770  0.0161
                                           -0.1080  0.1082  0.0000  0.0000  0.2892
                                            0.1044  0.0106 -0.0625  0.0000  0.0000
                                            0.0000  0.0000 -0.3660 -0.1773 -0.0963
                                           -0.0932
    39. (0.00023) RY*(25) O   1           s( 38.33%)p 0.16(  6.24%)d 1.14( 43.84%)
                                                  f 0.30( 11.59%)
                                            0.0000 -0.0019  0.0555  0.5289 -0.3170
                                           -0.0077  0.0160  0.0350 -0.0514  0.0014
                                           -0.0261 -0.2380  0.0287  0.0000  0.0000
                                            0.0000  0.0000  0.0090 -0.0836 -0.1103
                                            0.0000  0.0000  0.0000  0.0000  0.0000
                                            0.0000  0.0511 -0.2588  0.0303 -0.0512
                                            0.4449  0.3848  0.0000  0.0000 -0.1355
                                           -0.0994  0.0106  0.0588  0.0000  0.0000
                                            0.0000  0.0000  0.2107  0.1853  0.0437
                                            0.0590
    40. (0.00015) RY*(26) O   1           s( 44.89%)p 0.05(  2.06%)d 0.78( 34.98%)
                                                  f 0.40( 18.07%)
                                           -0.0000 -0.0004  0.0432  0.1985  0.6384
[...]
                                                  f 0.00(  0.04%)
   119. (0.00581) RY*( 1) H   4           s( 95.49%)p 0.05(  4.36%)d 0.00(  0.15%)
                                            0.0181  0.9769  0.0122  0.0018 -0.1478
                                            0.0504  0.0032  0.0212  0.1336  0.0306
                                            0.0000  0.0000  0.0000  0.0121 -0.0176
                                            0.0000  0.0000  0.0000  0.0000 -0.0051
                                            0.0280  0.0080  0.0129
   120. (0.00438) RY*( 2) H   4           s(  1.15%)p85.16( 98.02%)d 0.72(  0.83%)
                                            0.0191  0.0997  0.0142  0.0317  0.8818
                                            0.0147  0.0063  0.4115  0.1563  0.0927
                                            0.0000  0.0000  0.0000 -0.0853 -0.0028
                                            0.0000  0.0000  0.0000  0.0000  0.0234
                                           -0.0019  0.0048  0.0205
   121. (0.00427) RY*( 3) H   4           s(  0.00%)p 1.00( 99.58%)d 0.00(  0.42%)
                                            0.0000  0.0000  0.0000  0.0000  0.0000
                                            0.0000  0.0000  0.0000  0.0000  0.0000
                                            0.9961  0.0438 -0.0422  0.0000  0.0000
                                           -0.0055  0.0031 -0.0609  0.0206  0.0000
                                            0.0000  0.0000  0.0000
   122. (0.00373) RY*( 4) H   4           s(  2.79%)p34.68( 96.63%)d 0.21(  0.59%)
                                           -0.0119  0.0592  0.1504 -0.0399  0.3875
                                            0.0316 -0.0383 -0.8923  0.1283 -0.0319
                                           -0.0000 -0.0000 -0.0000 -0.0356 -0.0010
                                           -0.0000 -0.0000 -0.0000 -0.0000 -0.0536
                                           -0.0150 -0.0389  0.0018
   123. (0.00145) RY*( 5) H   4           s(  9.47%)p 9.54( 90.34%)d 0.02(  0.19%)
                                            0.0298 -0.1693  0.2537  0.0280 -0.1934
                                            0.1044  0.0744  0.0697  0.9072  0.1476
                                            0.0000  0.0000  0.0000  0.0423  0.0003
                                            0.0000  0.0000  0.0000  0.0000  0.0035
                                            0.0018 -0.0006 -0.0078
   124. (0.00040) RY*( 6) H   4           s(  3.27%)p27.88( 91.19%)d 1.69(  5.54%)
                                            0.0002 -0.0316  0.1764  0.0240 -0.0318
                                            0.9011 -0.2554  0.0448 -0.1547  0.0881
                                            0.0000  0.0000  0.0000 -0.1750 -0.0876
                                            0.0000  0.0000  0.0000  0.0000 -0.0557
                                           -0.1058 -0.0531  0.0042
   125. (0.00036) RY*( 7) H   4           s(  0.00%)p 1.00( 75.11%)d 0.33( 24.89%)
                                            0.0000  0.0000  0.0000  0.0000  0.0000
                                            0.0000  0.0000  0.0000  0.0000  0.0000
                                           -0.0722  0.8230 -0.2618  0.0000  0.0000
                                           -0.0392 -0.0662 -0.4637 -0.1675  0.0000
                                            0.0000  0.0000  0.0000
   126. (0.00022) RY*( 8) H   4           s(  0.43%)p 1.67(  0.72%)d99.99( 98.86%)
                                           -0.0005  0.0103  0.0644  0.0051  0.0281
                                            0.0669  0.0171 -0.0017 -0.0364 -0.0162
                                            0.0000  0.0000  0.0000  0.4227  0.1213
                                            0.0000  0.0000  0.0000  0.0000  0.5746
                                           -0.1186 -0.6146  0.2706
   127. (0.00022) RY*( 9) H   4           s(  0.00%)p 1.00(  0.06%)d99.99( 99.94%)
                                            0.0000  0.0000  0.0000  0.0000  0.0000
                                            0.0000  0.0000  0.0000  0.0000  0.0000
                                            0.0027 -0.0020 -0.0238  0.0000  0.0000
                                            0.9124 -0.4047 -0.0278  0.0494  0.0000
                                            0.0000  0.0000  0.0000
   128. (0.00020) RY*(10) H   4           s(  0.00%)p 1.00( 25.42%)d 2.93( 74.58%)
                                            0.0000  0.0000  0.0000  0.0000  0.0000
                                            0.0000  0.0000  0.0000  0.0000  0.0000
                                            0.0320  0.5023  0.0295  0.0000  0.0000
                                            0.0591  0.0689  0.8588 -0.0104  0.0000
                                            0.0000  0.0000  0.0000
   129. (0.00020) RY*(11) H   4           s(  9.60%)p 0.41(  3.96%)d 9.00( 86.43%)
                                           -0.0012  0.0063  0.3086  0.0280  0.0785
                                            0.1160  0.0368  0.0121 -0.1299  0.0403
                                            0.0000  0.0000  0.0000  0.7451  0.0306
                                            0.0000  0.0000  0.0000  0.0000  0.0414
                                            0.0885  0.4903 -0.2415
   130. (0.00015) RY*(12) H   4           s( 25.13%)p 0.09(  2.23%)d 2.89( 72.64%)
                                            0.0094 -0.0013  0.3484  0.3603 -0.0407
                                           -0.0767 -0.0201 -0.0240 -0.0742 -0.0911
                                            0.0000  0.0000  0.0000 -0.3733 -0.0690
                                            0.0000  0.0000  0.0000  0.0000  0.5837
                                            0.2985  0.3388  0.1940
   131. (0.00012) RY*(13) H   4           s( 54.92%)p 0.19( 10.62%)d 0.63( 34.46%)
                                           -0.0072  0.0372  0.7386 -0.0481 -0.0377
                                           -0.2221  0.0643  0.1066 -0.1936  0.0492
                                            0.0000  0.0000  0.0000 -0.1828  0.3637
                                            0.0000  0.0000  0.0000  0.0000 -0.2276
                                           -0.2281 -0.2269 -0.1536
   132. (0.00007) RY*(14) H   4           s(  0.00%)p 1.00(  5.72%)d16.48( 94.28%)
   133. (0.00007) RY*(15) H   4           s(  1.61%)p51.45( 82.94%)d 9.58( 15.45%)
   134. (0.00005) RY*(16) H   4           s(  3.66%)p 4.70( 17.20%)d21.62( 79.14%)
   135. (0.00006) RY*(17) H   4           s( 74.21%)p 0.01(  1.02%)d 0.33( 24.77%)
   136. (0.00003) RY*(18) H   4           s(  0.00%)p 1.00( 92.30%)d 0.08(  7.70%)
   137. (0.00003) RY*(19) H   4           s(  0.80%)p99.99( 97.30%)d 2.39(  1.90%)
   138. (0.00002) RY*(20) H   4           s( 12.18%)p 0.18(  2.16%)d 7.03( 85.66%)
   139. (0.00002) RY*(21) H   4           s(  0.00%)p 1.00(  1.82%)d53.99( 98.18%)
   140. (0.00002) RY*(22) H   4           s(  5.47%)p 0.21(  1.17%)d17.08( 93.37%)
   141. (0.02390) BD*( 1) O   1 - H   2  
                ( 28.38%)   0.5327* O   1 s( 21.35%)p 3.66( 78.19%)d 0.02(  0.45%)
                                                  f 0.00(  0.01%)
                                           -0.0003 -0.4619  0.0117  0.0020  0.0030
                                           -0.8824  0.0499  0.0105  0.0099 -0.0208
                                            0.0040 -0.0022  0.0024 -0.0000 -0.0000
                                           -0.0000 -0.0000  0.0097 -0.0038  0.0023
                                           -0.0000 -0.0000 -0.0000 -0.0000 -0.0000
                                           -0.0000 -0.0570  0.0057 -0.0031  0.0325
                                           -0.0001 -0.0008 -0.0000 -0.0000  0.0091
                                            0.0000  0.0008 -0.0004 -0.0000 -0.0000
                                           -0.0000 -0.0000 -0.0064 -0.0034 -0.0002
                                            0.0002
                ( 71.62%)  -0.8463* H   2 s( 99.81%)p 0.00(  0.19%)d 0.00(  0.00%)
                                           -0.9990 -0.0058 -0.0000 -0.0003 -0.0251
                                            0.0341  0.0033  0.0071 -0.0005 -0.0005
                                           -0.0000 -0.0000 -0.0000 -0.0004 -0.0022
                                           -0.0000 -0.0000 -0.0000 -0.0000 -0.0018
                                           -0.0017  0.0019  0.0001
   142. (0.27460) BD*( 1)Cl   3 - H   4  
                ( 19.58%)   0.4425*Cl   3 s( 14.74%)p 5.76( 84.94%)d 0.02(  0.31%)
                                                  f 0.00(  0.02%)
                                            0.0000 -0.0002 -0.3839  0.0030  0.0013
                                           -0.0010 -0.0000 -0.1876  0.0027  0.0017
                                           -0.0013 -0.0001 -0.9022  0.0126  0.0069
                                           -0.0024 -0.0000 -0.0000 -0.0000 -0.0000
                                           -0.0000 -0.0194 -0.0011  0.0001 -0.0000
                                           -0.0000 -0.0000 -0.0000 -0.0000 -0.0000
                                            0.0439  0.0019 -0.0006  0.0281  0.0014
                                           -0.0003 -0.0000 -0.0000  0.0017  0.0000
                                            0.0079  0.0003 -0.0000 -0.0000 -0.0000
                                           -0.0000  0.0059  0.0002  0.0082  0.0007
                ( 80.42%)  -0.8968* H   4 s( 99.83%)p 0.00(  0.15%)d 0.00(  0.03%)
                                           -0.9990  0.0134  0.0060  0.0010  0.0035
                                            0.0049  0.0032  0.0204  0.0309  0.0073
                                           -0.0000 -0.0000 -0.0000 -0.0026 -0.0057
                                           -0.0000 -0.0000 -0.0000 -0.0000  0.0059
                                            0.0112  0.0042  0.0077


 NHO Directionality and "Bond Bending" (deviations from line of nuclear centers)

         [Thresholds for printing:  angular deviation  >  1.0 degree]
                                    hybrid p-character > 25.0%
                                    orbital occupancy  >  0.10e

                                Line of Centers        Hybrid 1              Hybrid 2
                                ---------------  -------------------   ------------------
                NBO               Theta   Phi    Theta   Phi    Dev    Theta   Phi    Dev
 ========================================================================================
     1. BD (   1) O   1 - H   2    90.0    0.0    90.0    1.2   1.2      --     --    --
     9. LP (   1) O   1             --     --     90.0  135.3   --       --     --    --
    10. LP (   2) O   1             --     --      0.0    0.0   --       --     --    --
    11. LP (   3) O   1             --     --     90.0  260.2   --       --     --    --
    13. LP (   2)Cl   3             --     --      0.0    0.0   --       --     --    --
    14. LP (   3)Cl   3             --     --     90.0  348.2   --       --     --    --


 Natural Bond Orbitals (Summary):

           NBO                  Occupancy  
 -----------------------------------------------
 Molecular unit  1  (HO)
     1. BD (   1) O   1 - H   2          1.96176
     3. CR (   1) O   1                  1.99972
     9. LP (   1) O   1                  1.96789
    10. LP (   2) O   1                  1.95272
    11. LP (   3) O   1                  1.71028
    15. RY*(   1) O   1                  0.02598
    16. RY*(   2) O   1                  0.01998
    17. RY*(   3) O   1                  0.01139
    18. RY*(   4) O   1                  0.00660
    19. RY*(   5) O   1                  0.00637
    20. RY*(   6) O   1                  0.00613
    21. RY*(   7) O   1                  0.00609
    22. RY*(   8) O   1                  0.00569
    23. RY*(   9) O   1                  0.00257
    24. RY*(  10) O   1                  0.00066
    25. RY*(  11) O   1                  0.00061
    26. RY*(  12) O   1                  0.00059
    27. RY*(  13) O   1                  0.00053
    28. RY*(  14) O   1                  0.00048
    29. RY*(  15) O   1                  0.00048
    30. RY*(  16) O   1                  0.00048
    31. RY*(  17) O   1                  0.00047
    32. RY*(  18) O   1                  0.00046
    33. RY*(  19) O   1                  0.00045
    34. RY*(  20) O   1                  0.00041
    35. RY*(  21) O   1                  0.00041
    36. RY*(  22) O   1                  0.00041
    37. RY*(  23) O   1                  0.00035
    38. RY*(  24) O   1                  0.00029
    39. RY*(  25) O   1                  0.00023
    40. RY*(  26) O   1                  0.00015
    41. RY*(  27) O   1                  0.00009
    42. RY*(  28) O   1                  0.00008
    43. RY*(  29) O   1                  0.00009
    44. RY*(  30) O   1                  0.00009
    45. RY*(  31) O   1                  0.00008
    46. RY*(  32) O   1                  0.00008
    47. RY*(  33) O   1                  0.00007
    48. RY*(  34) O   1                  0.00007
    49. RY*(  35) O   1                  0.00007
    50. RY*(  36) O   1                  0.00005
    51. RY*(  37) O   1                  0.00005
    52. RY*(  38) O   1                  0.00003
    53. RY*(  39) O   1                  0.00001
    54. RY*(  40) O   1                 -0.00010
    55. RY*(  41) O   1                 -0.00045
    56. RY*(   1) H   2                  0.00645
    57. RY*(   2) H   2                  0.00407
    58. RY*(   3) H   2                  0.00309
    59. RY*(   4) H   2                  0.00180
    60. RY*(   5) H   2                  0.00025
    61. RY*(   6) H   2                  0.00021
    62. RY*(   7) H   2                  0.00018
    63. RY*(   8) H   2                  0.00015
    64. RY*(   9) H   2                  0.00014
    65. RY*(  10) H   2                  0.00012
    66. RY*(  11) H   2                  0.00011
    67. RY*(  12) H   2                  0.00010
    68. RY*(  13) H   2                  0.00008
    69. RY*(  14) H   2                  0.00006
    70. RY*(  15) H   2                  0.00005
    71. RY*(  16) H   2                  0.00005
    72. RY*(  17) H   2                  0.00004
    73. RY*(  18) H   2                  0.00004
    74. RY*(  19) H   2                  0.00002
    75. RY*(  20) H   2                  0.00001
    76. RY*(  21) H   2                  0.00002
    77. RY*(  22) H   2                  0.00002
   141. BD*(   1) O   1 - H   2          0.02390
       -------------------------------
              Total Lewis    9.59237  ( 98.5665%)
        Valence non-Lewis    0.02390  (  0.2456%)
        Rydberg non-Lewis    0.11561  (  1.1879%)
       -------------------------------
            Total unit  1    9.73188  (100.0000%)
           Charge unit  1   -0.73188

 Molecular unit  2  (HCl)
     2. BD (   1)Cl   3 - H   4          1.95584
     4. CR (   1)Cl   3                  2.00000
     5. CR (   2)Cl   3                  1.99976
     6. CR (   3)Cl   3                  2.00003
     7. CR (   4)Cl   3                  1.99999
     8. CR (   5)Cl   3                  2.00003
    12. LP (   1)Cl   3                  1.97414
    13. LP (   2)Cl   3                  1.95380
    14. LP (   3)Cl   3                  1.95354
    78. RY*(   1)Cl   3                  0.01780
    79. RY*(   2)Cl   3                  0.01780
    80. RY*(   3)Cl   3                  0.01769
    81. RY*(   4)Cl   3                  0.01766
    82. RY*(   5)Cl   3                  0.01734
    83. RY*(   6)Cl   3                  0.01102
    84. RY*(   7)Cl   3                  0.01099
    85. RY*(   8)Cl   3                  0.00793
    86. RY*(   9)Cl   3                  0.00126
    87. RY*(  10)Cl   3                  0.00126
    88. RY*(  11)Cl   3                  0.00124
    89. RY*(  12)Cl   3                  0.00124
    90. RY*(  13)Cl   3                  0.00122
    91. RY*(  14)Cl   3                  0.00123
    92. RY*(  15)Cl   3                  0.00122
    93. RY*(  16)Cl   3                  0.00119
    94. RY*(  17)Cl   3                  0.00086
    95. RY*(  18)Cl   3                  0.00086
    96. RY*(  19)Cl   3                  0.00057
    97. RY*(  20)Cl   3                  0.00058
    98. RY*(  21)Cl   3                  0.00054
    99. RY*(  22)Cl   3                  0.00045
   100. RY*(  23)Cl   3                  0.00044
   101. RY*(  24)Cl   3                  0.00045
   102. RY*(  25)Cl   3                  0.00028
   103. RY*(  26)Cl   3                  0.00013
   104. RY*(  27)Cl   3                  0.00013
   105. RY*(  28)Cl   3                  0.00013
   106. RY*(  29)Cl   3                  0.00013
   107. RY*(  30)Cl   3                  0.00013
   108. RY*(  31)Cl   3                  0.00013
   109. RY*(  32)Cl   3                  0.00013
   110. RY*(  33)Cl   3                  0.00009
   111. RY*(  34)Cl   3                  0.00008
   112. RY*(  35)Cl   3                  0.00009
   113. RY*(  36)Cl   3                  0.00006
   114. RY*(  37)Cl   3                  0.00006
   115. RY*(  38)Cl   3                  0.00006
   116. RY*(  39)Cl   3                  0.00002
   117. RY*(  40)Cl   3                  0.00002
   118. RY*(  41)Cl   3                 -0.00002
   119. RY*(   1) H   4                  0.00581
   120. RY*(   2) H   4                  0.00438
   121. RY*(   3) H   4                  0.00427
   122. RY*(   4) H   4                  0.00373
   123. RY*(   5) H   4                  0.00145
   124. RY*(   6) H   4                  0.00040
   125. RY*(   7) H   4                  0.00036
   126. RY*(   8) H   4                  0.00022
   127. RY*(   9) H   4                  0.00022
   128. RY*(  10) H   4                  0.00020
   129. RY*(  11) H   4                  0.00020
   130. RY*(  12) H   4                  0.00015
   131. RY*(  13) H   4                  0.00012
   132. RY*(  14) H   4                  0.00007
   133. RY*(  15) H   4                  0.00007
   134. RY*(  16) H   4                  0.00005
   135. RY*(  17) H   4                  0.00006
   136. RY*(  18) H   4                  0.00003
   137. RY*(  19) H   4                  0.00003
   138. RY*(  20) H   4                  0.00002
   139. RY*(  21) H   4                  0.00002
   140. RY*(  22) H   4                  0.00002
   142. BD*(   1)Cl   3 - H   4          0.27460
       -------------------------------
              Total Lewis   17.83714  ( 97.6408%)
        Valence non-Lewis    0.27460  (  1.5032%)
        Rydberg non-Lewis    0.15638  (  0.8560%)
       -------------------------------
            Total unit  2   18.26812  (100.0000%)
           Charge unit  2   -0.26812
 Leave Link  607 at Fri Oct  8 13:09:44 2021, MaxMem= 16106127360 cpu:              76.2 elap:               2.8
 (Enter /sw/contrib/gaussian/g16/B01/g16/l9999.exe)
 1\1\GINC-N2218\SP\RMP2-FC\Aug-CC-pVTZ\Cl1H2O1(1-)\CGAVINH\08-Oct-2021\
 0\\#p pop=NBO SP NoSymm mp2/aug-cc-pvtz density=current\\title\\-1,1\O
 \X,1,10.\H,1,0.96061628,2,90.\Cl,1,3.08954942,2,90.,3,101.71720655,0\H
 ,1,1.5,2,90.,3,101.71720655,0\\Version=ES64L-G16RevB.01\HF=-535.582678
 4\MP2=-536.0871085\RMSD=3.151e-09\Dipole=0.3042423,-0.9013253,0.\Quadr
 upole=6.7539703,-12.2958429,5.5418725,-3.5665772,0.,0.\PG=CS [SG(Cl1H2
 O1)]\\@


 IT IS BETTER TO THINK YOU ARE HALF DRY THAN TO KNOW YOU
 ARE ALL WET.  -- SNOOPY
 Job cpu time:       0 days  0 hours  3 minutes 19.3 seconds.
 Elapsed time:       0 days  0 hours  0 minutes 11.9 seconds.
 File lengths (MBytes):  RWF=     10 Int=      0 D2E=      0 Chk=      8 Scr=      1
 Normal termination of Gaussian 16 at Fri Oct  8 13:09:47 2021.
