 Entering Gaussian System, Link 0=g16
 Input=clhod_rOH_085_sp.gjf
 Output=clhod_rOH_085_sp.log
 Initial command:
 /sw/contrib/gaussian/g16/B01/g16/l1.exe "/scr/Gau-10290.inp" -scrdir="/scr/"
 Entering Link 1 = /sw/contrib/gaussian/g16/B01/g16/l1.exe PID=     10296.
  
 Copyright (c) 1988-2017, Gaussian, Inc.  All Rights Reserved.
  
 This is part of the Gaussian(R) 16 program.  It is based on
 the Gaussian(R) 09 system (copyright 2009, Gaussian, Inc.),
 the Gaussian(R) 03 system (copyright 2003, Gaussian, Inc.),
 the Gaussian(R) 98 system (copyright 1998, Gaussian, Inc.),
 the Gaussian(R) 94 system (copyright 1995, Gaussian, Inc.),
 the Gaussian 92(TM) system (copyright 1992, Gaussian, Inc.),
 the Gaussian 90(TM) system (copyright 1990, Gaussian, Inc.),
 the Gaussian 88(TM) system (copyright 1988, Gaussian, Inc.),
 the Gaussian 86(TM) system (copyright 1986, Carnegie Mellon
 University), and the Gaussian 82(TM) system (copyright 1983,
 Carnegie Mellon University). Gaussian is a federally registered
 trademark of Gaussian, Inc.
  
 This software contains proprietary and confidential information,
 including trade secrets, belonging to Gaussian, Inc.
  
 This software is provided under written license and may be
 used, copied, transmitted, or stored only in accord with that
 written license.
  
 The following legend is applicable only to US Government
 contracts under FAR:
  
                    RESTRICTED RIGHTS LEGEND
  
 Use, reproduction and disclosure by the US Government is
 subject to restrictions as set forth in subparagraphs (a)
 and (c) of the Commercial Computer Software - Restricted
 Rights clause in FAR 52.227-19.
  
 Gaussian, Inc.
 340 Quinnipiac St., Bldg. 40, Wallingford CT 06492
  
  
 ---------------------------------------------------------------
 Warning -- This program may not be used in any manner that
 competes with the business of Gaussian, Inc. or will provide
 assistance to any competitor of Gaussian, Inc.  The licensee
 of this program is prohibited from giving any competitor of
 Gaussian, Inc. access to this program.  By using this program,
 the user acknowledges that Gaussian, Inc. is engaged in the
 business of creating and licensing software in the field of
 computational chemistry and represents and warrants to the
 licensee that it is not a competitor of Gaussian, Inc. and that
 it will not use this program in any manner prohibited above.
 ---------------------------------------------------------------
  

 Cite this work as:
 Gaussian 16, Revision B.01,
 M. J. Frisch, G. W. Trucks, H. B. Schlegel, G. E. Scuseria, 
 M. A. Robb, J. R. Cheeseman, G. Scalmani, V. Barone, 
 G. A. Petersson, H. Nakatsuji, X. Li, M. Caricato, A. V. Marenich, 
 J. Bloino, B. G. Janesko, R. Gomperts, B. Mennucci, H. P. Hratchian, 
 J. V. Ortiz, A. F. Izmaylov, J. L. Sonnenberg, D. Williams-Young, 
 F. Ding, F. Lipparini, F. Egidi, J. Goings, B. Peng, A. Petrone, 
 T. Henderson, D. Ranasinghe, V. G. Zakrzewski, J. Gao, N. Rega, 
 G. Zheng, W. Liang, M. Hada, M. Ehara, K. Toyota, R. Fukuda, 
 J. Hasegawa, M. Ishida, T. Nakajima, Y. Honda, O. Kitao, H. Nakai, 
 T. Vreven, K. Throssell, J. A. Montgomery, Jr., J. E. Peralta, 
 F. Ogliaro, M. J. Bearpark, J. J. Heyd, E. N. Brothers, K. N. Kudin, 
 V. N. Staroverov, T. A. Keith, R. Kobayashi, J. Normand, 
 K. Raghavachari, A. P. Rendell, J. C. Burant, S. S. Iyengar, 
 J. Tomasi, M. Cossi, J. M. Millam, M. Klene, C. Adamo, R. Cammi, 
 J. W. Ochterski, R. L. Martin, K. Morokuma, O. Farkas, 
 J. B. Foresman, and D. J. Fox, Gaussian, Inc., Wallingford CT, 2016.
 
 ******************************************
 Gaussian 16:  ES64L-G16RevB.01 20-Dec-2017
                 8-Oct-2021 
 ******************************************
 %nproc=28
 Will use up to   28 processors via shared memory.
 %mem=120GB
 %chk=/gscratch/ilahie/mccoygrp/coire_hocl/rOH_s_oop_0/clhod/clhod_085_sp.chk
 ----------------------------------------------------
 #p pop=NBO SP NoSymm mp2/aug-cc-pvtz density=current
 ----------------------------------------------------
 1/30=1,38=1,172=1/1;
 2/12=2,15=1,17=6,18=5,40=1/2;
 3/5=16,6=1,7=10,11=9,25=1,30=1,71=1/1,2,3;
 4//1;
 5/5=2,38=5/2;
 8/6=4,10=1/1;
 9/15=1,16=-3/6;
 10/5=1,13=10,31=1/2;
 6/7=2,8=2,9=2,10=2,22=-1,40=1/1,7;
 99/5=1,9=1/99;
 Leave Link    1 at Fri Oct  8 13:07:17 2021, MaxMem= 16106127360 cpu:               2.8 elap:               0.1
 (Enter /sw/contrib/gaussian/g16/B01/g16/l101.exe)
 -----
 title
 -----
 Symbolic Z-matrix:
 Charge = -1 Multiplicity = 1
 O
 X                    1     10. 
 H(iso=2)             1    r1       2     90. 
 Cl                   1    r2       2     90.      3    a1       0
 H                    1    r3       2    oop      3    a1       0
       Variables:
  r1                    0.96062                  
  r2                    3.08955                  
  r3                    0.85                     
  a1                  101.71721                  
  OOP                  90.                       
 
 ITRead=  0  0  0  0
 MicOpt= -1 -1 -1 -1
 NAtoms=      4 NQM=        4 NQMF=       0 NMMI=      0 NMMIF=      0
                NMic=       0 NMicF=      0.
                    Isotopes and Nuclear Properties:
 (Nuclear quadrupole moments (NQMom) in fm**2, nuclear magnetic moments (NMagM)
  in nuclear magnetons)

  Atom         1           2           3           4
 IAtWgt=          16           2          35           1
 AtmWgt=  15.9949146   2.0141018  34.9688527   1.0078250
 NucSpn=           0           2           3           1
 AtZEff=  -0.0000000  -0.0000000  -0.0000000  -0.0000000
 NQMom=    0.0000000   0.2860000  -8.1650000   0.0000000
 NMagM=    0.0000000   0.8574380   0.8218740   2.7928460
 AtZNuc=   8.0000000   1.0000000  17.0000000   1.0000000
 Leave Link  101 at Fri Oct  8 13:07:17 2021, MaxMem= 16106127360 cpu:               2.6 elap:               0.1
 (Enter /sw/contrib/gaussian/g16/B01/g16/l202.exe)
                          Input orientation:                          
 ---------------------------------------------------------------------
 Center     Atomic      Atomic             Coordinates (Angstroms)
 Number     Number       Type             X           Y           Z
 ---------------------------------------------------------------------
      1          8           0        0.000000    0.000000    0.000000
      2          1           0        0.960616    0.000000    0.000000
      3         17           0       -0.627430   -3.025169    0.000000
      4          1           0       -0.172619   -0.832288    0.000000
 ---------------------------------------------------------------------
                    Distance matrix (angstroms):
                    1          2          3          4
     1  O    0.000000
     2  H    0.960616   0.000000
     3  Cl   3.089549   3.416656   0.000000
     4  H    0.850000   1.406032   2.239549   0.000000
 Symmetry turned off by external request.
 Stoichiometry    ClH2O(1-)
 Framework group  CS[SG(ClH2O)]
 Deg. of freedom     5
 Full point group                 CS      NOp   2
 Rotational constants (GHZ):         323.2001276           4.3314752           4.2741932
 Leave Link  202 at Fri Oct  8 13:07:17 2021, MaxMem= 16106127360 cpu:               1.0 elap:               0.1
 (Enter /sw/contrib/gaussian/g16/B01/g16/l301.exe)
 Standard basis: Aug-CC-pVTZ (5D, 7F)
 Ernie: Thresh=  0.10000D-02 Tol=  0.10000D-05 Strict=F.
 Ernie:  16 primitive shells out of 116 were deleted.
   142 basis functions,   240 primitive gaussians,   164 cartesian basis functions
    14 alpha electrons       14 beta electrons
       nuclear repulsion energy        39.7077513757 Hartrees.
 IExCor=    0 DFT=F Ex=HF Corr=None ExCW=0 ScaHFX=  1.000000
 ScaDFX=  1.000000  1.000000  1.000000  1.000000 ScalE2=  1.000000  1.000000
 IRadAn=      5 IRanWt=     -1 IRanGd=            0 ICorTp=0 IEmpDi=  4
 NAtoms=    4 NActive=    4 NUniq=    4 SFac= 1.00D+00 NAtFMM=   60 NAOKFM=F Big=F
 Integral buffers will be    131072 words long.
 Raffenetti 1 integral format.
 Two-electron integral symmetry is turned off.
 Leave Link  301 at Fri Oct  8 13:07:17 2021, MaxMem= 16106127360 cpu:               2.7 elap:               0.1
 (Enter /sw/contrib/gaussian/g16/B01/g16/l302.exe)
 NPDir=0 NMtPBC=     1 NCelOv=     1 NCel=       1 NClECP=     1 NCelD=      1
         NCelK=      1 NCelE2=     1 NClLst=     1 CellRange=     0.0.
 One-electron integrals computed using PRISM.
 NBasis=   142 RedAO= T EigKep=  2.22D-04  NBF=   142
 NBsUse=   142 1.00D-06 EigRej= -1.00D+00 NBFU=   142
 Leave Link  302 at Fri Oct  8 13:07:17 2021, MaxMem= 16106127360 cpu:               4.3 elap:               0.2
 (Enter /sw/contrib/gaussian/g16/B01/g16/l303.exe)
 DipDrv:  MaxL=1.
 Leave Link  303 at Fri Oct  8 13:07:17 2021, MaxMem= 16106127360 cpu:               0.6 elap:               0.0
 (Enter /sw/contrib/gaussian/g16/B01/g16/l401.exe)
 ExpMin= 2.53D-02 ExpMax= 4.56D+05 ExpMxC= 1.44D+03 IAcc=3 IRadAn=         5 AccDes= 0.00D+00
 Harris functional with IExCor=  205 and IRadAn=       5 diagonalized for initial guess.
 HarFok:  IExCor=  205 AccDes= 0.00D+00 IRadAn=         5 IDoV= 1 UseB2=F ITyADJ=14
 ICtDFT=  3500011 ScaDFX=  1.000000  1.000000  1.000000  1.000000
 FoFCou: FMM=F IPFlag=           0 FMFlag=      100000 FMFlg1=           0
         NFxFlg=           0 DoJE=T BraDBF=F KetDBF=T FulRan=T
         wScrn=  0.000000 ICntrl=       500 IOpCl=  0 I1Cent=   200000004 NGrid=           0
         NMat0=    1 NMatS0=      1 NMatT0=    0 NMatD0=    1 NMtDS0=    0 NMtDT0=    0
 Symmetry not used in FoFCou.
 Harris En= -535.435033990022    
 JPrj=0 DoOrth=F DoCkMO=F.
 Leave Link  401 at Fri Oct  8 13:07:18 2021, MaxMem= 16106127360 cpu:               5.4 elap:               0.2
 (Enter /sw/contrib/gaussian/g16/B01/g16/l502.exe)
 Keep R1 ints in memory in canonical form, NReq=65346335.
 FoFCou: FMM=F IPFlag=           0 FMFlag=           0 FMFlg1=           0
         NFxFlg=           0 DoJE=F BraDBF=F KetDBF=F FulRan=T
         wScrn=  0.000000 ICntrl=       600 IOpCl=  0 I1Cent=           0 NGrid=           0
         NMat0=    1 NMatS0=  10153 NMatT0=    0 NMatD0=    1 NMtDS0=    0 NMtDT0=    0
 Symmetry not used in FoFCou.
 Two-electron integral symmetry not used.
 Closed shell SCF:
 Using DIIS extrapolation, IDIIS=  1040.
 NGot= 16106127360 LenX= 16054521101 LenY= 16054493764
 Requested convergence on RMS density matrix=1.00D-08 within 128 cycles.
 Requested convergence on MAX density matrix=1.00D-06.
 Requested convergence on             energy=1.00D-06.
 No special actions if energy rises.

 Cycle   1  Pass 1  IDiag  1:
 E= -535.486119892752    
 DIIS: error= 4.25D-02 at cycle   1 NSaved=   1.
 NSaved= 1 IEnMin= 1 EnMin= -535.486119892752     IErMin= 1 ErrMin= 4.25D-02
 ErrMax= 4.25D-02  0.00D+00 EMaxC= 1.00D-01 BMatC= 3.65D-01 BMatP= 3.65D-01
 IDIUse=3 WtCom= 5.75D-01 WtEn= 4.25D-01
 Coeff-Com:  0.100D+01
 Coeff-En:   0.100D+01
 Coeff:      0.100D+01
 Gap=     0.366 Goal=   None    Shift=    0.000
 GapD=    0.366 DampG=1.000 DampE=0.500 DampFc=0.5000 IDamp=-1.
 Damping current iteration by 5.00D-01
 RMSDP=2.33D-03 MaxDP=5.81D-02              OVMax= 1.38D-01

 Cycle   2  Pass 1  IDiag  1:
 E= -535.566492779742     Delta-E=       -0.080372886991 Rises=F Damp=T
 DIIS: error= 1.59D-02 at cycle   2 NSaved=   2.
 NSaved= 2 IEnMin= 2 EnMin= -535.566492779742     IErMin= 2 ErrMin= 1.59D-02
 ErrMax= 1.59D-02  0.00D+00 EMaxC= 1.00D-01 BMatC= 6.50D-02 BMatP= 3.65D-01
 IDIUse=3 WtCom= 8.41D-01 WtEn= 1.59D-01
 Coeff-Com: -0.478D+00 0.148D+01
 Coeff-En:   0.000D+00 0.100D+01
 Coeff:     -0.402D+00 0.140D+01
 Gap=     0.305 Goal=   None    Shift=    0.000
 RMSDP=9.07D-04 MaxDP=3.36D-02 DE=-8.04D-02 OVMax= 6.53D-02

 Cycle   3  Pass 1  IDiag  1:
 E= -535.635211999619     Delta-E=       -0.068719219877 Rises=F Damp=F
 DIIS: error= 4.50D-03 at cycle   3 NSaved=   3.
 NSaved= 3 IEnMin= 3 EnMin= -535.635211999619     IErMin= 3 ErrMin= 4.50D-03
 ErrMax= 4.50D-03  0.00D+00 EMaxC= 1.00D-01 BMatC= 1.76D-03 BMatP= 6.50D-02
 IDIUse=3 WtCom= 9.55D-01 WtEn= 4.50D-02
 Coeff-Com: -0.127D+00 0.228D+00 0.899D+00
 Coeff-En:   0.000D+00 0.000D+00 0.100D+01
 Coeff:     -0.121D+00 0.217D+00 0.904D+00
 Gap=     0.310 Goal=   None    Shift=    0.000
 RMSDP=1.42D-04 MaxDP=3.64D-03 DE=-6.87D-02 OVMax= 9.55D-03

 Cycle   4  Pass 1  IDiag  1:
 E= -535.636343196006     Delta-E=       -0.001131196387 Rises=F Damp=F
 DIIS: error= 4.60D-04 at cycle   4 NSaved=   4.
 NSaved= 4 IEnMin= 4 EnMin= -535.636343196006     IErMin= 4 ErrMin= 4.60D-04
 ErrMax= 4.60D-04  0.00D+00 EMaxC= 1.00D-01 BMatC= 3.79D-05 BMatP= 1.76D-03
 IDIUse=3 WtCom= 9.95D-01 WtEn= 4.60D-03
 Coeff-Com: -0.165D-01 0.274D-01 0.160D+00 0.830D+00
 Coeff-En:   0.000D+00 0.000D+00 0.000D+00 0.100D+01
 Coeff:     -0.164D-01 0.273D-01 0.159D+00 0.830D+00
 Gap=     0.305 Goal=   None    Shift=    0.000
 RMSDP=3.68D-05 MaxDP=8.13D-04 DE=-1.13D-03 OVMax= 2.10D-03

 Cycle   5  Pass 1  IDiag  1:
 E= -535.636384580176     Delta-E=       -0.000041384170 Rises=F Damp=F
 DIIS: error= 1.75D-04 at cycle   5 NSaved=   5.
 NSaved= 5 IEnMin= 5 EnMin= -535.636384580176     IErMin= 5 ErrMin= 1.75D-04
 ErrMax= 1.75D-04  0.00D+00 EMaxC= 1.00D-01 BMatC= 3.50D-06 BMatP= 3.79D-05
 IDIUse=3 WtCom= 9.98D-01 WtEn= 1.75D-03
 Coeff-Com:  0.129D-01-0.246D-01-0.904D-01-0.117D-01 0.111D+01
 Coeff-En:   0.000D+00 0.000D+00 0.000D+00 0.000D+00 0.100D+01
 Coeff:      0.129D-01-0.245D-01-0.902D-01-0.116D-01 0.111D+01
 Gap=     0.306 Goal=   None    Shift=    0.000
 RMSDP=1.90D-05 MaxDP=4.52D-04 DE=-4.14D-05 OVMax= 1.27D-03

 Cycle   6  Pass 1  IDiag  1:
 E= -535.636392633331     Delta-E=       -0.000008053155 Rises=F Damp=F
 DIIS: error= 5.20D-05 at cycle   6 NSaved=   6.
 NSaved= 6 IEnMin= 6 EnMin= -535.636392633331     IErMin= 6 ErrMin= 5.20D-05
 ErrMax= 5.20D-05  0.00D+00 EMaxC= 1.00D-01 BMatC= 2.08D-07 BMatP= 3.50D-06
 IDIUse=1 WtCom= 1.00D+00 WtEn= 0.00D+00
 Coeff-Com: -0.143D-02 0.326D-02 0.877D-02-0.272D-01-0.319D+00 0.134D+01
 Coeff:     -0.143D-02 0.326D-02 0.877D-02-0.272D-01-0.319D+00 0.134D+01
 Gap=     0.306 Goal=   None    Shift=    0.000
 RMSDP=6.41D-06 MaxDP=1.46D-04 DE=-8.05D-06 OVMax= 4.46D-04

 Cycle   7  Pass 1  IDiag  1:
 E= -535.636393326915     Delta-E=       -0.000000693584 Rises=F Damp=F
 DIIS: error= 8.62D-06 at cycle   7 NSaved=   7.
 NSaved= 7 IEnMin= 7 EnMin= -535.636393326915     IErMin= 7 ErrMin= 8.62D-06
 ErrMax= 8.62D-06  0.00D+00 EMaxC= 1.00D-01 BMatC= 6.03D-09 BMatP= 2.08D-07
 IDIUse=1 WtCom= 1.00D+00 WtEn= 0.00D+00
 Coeff-Com: -0.537D-04-0.546D-04 0.428D-03 0.703D-02 0.533D-01-0.374D+00
 Coeff-Com:  0.131D+01
 Coeff:     -0.537D-04-0.546D-04 0.428D-03 0.703D-02 0.533D-01-0.374D+00
 Coeff:      0.131D+01
 Gap=     0.306 Goal=   None    Shift=    0.000
 RMSDP=1.12D-06 MaxDP=2.94D-05 DE=-6.94D-07 OVMax= 7.92D-05

 Cycle   8  Pass 1  IDiag  1:
 E= -535.636393345966     Delta-E=       -0.000000019051 Rises=F Damp=F
 DIIS: error= 1.87D-06 at cycle   8 NSaved=   8.
 NSaved= 8 IEnMin= 8 EnMin= -535.636393345966     IErMin= 8 ErrMin= 1.87D-06
 ErrMax= 1.87D-06  0.00D+00 EMaxC= 1.00D-01 BMatC= 2.38D-10 BMatP= 6.03D-09
 IDIUse=1 WtCom= 1.00D+00 WtEn= 0.00D+00
 Coeff-Com:  0.525D-04-0.114D-03-0.377D-03 0.477D-03 0.107D-01-0.363D-01
 Coeff-Com: -0.616D-01 0.109D+01
 Coeff:      0.525D-04-0.114D-03-0.377D-03 0.477D-03 0.107D-01-0.363D-01
 Coeff:     -0.616D-01 0.109D+01
 Gap=     0.306 Goal=   None    Shift=    0.000
 RMSDP=2.10D-07 MaxDP=6.58D-06 DE=-1.91D-08 OVMax= 1.15D-05

 Cycle   9  Pass 1  IDiag  1:
 E= -535.636393346516     Delta-E=       -0.000000000550 Rises=F Damp=F
 DIIS: error= 4.23D-07 at cycle   9 NSaved=   9.
 NSaved= 9 IEnMin= 9 EnMin= -535.636393346516     IErMin= 9 ErrMin= 4.23D-07
 ErrMax= 4.23D-07  0.00D+00 EMaxC= 1.00D-01 BMatC= 1.80D-11 BMatP= 2.38D-10
 IDIUse=1 WtCom= 1.00D+00 WtEn= 0.00D+00
 Coeff-Com: -0.665D-05 0.261D-04 0.374D-04-0.538D-03-0.563D-02 0.334D-01
 Coeff-Com: -0.880D-01-0.161D+00 0.122D+01
 Coeff:     -0.665D-05 0.261D-04 0.374D-04-0.538D-03-0.563D-02 0.334D-01
 Coeff:     -0.880D-01-0.161D+00 0.122D+01
 Gap=     0.306 Goal=   None    Shift=    0.000
 RMSDP=5.50D-08 MaxDP=1.52D-06 DE=-5.50D-10 OVMax= 3.67D-06

 Cycle  10  Pass 1  IDiag  1:
 E= -535.636393346561     Delta-E=       -0.000000000045 Rises=F Damp=F
 DIIS: error= 7.10D-08 at cycle  10 NSaved=  10.
 NSaved=10 IEnMin=10 EnMin= -535.636393346561     IErMin=10 ErrMin= 7.10D-08
 ErrMax= 7.10D-08  0.00D+00 EMaxC= 1.00D-01 BMatC= 7.76D-13 BMatP= 1.80D-11
 IDIUse=1 WtCom= 1.00D+00 WtEn= 0.00D+00
 Coeff-Com: -0.201D-05 0.447D-05 0.146D-04-0.193D-04-0.453D-03 0.149D-02
 Coeff-Com:  0.409D-02-0.478D-01-0.122D-01 0.105D+01
 Coeff:     -0.201D-05 0.447D-05 0.146D-04-0.193D-04-0.453D-03 0.149D-02
 Coeff:      0.409D-02-0.478D-01-0.122D-01 0.105D+01
 Gap=     0.306 Goal=   None    Shift=    0.000
 RMSDP=1.10D-08 MaxDP=2.52D-07 DE=-4.55D-11 OVMax= 6.34D-07

 Cycle  11  Pass 1  IDiag  1:
 E= -535.636393346567     Delta-E=       -0.000000000005 Rises=F Damp=F
 DIIS: error= 1.94D-08 at cycle  11 NSaved=  11.
 NSaved=11 IEnMin=11 EnMin= -535.636393346567     IErMin=11 ErrMin= 1.94D-08
 ErrMax= 1.94D-08  0.00D+00 EMaxC= 1.00D-01 BMatC= 4.59D-14 BMatP= 7.76D-13
 IDIUse=1 WtCom= 1.00D+00 WtEn= 0.00D+00
 Coeff-Com:  0.823D-06-0.239D-05-0.454D-05 0.321D-04 0.378D-03-0.210D-02
 Coeff-Com:  0.450D-02 0.149D-01-0.790D-01-0.103D+00 0.116D+01
 Coeff:      0.823D-06-0.239D-05-0.454D-05 0.321D-04 0.378D-03-0.210D-02
 Coeff:      0.450D-02 0.149D-01-0.790D-01-0.103D+00 0.116D+01
 Gap=     0.306 Goal=   None    Shift=    0.000
 RMSDP=5.47D-09 MaxDP=2.07D-07 DE=-5.23D-12 OVMax= 1.80D-07

 SCF Done:  E(RHF) =  -535.636393347     A.U. after   11 cycles
            NFock= 11  Conv=0.55D-08     -V/T= 1.9996
 KE= 5.358475862634D+02 PE=-1.362343098721D+03 EE= 2.511513677353D+02
 Leave Link  502 at Fri Oct  8 13:07:19 2021, MaxMem= 16106127360 cpu:              19.6 elap:               1.5
 (Enter /sw/contrib/gaussian/g16/B01/g16/l801.exe)
 ExpMin= 2.53D-02 ExpMax= 4.56D+05 ExpMxC= 1.44D+03 IAcc=3 IRadAn=         5 AccDes= 0.00D+00
 HarFok:  IExCor=  205 AccDes= 0.00D+00 IRadAn=         5 IDoV=-2 UseB2=F ITyADJ=14
 ICtDFT= 12500011 ScaDFX=  1.000000  1.000000  1.000000  1.000000
 Largest valence mixing into a core orbital is  4.54D-04
 Largest core mixing into a valence orbital is  1.83D-04
 Range of M.O.s used for correlation:     7   142
 NBasis=   142 NAE=    14 NBE=    14 NFC=     6 NFV=     0
 NROrb=    136 NOA=     8 NOB=     8 NVA=   128 NVB=   128

 **** Warning!!: The largest alpha MO coefficient is  0.20118964D+02

 Leave Link  801 at Fri Oct  8 13:07:19 2021, MaxMem= 16106127360 cpu:               1.9 elap:               0.1
 (Enter /sw/contrib/gaussian/g16/B01/g16/l906.exe)
 Frozen-core derivative calculation, NFC=   6 NFV=   0.
 FulOut=F Deriv=T AODrv=F NAtomX=     4
   MMem=         252  MDisk=           8 MDiskD=           8
  W3Min=      326032 MinDsk=      657538 NBas6D=         164
 NBas2D=       13905    NTT=       13530    LW2=     3500000
    MDV= 16105867728 MDiskM=      490971 NBas2p=       13814
 Fully in-core method, ICMem=   205321089.
 IMap=   1   2   3   4   5   6   7   8   9  10  11  12  13  14
 JobTyp=1 Pass  1 fully in-core, NPsUse= 28.
 Compute canonical integrals.
 FoFCou: FMM=F IPFlag=           0 FMFlag=           0 FMFlg1=           0
         NFxFlg=           0 DoJE=F BraDBF=F KetDBF=F FulRan=T
         wScrn=  0.000000 ICntrl=       600 IOpCl=  1 I1Cent=           0 NGrid=           0
         NMat0=    1 NMatS0=  13905 NMatT0=    0 NMatD0=    1 NMtDS0=    0 NMtDT0=    0
 Symmetry not used in FoFCou.
 Spin components of T(2) and E(2):
     alpha-alpha T2 =       0.1892323103D-01 E2=     -0.5910623211D-01
     alpha-beta  T2 =       0.1038591739D+00 E2=     -0.3583321128D+00
     beta-beta   T2 =       0.1892323103D-01 E2=     -0.5910623211D-01
 The integrals were generated   1 times.
 ANorm=    0.1068506264D+01
 E2 =    -0.4765445770D+00 EUMP2 =    -0.53611293792354D+03
 Leave Link  906 at Fri Oct  8 13:07:21 2021, MaxMem= 16106127360 cpu:              51.2 elap:               1.9
 (Enter /sw/contrib/gaussian/g16/B01/g16/l1002.exe)
 Minotr:  Closed shell wavefunction.
          Computing MP2/KS-MP2 derivatives.
          Using Z-Vector for PSCF gradient.
          Skipping F1 and S1 gradient terms here.
          Frozen-core window.
          Direct CPHF calculation.
          Differentiating once with respect to electric field.
                with respect to dipole field.
          Electric field/nuclear overlap derivatives assumed to be zero.
          Requested convergence is 1.0D-10 RMS, and 1.0D-09 maximum.
          NewPWx=F KeepS1=T KeepF1=T KeepIn=T MapXYZ=F SortEE=F KeepMc=T.
 Keep R1 ints in memory in canonical form, NReq=65348940.
 FoFCou: FMM=F IPFlag=           0 FMFlag=           0 FMFlg1=           0
         NFxFlg=           0 DoJE=F BraDBF=F KetDBF=F FulRan=T
         wScrn=  0.000000 ICntrl=       600 IOpCl=  0 I1Cent=           0 NGrid=           0
         NMat0=    1 NMatS0=  10153 NMatT0=    0 NMatD0=    1 NMtDS0=    0 NMtDT0=    0
 Symmetry not used in FoFCou.
 Two-electron integral symmetry not used.
          MDV=   16106127360 using IRadAn=       5.
          Solving linear equations separately, MaxMat=       0.
          There are     1 degrees of freedom in the 1st order CPHF.  IDoFFX=0 NUNeed=     1.
 LinEq1:  Iter=  0 NonCon=     1 RMS=2.76D-03 Max=3.83D-02 NDo=     1
 AX will form     1 AO Fock derivatives at one time.
 LinEq1:  Iter=  1 NonCon=     1 RMS=3.35D-04 Max=3.93D-03 NDo=     1
 LinEq1:  Iter=  2 NonCon=     1 RMS=1.06D-04 Max=1.03D-03 NDo=     1
 LinEq1:  Iter=  3 NonCon=     1 RMS=3.34D-05 Max=3.38D-04 NDo=     1
 LinEq1:  Iter=  4 NonCon=     1 RMS=8.95D-06 Max=8.14D-05 NDo=     1
 LinEq1:  Iter=  5 NonCon=     1 RMS=2.29D-06 Max=2.50D-05 NDo=     1
 LinEq1:  Iter=  6 NonCon=     1 RMS=5.28D-07 Max=5.45D-06 NDo=     1
 LinEq1:  Iter=  7 NonCon=     1 RMS=1.21D-07 Max=1.09D-06 NDo=     1
 LinEq1:  Iter=  8 NonCon=     1 RMS=2.68D-08 Max=2.78D-07 NDo=     1
 LinEq1:  Iter=  9 NonCon=     1 RMS=5.02D-09 Max=7.02D-08 NDo=     1
 LinEq1:  Iter= 10 NonCon=     1 RMS=6.72D-10 Max=5.98D-09 NDo=     1
 LinEq1:  Iter= 11 NonCon=     1 RMS=1.24D-10 Max=1.28D-09 NDo=     1
 LinEq1:  Iter= 12 NonCon=     0 RMS=3.31D-11 Max=3.56D-10 NDo=     1
 Linear equations converged to 1.000D-10 1.000D-09 after    12 iterations.
 End of Minotr F.D. properties file   721 does not exist.
 End of Minotr F.D. properties file   722 does not exist.
 End of Minotr F.D. properties file   788 does not exist.
 Leave Link 1002 at Fri Oct  8 13:07:23 2021, MaxMem= 16106127360 cpu:              22.6 elap:               1.8
 (Enter /sw/contrib/gaussian/g16/B01/g16/l601.exe)
 Copying SCF densities to generalized density rwf, IOpCl= 0 IROHF=0.

 **********************************************************************

            Population analysis using the MP2 Density.

 **********************************************************************

 Alpha  occ. eigenvalues -- -104.52265 -20.37769 -10.24700  -7.71307  -7.71305
 Alpha  occ. eigenvalues --   -7.71305  -1.20816  -0.75630  -0.56433  -0.42687
 Alpha  occ. eigenvalues --   -0.33970  -0.17480  -0.17007  -0.16966
 Alpha virt. eigenvalues --    0.13637   0.18157   0.25747   0.26550   0.27592
 Alpha virt. eigenvalues --    0.28758   0.30173   0.30709   0.34830   0.39972
 Alpha virt. eigenvalues --    0.41450   0.41463   0.43150   0.49914   0.55068
 Alpha virt. eigenvalues --    0.56541   0.58494   0.59623   0.62068   0.67366
 Alpha virt. eigenvalues --    0.68217   0.69793   0.71799   0.82432   0.85802
 Alpha virt. eigenvalues --    0.87901   0.88655   0.89891   0.90908   0.93091
 Alpha virt. eigenvalues --    1.02192   1.03083   1.06445   1.07836   1.07916
 Alpha virt. eigenvalues --    1.10368   1.11161   1.11343   1.17724   1.18200
 Alpha virt. eigenvalues --    1.20811   1.20890   1.24429   1.25701   1.27947
 Alpha virt. eigenvalues --    1.32492   1.33686   1.38776   1.39188   1.45118
 Alpha virt. eigenvalues --    1.45319   1.49152   1.54877   1.57037   1.61335
 Alpha virt. eigenvalues --    1.65978   1.69044   1.75723   1.78756   1.81889
 Alpha virt. eigenvalues --    1.87969   1.93187   2.10066   2.17070   2.22635
 Alpha virt. eigenvalues --    2.45242   2.49984   2.58732   2.60420   2.64503
 Alpha virt. eigenvalues --    2.67487   2.75926   2.78874   2.81178   2.81450
 Alpha virt. eigenvalues --    2.84381   2.88025   2.91953   2.92888   2.98962
 Alpha virt. eigenvalues --    2.99820   3.00153   3.12425   3.13389   3.20201
 Alpha virt. eigenvalues --    3.35161   3.35200   3.39790   3.40005   3.47182
 Alpha virt. eigenvalues --    3.51359   3.53897   3.65487   3.88600   4.19692
 Alpha virt. eigenvalues --    4.27615   4.36887   4.43881   4.47607   4.56386
 Alpha virt. eigenvalues --    4.61306   4.62077   4.71591   4.80638   5.02523
 Alpha virt. eigenvalues --    5.22157   5.41138   5.43097   5.56691   5.88002
 Alpha virt. eigenvalues --    5.94590   6.00632   6.27633   6.57698   6.72351
 Alpha virt. eigenvalues --    6.93816   7.30050   7.32512   7.44654   7.50100
 Alpha virt. eigenvalues --    7.54987   7.70315   7.84971   8.05930   8.17667
 Alpha virt. eigenvalues --    8.64673   9.26184  19.35039
          Condensed to atoms (all electrons):
               1          2          3          4
     1  O    8.056643   0.239676  -0.050919   0.178085
     2  H    0.239676   0.602628   0.008144  -0.023724
     3  Cl  -0.050919   0.008144  17.966235   0.030719
     4  H    0.178085  -0.023724   0.030719   0.610530
 Mulliken charges:
               1
     1  O   -0.423485
     2  H    0.173276
     3  Cl  -0.954180
     4  H    0.204389
 Sum of Mulliken charges =  -1.00000
 Mulliken charges with hydrogens summed into heavy atoms:
               1
     1  O   -0.045820
     3  Cl  -0.954180
 Electronic spatial extent (au):  <R**2>=            669.9790
 Charge=             -1.0000 electrons
 Dipole moment (field-independent basis, Debye):
    X=              3.8840    Y=             12.1301    Z=              0.0000  Tot=             12.7367
 Quadrupole moment (field-independent basis, Debye-Ang):
   XX=            -24.1203   YY=            -64.6558   ZZ=            -25.0483
   XY=             -7.8260   XZ=             -0.0000   YZ=              0.0000
 Traceless Quadrupole moment (field-independent basis, Debye-Ang):
   XX=             13.8212   YY=            -26.7143   ZZ=             12.8931
   XY=             -7.8260   XZ=             -0.0000   YZ=              0.0000
 Octapole moment (field-independent basis, Debye-Ang**2):
  XXX=             33.3031  YYY=            279.7861  ZZZ=              0.0000  XYY=             34.9708
  XXY=             57.2125  XXZ=              0.0000  XZZ=             10.1018  YZZ=             52.1243
  YYZ=              0.0000  XYZ=              0.0000
 Hexadecapole moment (field-independent basis, Debye-Ang**3):
 XXXX=            -77.2344 YYYY=          -1349.2018 ZZZZ=            -37.7682 XXXY=            -99.8767
 XXXZ=             -0.0000 YYYX=           -171.2245 YYYZ=             -0.0000 ZZZX=             -0.0000
 ZZZY=              0.0000 XXYY=           -191.5027 XXZZ=            -19.4302 YYZZ=           -169.6187
 XXYZ=             -0.0000 YYXZ=             -0.0000 ZZXY=            -32.2887
 N-N= 3.970775137573D+01 E-N=-1.362278382571D+03  KE= 5.363107904037D+02
 No NMR shielding tensors so no spin-rotation constants.
 Leave Link  601 at Fri Oct  8 13:07:23 2021, MaxMem= 16106127360 cpu:               4.0 elap:               0.2
 (Enter /sw/contrib/gaussian/g16/B01/g16/l607.exe)
 ******************************Gaussian NBO Version 3.1******************************
             N A T U R A L   A T O M I C   O R B I T A L   A N D
          N A T U R A L   B O N D   O R B I T A L   A N A L Y S I S
 ******************************Gaussian NBO Version 3.1******************************
       /RESON  / : Allow strongly delocalized NBO set

 Analyzing the MP2 density

 Job title: title                                                           

 Storage needed:     61222 in NPA,     81148 in NBO (********** available)
 GSVD:  LWork=       -1046 too small for GESVD, short by       42557 words or       42557 for optimal perf.


 NATURAL POPULATIONS:  Natural atomic orbital occupancies 
                                                          
   NAO  Atom  No  lang   Type(AO)    Occupancy
 --------------------------------------------
     1    O    1  S      Cor( 1S)     1.99960
     2    O    1  S      Val( 2S)     1.69659
     3    O    1  S      Ryd( 3S)     0.00573
     4    O    1  S      Ryd( 4S)     0.00046
     5    O    1  S      Ryd( 5S)     0.00019
     6    O    1  px     Val( 2p)     1.51946
     7    O    1  px     Ryd( 3p)     0.00896
     8    O    1  px     Ryd( 4p)     0.00052
     9    O    1  px     Ryd( 5p)     0.00006
    10    O    1  py     Val( 2p)     1.66251
    11    O    1  py     Ryd( 3p)     0.01173
    12    O    1  py     Ryd( 4p)     0.00060
    13    O    1  py     Ryd( 5p)     0.00007
    14    O    1  pz     Val( 2p)     1.95423
    15    O    1  pz     Ryd( 3p)     0.01995
    16    O    1  pz     Ryd( 4p)     0.00059
    17    O    1  pz     Ryd( 5p)     0.00002
    18    O    1  dxy    Ryd( 3d)     0.00811
    19    O    1  dxy    Ryd( 4d)     0.00039
    20    O    1  dxy    Ryd( 5d)     0.00006
    21    O    1  dxz    Ryd( 3d)     0.00782
    22    O    1  dxz    Ryd( 4d)     0.00041
    23    O    1  dxz    Ryd( 5d)     0.00006
    24    O    1  dyz    Ryd( 3d)     0.00781
    25    O    1  dyz    Ryd( 4d)     0.00042
    26    O    1  dyz    Ryd( 5d)     0.00011
    27    O    1  dx2y2  Ryd( 3d)     0.01155
    28    O    1  dx2y2  Ryd( 4d)     0.00024
    29    O    1  dx2y2  Ryd( 5d)     0.00007
    30    O    1  dz2    Ryd( 3d)     0.00899
    31    O    1  dz2    Ryd( 4d)     0.00038
    32    O    1  dz2    Ryd( 5d)     0.00008
    33    O    1  f(0)   Ryd( 4f)     0.00064
    34    O    1  f(0)   Ryd( 5f)     0.00009
    35    O    1  f(C1)  Ryd( 4f)     0.00055
    36    O    1  f(C1)  Ryd( 5f)     0.00007
    37    O    1  f(S1)  Ryd( 4f)     0.00052
    38    O    1  f(S1)  Ryd( 5f)     0.00008
    39    O    1  f(C2)  Ryd( 4f)     0.00044
    40    O    1  f(C2)  Ryd( 5f)     0.00008
    41    O    1  f(S2)  Ryd( 4f)     0.00045
    42    O    1  f(S2)  Ryd( 5f)     0.00007
    43    O    1  f(C3)  Ryd( 4f)     0.00039
    44    O    1  f(C3)  Ryd( 5f)     0.00011
    45    O    1  f(S3)  Ryd( 4f)     0.00037
    46    O    1  f(S3)  Ryd( 5f)     0.00010

    47    H    2  S      Val( 1S)     0.55193
    48    H    2  S      Ryd( 2S)     0.00146
    49    H    2  S      Ryd( 3S)     0.00016
    50    H    2  S      Ryd( 4S)     0.00005
    51    H    2  px     Ryd( 2p)     0.00138
    52    H    2  px     Ryd( 3p)     0.00045
    53    H    2  px     Ryd( 4p)     0.00013
    54    H    2  py     Ryd( 2p)     0.00183
    55    H    2  py     Ryd( 3p)     0.00023
    56    H    2  py     Ryd( 4p)     0.00008
    57    H    2  pz     Ryd( 2p)     0.00545
    58    H    2  pz     Ryd( 3p)     0.00019
    59    H    2  pz     Ryd( 4p)     0.00005
    60    H    2  dxy    Ryd( 3d)     0.00006
    61    H    2  dxy    Ryd( 4d)     0.00004
    62    H    2  dxz    Ryd( 3d)     0.00007
    63    H    2  dxz    Ryd( 4d)     0.00006
    64    H    2  dyz    Ryd( 3d)     0.00011
    65    H    2  dyz    Ryd( 4d)     0.00004
    66    H    2  dx2y2  Ryd( 3d)     0.00009
    67    H    2  dx2y2  Ryd( 4d)     0.00004
    68    H    2  dz2    Ryd( 3d)     0.00011
    69    H    2  dz2    Ryd( 4d)     0.00006

    70   Cl    3  S      Cor( 1S)     2.00001
    71   Cl    3  S      Cor( 2S)     2.00000
    72   Cl    3  S      Val( 3S)     1.97968
    73   Cl    3  S      Ryd( 4S)     0.00272
    74   Cl    3  S      Ryd( 5S)     0.00027
    75   Cl    3  S      Ryd( 6S)     0.00007
    76   Cl    3  px     Cor( 2p)     2.00003
    77   Cl    3  px     Val( 3p)     1.95163
    78   Cl    3  px     Ryd( 4p)     0.01345
    79   Cl    3  px     Ryd( 5p)     0.00058
    80   Cl    3  px     Ryd( 6p)     0.00002
    81   Cl    3  py     Cor( 2p)     2.00002
    82   Cl    3  py     Val( 3p)     1.93568
    83   Cl    3  py     Ryd( 4p)     0.01197
    84   Cl    3  py     Ryd( 5p)     0.00056
    85   Cl    3  py     Ryd( 6p)     0.00007
    86   Cl    3  pz     Cor( 2p)     2.00003
    87   Cl    3  pz     Val( 3p)     1.95268
    88   Cl    3  pz     Ryd( 4p)     0.01348
    89   Cl    3  pz     Ryd( 5p)     0.00058
    90   Cl    3  pz     Ryd( 6p)     0.00001
    91   Cl    3  dxy    Ryd( 3d)     0.01841
    92   Cl    3  dxy    Ryd( 4d)     0.00079
    93   Cl    3  dxy    Ryd( 5d)     0.00011
    94   Cl    3  dxz    Ryd( 3d)     0.01830
    95   Cl    3  dxz    Ryd( 4d)     0.00099
    96   Cl    3  dxz    Ryd( 5d)     0.00011
    97   Cl    3  dyz    Ryd( 3d)     0.01841
    98   Cl    3  dyz    Ryd( 4d)     0.00079
    99   Cl    3  dyz    Ryd( 5d)     0.00011
   100   Cl    3  dx2y2  Ryd( 3d)     0.01819
   101   Cl    3  dx2y2  Ryd( 4d)     0.00091
   102   Cl    3  dx2y2  Ryd( 5d)     0.00013
   103   Cl    3  dz2    Ryd( 3d)     0.01826
   104   Cl    3  dz2    Ryd( 4d)     0.00097
   105   Cl    3  dz2    Ryd( 5d)     0.00011
   106   Cl    3  f(0)   Ryd( 4f)     0.00128
   107   Cl    3  f(0)   Ryd( 5f)     0.00015
   108   Cl    3  f(C1)  Ryd( 4f)     0.00129
   109   Cl    3  f(C1)  Ryd( 5f)     0.00014
   110   Cl    3  f(S1)  Ryd( 4f)     0.00128
   111   Cl    3  f(S1)  Ryd( 5f)     0.00015
   112   Cl    3  f(C2)  Ryd( 4f)     0.00128
   113   Cl    3  f(C2)  Ryd( 5f)     0.00015
   114   Cl    3  f(S2)  Ryd( 4f)     0.00130
   115   Cl    3  f(S2)  Ryd( 5f)     0.00015
   116   Cl    3  f(C3)  Ryd( 4f)     0.00127
   117   Cl    3  f(C3)  Ryd( 5f)     0.00015
   118   Cl    3  f(S3)  Ryd( 4f)     0.00127
   119   Cl    3  f(S3)  Ryd( 5f)     0.00015

   120    H    4  S      Val( 1S)     0.51288
   121    H    4  S      Ryd( 2S)     0.00662
   122    H    4  S      Ryd( 3S)     0.00024
   123    H    4  S      Ryd( 4S)     0.00010
   124    H    4  px     Ryd( 2p)     0.00322
   125    H    4  px     Ryd( 3p)     0.00034
   126    H    4  px     Ryd( 4p)     0.00011
   127    H    4  py     Ryd( 2p)     0.00439
   128    H    4  py     Ryd( 3p)     0.00054
   129    H    4  py     Ryd( 4p)     0.00023
   130    H    4  pz     Ryd( 2p)     0.00372
   131    H    4  pz     Ryd( 3p)     0.00041
   132    H    4  pz     Ryd( 4p)     0.00010
   133    H    4  dxy    Ryd( 3d)     0.00015
   134    H    4  dxy    Ryd( 4d)     0.00008
   135    H    4  dxz    Ryd( 3d)     0.00013
   136    H    4  dxz    Ryd( 4d)     0.00008
   137    H    4  dyz    Ryd( 3d)     0.00016
   138    H    4  dyz    Ryd( 4d)     0.00008
   139    H    4  dx2y2  Ryd( 3d)     0.00015
   140    H    4  dx2y2  Ryd( 4d)     0.00012
   141    H    4  dz2    Ryd( 3d)     0.00014
   142    H    4  dz2    Ryd( 4d)     0.00011


 Summary of Natural Population Analysis:                  
                                                          
                                       Natural Population 
                Natural  -----------------------------------------------
    Atom  No    Charge         Core      Valence    Rydberg      Total
 -----------------------------------------------------------------------
      O    1   -0.93173      1.99960     6.83280    0.09933     8.93173
      H    2    0.43593      0.00000     0.55193    0.01213     0.56407
     Cl    3   -0.97013     10.00008     7.81967    0.15037    17.97013
      H    4    0.46593      0.00000     0.51288    0.02120     0.53407
 =======================================================================
   * Total *   -1.00000     11.99969    15.71728    0.28304    28.00000

                                 Natural Population      
 --------------------------------------------------------
   Core                      11.99969 ( 99.9974% of  12)
   Valence                   15.71728 ( 98.2330% of  16)
   Natural Minimal Basis     27.71696 ( 98.9892% of  28)
   Natural Rydberg Basis      0.28304 (  1.0108% of  28)
 --------------------------------------------------------

    Atom  No          Natural Electron Configuration
 ----------------------------------------------------------------------------
      O    1      [core]2S( 1.70)2p( 5.14)3S( 0.01)3p( 0.04)3d( 0.04)
      H    2            1S( 0.55)2p( 0.01)
     Cl    3      [core]3S( 1.98)3p( 5.84)3d( 0.09)4p( 0.04)4f( 0.01)
      H    4            1S( 0.51)2S( 0.01)2p( 0.01)


 NATURAL BOND ORBITAL ANALYSIS:
 Warning:  a bond orbital has occupanc of -0.00001

                       Occupancies       Lewis Structure    Low   High
           Occ.    -------------------  -----------------   occ   occ
  Cycle   Thresh.   Lewis   Non-Lewis     CR  BD  3C  LP    (L)   (NL)   Dev
 =============================================================================
   1(1)    1.90    27.69153   0.30847      6   2   0   6     0      0    0.03
 -----------------------------------------------------------------------------

 Structure accepted: No low occupancy Lewis orbitals

 --------------------------------------------------------
   Core                     11.99969 ( 99.997% of  12)
   Valence Lewis            15.69184 ( 98.074% of  16)
  ==================       ============================
   Total Lewis              27.69153 ( 98.898% of  28)
  -----------------------------------------------------
   Valence non-Lewis         0.05300 (  0.189% of  28)
   Rydberg non-Lewis         0.25547 (  0.912% of  28)
  ==================       ============================
   Total non-Lewis           0.30847 (  1.102% of  28)
 --------------------------------------------------------


       (Occupancy)   Bond orbital/ Coefficients/ Hybrids
 ---------------------------------------------------------------------------------
     1. (1.96691) BD ( 1) O   1 - H   2  
                ( 72.69%)   0.8526* O   1 s( 20.52%)p 3.85( 79.05%)d 0.02(  0.42%)
                                                  f 0.00(  0.01%)
                                            0.0002  0.4529 -0.0027 -0.0017 -0.0018
                                            0.8852 -0.0290  0.0099 -0.0025  0.0755
                                           -0.0175  0.0010 -0.0027  0.0000  0.0000
                                            0.0000  0.0000 -0.0212  0.0027  0.0002
                                            0.0000  0.0000  0.0000  0.0000  0.0000
                                            0.0000  0.0503 -0.0032 -0.0034 -0.0346
                                            0.0028  0.0002  0.0000  0.0000 -0.0098
                                           -0.0000  0.0002 -0.0003  0.0000  0.0000
                                            0.0000  0.0000  0.0030  0.0032  0.0025
                                           -0.0005
                ( 27.31%)   0.5226* H   2 s( 99.90%)p 0.00(  0.10%)d 0.00(  0.00%)
                                            0.9995  0.0029 -0.0002  0.0002  0.0153
                                            0.0247 -0.0057 -0.0086 -0.0041 -0.0026
                                            0.0000  0.0000  0.0000 -0.0008 -0.0018
                                            0.0000  0.0000  0.0000  0.0000 -0.0030
                                           -0.0007 -0.0001  0.0005
     2. (1.97394) BD ( 1) O   1 - H   4  
                ( 75.22%)   0.8673* O   1 s( 32.75%)p 2.04( 66.83%)d 0.01(  0.40%)
                                                  f 0.00(  0.01%)
                                           -0.0003 -0.5722  0.0109  0.0030  0.0023
                                            0.2229 -0.0211  0.0013 -0.0011  0.7857
                                           -0.0301  0.0062 -0.0012  0.0000  0.0000
                                            0.0000  0.0000 -0.0007 -0.0035 -0.0015
                                            0.0000  0.0000  0.0000  0.0000  0.0000
                                            0.0000  0.0522 -0.0008 -0.0012  0.0361
                                           -0.0002  0.0014  0.0000  0.0000 -0.0018
                                           -0.0002 -0.0081 -0.0011  0.0000  0.0000
                                            0.0000  0.0000 -0.0028 -0.0026 -0.0016
                                           -0.0036
                ( 24.78%)   0.4978* H   4 s( 99.91%)p 0.00(  0.09%)d 0.00(  0.01%)
                                           -0.9994 -0.0161 -0.0001 -0.0004 -0.0145
                                           -0.0022 -0.0011 -0.0079 -0.0229 -0.0088
                                            0.0000  0.0000  0.0000  0.0021 -0.0000
                                            0.0000  0.0000  0.0000  0.0000 -0.0048
                                            0.0035 -0.0017  0.0039
     3. (1.99960) CR ( 1) O   1           s(100.00%)
                                            1.0000 -0.0004  0.0000  0.0000  0.0000
                                           -0.0000  0.0000 -0.0000  0.0000  0.0001
                                           -0.0000  0.0000  0.0000  0.0000  0.0000
                                            0.0000  0.0000 -0.0000 -0.0000 -0.0000
                                            0.0000  0.0000  0.0000  0.0000  0.0000
                                            0.0000  0.0000  0.0000  0.0000  0.0000
                                           -0.0000  0.0000  0.0000  0.0000  0.0000
                                            0.0000 -0.0000 -0.0000  0.0000  0.0000
                                            0.0000  0.0000 -0.0000 -0.0000 -0.0000
                                           -0.0000
     4. (2.00001) CR ( 1)Cl   3           s(100.00%)
                                            1.0000 -0.0000  0.0000 -0.0000 -0.0000
                                           -0.0000 -0.0000 -0.0000 -0.0000  0.0000
                                            0.0000 -0.0000 -0.0001  0.0000  0.0000
                                           -0.0000  0.0000  0.0000  0.0000  0.0000
                                            0.0000 -0.0000 -0.0000 -0.0000  0.0000
                                            0.0000  0.0000  0.0000  0.0000  0.0000
                                            0.0000  0.0000 -0.0000  0.0000  0.0000
                                            0.0000  0.0000  0.0000  0.0000  0.0000
                                            0.0000  0.0000  0.0000  0.0000  0.0000
                                            0.0000  0.0000  0.0000  0.0000  0.0000
     5. (2.00000) CR ( 2)Cl   3           s(100.00%)
                                           -0.0000  1.0000 -0.0000 -0.0000 -0.0000
                                           -0.0000 -0.0000 -0.0000 -0.0000  0.0000
                                            0.0000 -0.0000 -0.0000  0.0000  0.0000
                                           -0.0000  0.0000  0.0000  0.0000  0.0000
                                            0.0000 -0.0000 -0.0000 -0.0000  0.0000
                                            0.0000  0.0000  0.0000  0.0000  0.0000
                                            0.0000  0.0000 -0.0000  0.0000  0.0000
                                            0.0000  0.0000  0.0000  0.0000  0.0000
                                            0.0000  0.0000  0.0000  0.0000  0.0000
                                            0.0000  0.0000  0.0000  0.0000  0.0000
     6. (2.00003) CR ( 3)Cl   3           s(  0.00%)p 1.00(100.00%)
                                           -0.0000 -0.0000 -0.0000 -0.0000  0.0000
                                           -0.0000  1.0000  0.0000  0.0000  0.0000
                                           -0.0000 -0.0000 -0.0000  0.0000  0.0000
                                           -0.0000  0.0000  0.0000  0.0000  0.0000
                                            0.0000  0.0000  0.0000 -0.0000  0.0000
                                            0.0000  0.0000  0.0000  0.0000  0.0000
                                            0.0000  0.0000  0.0000  0.0000  0.0000
                                           -0.0000  0.0000  0.0000 -0.0000 -0.0000
                                            0.0000  0.0000  0.0000  0.0000  0.0000
                                            0.0000 -0.0000 -0.0000  0.0000  0.0000
     7. (2.00002) CR ( 4)Cl   3           s(  0.00%)p 1.00(100.00%)
                                           -0.0000 -0.0000 -0.0000 -0.0000 -0.0000
                                           -0.0000 -0.0000 -0.0000 -0.0000  0.0000
                                            0.0000  1.0000 -0.0000  0.0000  0.0000
                                           -0.0000  0.0000  0.0000  0.0000  0.0000
                                            0.0000 -0.0000 -0.0000 -0.0000  0.0000
                                            0.0000  0.0000  0.0000  0.0000  0.0000
                                            0.0000  0.0000 -0.0000  0.0000  0.0000
                                            0.0000  0.0000  0.0000  0.0000  0.0000
                                            0.0000  0.0000  0.0000  0.0000  0.0000
                                            0.0000  0.0000  0.0000  0.0000  0.0000
     8. (2.00003) CR ( 5)Cl   3           s(  0.00%)p 1.00(100.00%)
                                            0.0000  0.0000  0.0000  0.0000  0.0000
                                            0.0000  0.0000  0.0000  0.0000  0.0000
                                            0.0000  0.0000  0.0000  0.0000  0.0000
                                            0.0000  1.0000  0.0000 -0.0000  0.0000
                                            0.0000  0.0000  0.0000  0.0000  0.0000
                                            0.0000  0.0000  0.0000  0.0000 -0.0000
                                            0.0000  0.0000  0.0000  0.0000  0.0000
                                            0.0000 -0.0000 -0.0000  0.0000  0.0000
                                            0.0000  0.0000 -0.0000 -0.0000  0.0000
                                            0.0000  0.0000  0.0000  0.0000  0.0000
     9. (1.97002) LP ( 1) O   1           s( 46.64%)p 1.14( 53.23%)d 0.00(  0.13%)
                                                  f 0.00(  0.00%)
                                            0.0002  0.6829  0.0080  0.0027  0.0020
                                           -0.4006 -0.0078  0.0020 -0.0003  0.6097
                                            0.0109 -0.0046  0.0003  0.0000  0.0000
                                            0.0000  0.0000  0.0298 -0.0042  0.0015
                                            0.0000  0.0000  0.0000  0.0000  0.0000
                                            0.0000  0.0099 -0.0000  0.0017  0.0165
                                           -0.0018 -0.0009  0.0000  0.0000  0.0026
                                           -0.0005 -0.0035  0.0010  0.0000  0.0000
                                            0.0000  0.0000  0.0013 -0.0013  0.0008
                                           -0.0011
    10. (1.96067) LP ( 2) O   1           s(  0.00%)p 1.00( 99.79%)d 0.00(  0.20%)
                                                  f 0.00(  0.01%)
                                            0.0000  0.0000  0.0000  0.0000  0.0000
                                            0.0000  0.0000  0.0000  0.0000  0.0000
                                            0.0000  0.0000  0.0000  0.9983  0.0341
                                           -0.0066  0.0023  0.0000  0.0000  0.0000
                                            0.0309 -0.0041  0.0001 -0.0313  0.0023
                                           -0.0049  0.0000  0.0000  0.0000  0.0000
                                            0.0000  0.0000 -0.0098  0.0022  0.0000
                                            0.0000  0.0000  0.0000 -0.0013  0.0007
                                            0.0024 -0.0002  0.0000  0.0000  0.0000
                                            0.0000
    11. (1.98020) LP ( 1)Cl   3           s( 98.94%)p 0.01(  1.06%)d 0.00(  0.00%)
                                                  f 0.00(  0.00%)
                                           -0.0000 -0.0000  0.9947 -0.0002 -0.0000
                                           -0.0000  0.0000 -0.0201  0.0005 -0.0001
                                            0.0002  0.0000 -0.1008  0.0009 -0.0007
                                            0.0002  0.0000  0.0000  0.0000  0.0000
                                            0.0000  0.0009  0.0003 -0.0001  0.0000
                                            0.0000  0.0000  0.0000  0.0000  0.0000
                                           -0.0016 -0.0004  0.0002 -0.0012 -0.0004
                                            0.0001  0.0000  0.0000 -0.0001 -0.0001
                                           -0.0005 -0.0003  0.0000  0.0000  0.0000
                                            0.0000 -0.0003 -0.0002 -0.0004 -0.0002
    12. (1.95277) LP ( 2)Cl   3           s(  0.00%)p 1.00(100.00%)d 0.00(  0.00%)
                                                  f 0.00(  0.00%)
                                            0.0000  0.0000  0.0000  0.0000  0.0000
                                            0.0000  0.0000  0.0000  0.0000  0.0000
                                            0.0000  0.0000  0.0000  0.0000  0.0000
                                            0.0000 -0.0000  1.0000 -0.0002  0.0007
                                            0.0001  0.0000  0.0000  0.0000  0.0024
                                            0.0014  0.0008  0.0053  0.0016 -0.0002
                                            0.0000  0.0000  0.0000  0.0000  0.0000
                                            0.0000 -0.0013 -0.0010  0.0000  0.0000
                                            0.0000  0.0000 -0.0012 -0.0008  0.0008
                                            0.0007  0.0000  0.0000  0.0000  0.0000
    13. (1.95255) LP ( 3)Cl   3           s(  0.00%)p 1.00( 99.99%)d 0.00(  0.01%)
                                                  f 0.00(  0.00%)
                                            0.0000  0.0000 -0.0018  0.0004  0.0018
                                           -0.0014 -0.0000  0.9771  0.0011  0.0010
                                           -0.0006  0.0000 -0.2126  0.0006  0.0001
                                           -0.0006  0.0000  0.0000  0.0000  0.0000
                                            0.0000  0.0055  0.0015 -0.0002  0.0000
                                            0.0000  0.0000  0.0000  0.0000  0.0000
                                            0.0040  0.0018  0.0007 -0.0007 -0.0006
                                           -0.0006  0.0000  0.0000 -0.0006 -0.0005
                                            0.0000 -0.0000  0.0000  0.0000  0.0000
                                            0.0000 -0.0012 -0.0007  0.0013  0.0009
    14. (1.93478) LP ( 4)Cl   3           s(  1.05%)p93.78( 98.93%)d 0.02(  0.02%)
                                                  f 0.00(  0.00%)
                                            0.0001  0.0000  0.1027  0.0019  0.0005
                                            0.0004  0.0000  0.2116  0.0007 -0.0003
                                           -0.0000  0.0000  0.9718 -0.0009 -0.0017
                                            0.0004  0.0000  0.0000  0.0000  0.0000
                                            0.0000  0.0059  0.0016  0.0003  0.0000
                                            0.0000  0.0000  0.0000  0.0000  0.0000
                                           -0.0095 -0.0021  0.0005 -0.0070 -0.0019
                                           -0.0003  0.0000  0.0000 -0.0005 -0.0003
                                           -0.0020 -0.0011  0.0000  0.0000  0.0000
                                            0.0000 -0.0014 -0.0005 -0.0017 -0.0007
    15. (0.01789) RY*( 1) O   1           s(  0.00%)p 1.00( 98.61%)d 0.01(  1.38%)
                                                  f 0.00(  0.01%)
                                            0.0000  0.0000  0.0000  0.0000  0.0000
                                            0.0000  0.0000  0.0000  0.0000  0.0000
                                            0.0000  0.0000  0.0000 -0.0385  0.9915
                                            0.0353 -0.0137  0.0000  0.0000  0.0000
                                            0.1059 -0.0154 -0.0076 -0.0469  0.0108
                                           -0.0008  0.0000  0.0000  0.0000  0.0000
                                            0.0000  0.0000 -0.0052  0.0078  0.0000
                                            0.0000  0.0000  0.0000 -0.0002  0.0009
                                           -0.0028 -0.0003  0.0000  0.0000  0.0000
                                            0.0000
    16. (0.01420) RY*( 2) O   1           s( 22.30%)p 3.38( 75.45%)d 0.10(  2.18%)
                                                  f 0.00(  0.07%)
                                            0.0000 -0.0154  0.4719 -0.0042  0.0038
                                            0.0149 -0.4527 -0.0173  0.0031 -0.0056
                                            0.7407  0.0184 -0.0105  0.0000  0.0000
                                            0.0000  0.0000  0.1444 -0.0150  0.0002
                                            0.0000  0.0000  0.0000  0.0000  0.0000
                                            0.0000 -0.0148  0.0018  0.0072  0.0189
                                           -0.0102 -0.0008  0.0000  0.0000  0.0022
                                           -0.0005  0.0050  0.0017  0.0000  0.0000
                                            0.0000  0.0000  0.0180 -0.0105  0.0139
                                           -0.0040
    17. (0.00638) RY*( 3) O   1           s(  0.60%)p99.99( 65.27%)d55.87( 33.54%)
                                                  f 0.98(  0.59%)
                                           -0.0000  0.0037  0.0634 -0.0437  0.0074
                                           -0.0666 -0.6962 -0.0484  0.0217 -0.0422
                                           -0.3975 -0.0306  0.0100 -0.0000 -0.0000
                                           -0.0000 -0.0000 -0.2835 -0.0058  0.0011
                                           -0.0000 -0.0000 -0.0000 -0.0000 -0.0000
                                           -0.0000  0.4962  0.0297  0.0175 -0.0865
                                           -0.0042  0.0015 -0.0000 -0.0000 -0.0408
                                            0.0193 -0.0207  0.0058 -0.0000 -0.0000
                                           -0.0000 -0.0000  0.0092 -0.0122 -0.0519
                                            0.0218
    18. (0.00597) RY*( 4) O   1           s(  0.00%)p 1.00(  0.05%)d99.99( 99.02%)
                                                  f17.25(  0.92%)
                                            0.0000  0.0000  0.0000  0.0000  0.0000
                                            0.0000  0.0000  0.0000  0.0000  0.0000
                                            0.0000  0.0000  0.0000  0.0103 -0.0174
                                           -0.0113 -0.0001  0.0000  0.0000  0.0000
                                            0.5411  0.0218  0.0065  0.8339  0.0393
                                            0.0027  0.0000  0.0000  0.0000  0.0000
                                            0.0000  0.0000  0.0219 -0.0083  0.0000
                                            0.0000  0.0000  0.0000  0.0844 -0.0393
                                           -0.0045  0.0002  0.0000  0.0000  0.0000
                                            0.0000
    19. (0.00590) RY*( 5) O   1           s(  7.80%)p 0.25(  1.94%)d11.44( 89.24%)
                                                  f 0.13(  1.01%)
                                            0.0000  0.0109  0.2790  0.0037  0.0008
                                           -0.0042  0.1189  0.0092 -0.0074  0.0299
                                            0.0648 -0.0081 -0.0005 -0.0000 -0.0000
                                           -0.0000 -0.0000 -0.8889 -0.0186  0.0045
                                           -0.0000 -0.0000 -0.0000 -0.0000 -0.0000
                                           -0.0000 -0.3176 -0.0086  0.0009  0.0289
                                            0.0072  0.0108 -0.0000 -0.0000 -0.0115
                                            0.0103  0.0300 -0.0180 -0.0000 -0.0000
                                           -0.0000 -0.0000 -0.0835  0.0284 -0.0259
                                            0.0151
    20. (0.00583) RY*( 6) O   1           s(  0.00%)p 1.00(  1.48%)d65.84( 97.74%)
                                                  f 0.52(  0.78%)
                                            0.0000  0.0000  0.0000  0.0000  0.0000
                                            0.0000  0.0000  0.0000  0.0000  0.0000
                                            0.0000  0.0000  0.0000 -0.0389 -0.1151
                                           -0.0037 -0.0082  0.0000  0.0000  0.0000
                                            0.8272  0.0384  0.0063 -0.5394 -0.0262
                                            0.0051  0.0000  0.0000  0.0000  0.0000
                                            0.0000  0.0000 -0.0658  0.0336  0.0000
                                            0.0000  0.0000  0.0000  0.0200 -0.0136
                                           -0.0377  0.0174  0.0000  0.0000  0.0000
                                            0.0000
    21. (0.00557) RY*( 7) O   1           s( 11.26%)p 0.48(  5.38%)d 7.35( 82.85%)
                                                  f 0.04(  0.51%)
                                           -0.0000  0.0263  0.3343 -0.0142  0.0048
                                            0.0228  0.0565 -0.0028 -0.0033 -0.0450
                                           -0.2173 -0.0286 -0.0064  0.0000  0.0000
                                            0.0000  0.0000  0.0979  0.0094  0.0025
                                            0.0000  0.0000  0.0000  0.0000  0.0000
                                            0.0000  0.0718  0.0082 -0.0018  0.9001
                                            0.0574  0.0004  0.0000  0.0000  0.0399
                                           -0.0184 -0.0495  0.0207  0.0000  0.0000
                                            0.0000  0.0000 -0.0094  0.0004 -0.0118
                                            0.0048
    22. (0.00248) RY*( 8) O   1           s(  0.06%)p99.99( 32.47%)d99.99( 66.96%)
                                                  f 7.82(  0.51%)
                                            0.0000 -0.0003 -0.0095  0.0232  0.0047
                                            0.0259 -0.4600 -0.0367 -0.0167  0.0204
                                           -0.3287 -0.0433 -0.0218 -0.0000 -0.0000
                                           -0.0000 -0.0000  0.1940  0.0291 -0.0103
                                           -0.0000 -0.0000 -0.0000 -0.0000 -0.0000
                                           -0.0000 -0.7823 -0.1107  0.0824 -0.0057
                                           -0.0026 -0.0020 -0.0000 -0.0000  0.0125
                                           -0.0233  0.0033 -0.0132 -0.0000 -0.0000
                                           -0.0000 -0.0000 -0.0345  0.0118  0.0525
                                           -0.0103
    23. (0.00207) RY*( 9) O   1           s( 56.29%)p 0.37( 20.75%)d 0.40( 22.72%)
                                                  f 0.00(  0.24%)
                                            0.0000 -0.0044  0.7463 -0.0032 -0.0769
                                           -0.0066  0.2622  0.0244 -0.0271 -0.0008
                                           -0.3437 -0.1306 -0.0470  0.0000  0.0000
                                            0.0000  0.0000  0.2146  0.0562  0.0195
                                            0.0000  0.0000  0.0000  0.0000  0.0000
                                            0.0000  0.0423  0.0213  0.0054 -0.3990
                                           -0.1214  0.0364  0.0000  0.0000 -0.0027
                                            0.0265  0.0028 -0.0138  0.0000  0.0000
                                            0.0000  0.0000  0.0101 -0.0372 -0.0042
                                           -0.0025
    24. (0.00072) RY*(10) O   1           s( 45.69%)p 1.06( 48.23%)d 0.10(  4.44%)
                                                  f 0.04(  1.63%)
                                            0.0000 -0.0054 -0.0763  0.6590 -0.1297
                                            0.0017 -0.0300  0.0809 -0.1092 -0.0009
                                            0.0611 -0.6776  0.0001 -0.0000 -0.0000
                                           -0.0000 -0.0000 -0.0251  0.0907  0.1381
                                           -0.0000 -0.0000 -0.0000 -0.0000 -0.0000
                                           -0.0000  0.0366  0.0230 -0.0095  0.0325
                                           -0.0021 -0.1161 -0.0000 -0.0000  0.0143
                                           -0.0049  0.0342  0.0413 -0.0000 -0.0000
                                           -0.0000 -0.0000  0.0138  0.0607 -0.0173
                                            0.0951
    25. (0.00055) RY*(11) O   1           s(  0.00%)p 1.00( 67.81%)d 0.44( 29.98%)
                                                  f 0.03(  2.21%)
                                            0.0000  0.0000  0.0000  0.0000  0.0000
                                            0.0000  0.0000  0.0000  0.0000  0.0000
                                            0.0000  0.0000  0.0000  0.0037 -0.0406
                                            0.8222 -0.0184  0.0000  0.0000  0.0000
                                            0.0074 -0.2197 -0.0747 -0.0045  0.4777
                                            0.1330  0.0000  0.0000  0.0000  0.0000
                                            0.0000  0.0000 -0.1389  0.0410  0.0000
                                            0.0000  0.0000  0.0000 -0.0273  0.0002
                                           -0.0190 -0.0078  0.0000  0.0000  0.0000
                                            0.0000
    26. (0.00045) RY*(12) O   1           s(  6.81%)p 3.65( 24.86%)d 6.41( 43.69%)
                                                  f 3.62( 24.64%)
                                           -0.0000  0.0040  0.0077  0.2462  0.0864
                                            0.0076  0.0238 -0.4572 -0.0350 -0.0018
                                           -0.0224  0.1924  0.0149 -0.0000 -0.0000
                                           -0.0000 -0.0000 -0.0443 -0.2616  0.0321
                                           -0.0000 -0.0000 -0.0000 -0.0000 -0.0000
                                           -0.0000  0.0008 -0.1067  0.0204  0.0384
                                           -0.5667 -0.1763 -0.0000 -0.0000  0.2287
                                           -0.0183  0.0297  0.0140 -0.0000 -0.0000
                                           -0.0000 -0.0000  0.4351  0.0109  0.0511
                                            0.0249
    27. (0.00043) RY*(13) O   1           s(  0.00%)p 1.00(  0.70%)d19.54( 13.68%)
                                                  f99.99( 85.62%)
                                            0.0000  0.0000  0.0000  0.0000  0.0000
                                            0.0000  0.0000  0.0000  0.0000  0.0000
                                            0.0000  0.0000  0.0000  0.0046 -0.0035
                                           -0.0833 -0.0051  0.0000  0.0000  0.0000
                                            0.0150 -0.1199 -0.0244 -0.0859  0.3136
                                            0.1259  0.0000  0.0000  0.0000  0.0000
                                            0.0000  0.0000  0.8304 -0.0165  0.0000
                                            0.0000  0.0000  0.0000  0.4077  0.0050
                                           -0.0073 -0.0042  0.0000  0.0000  0.0000
                                            0.0000
    28. (0.00043) RY*(14) O   1           s(  0.51%)p 2.26(  1.15%)d15.74(  7.98%)
                                                  f99.99( 90.36%)
                                           -0.0000  0.0010  0.0020  0.0693  0.0165
                                           -0.0012  0.0037 -0.0768 -0.0179 -0.0000
                                           -0.0129  0.0709  0.0080  0.0000  0.0000
                                            0.0000  0.0000  0.0544 -0.0801 -0.0624
                                            0.0000  0.0000  0.0000  0.0000  0.0000
                                            0.0000  0.0194 -0.0274 -0.0196  0.0676
                                           -0.2332 -0.0780  0.0000  0.0000 -0.5624
                                            0.0148  0.7061 -0.0070  0.0000  0.0000
                                            0.0000  0.0000 -0.2852  0.0099 -0.0830
                                            0.0129
    29. (0.00044) RY*(15) O   1           s(  0.00%)p 1.00(  3.35%)d 1.42(  4.76%)
                                                  f27.46( 91.89%)
                                            0.0000  0.0000  0.0000  0.0000  0.0000
                                            0.0000  0.0000  0.0000  0.0000  0.0000
                                            0.0000  0.0000  0.0000 -0.0008 -0.0044
                                            0.1785  0.0400  0.0000  0.0000  0.0000
                                            0.0403  0.0533 -0.0201 -0.0103 -0.2048
                                           -0.0262  0.0000  0.0000  0.0000  0.0000
                                            0.0000  0.0000  0.1300 -0.0022  0.0000
                                            0.0000  0.0000  0.0000 -0.0348 -0.0041
                                            0.9488 -0.0260  0.0000  0.0000  0.0000
                                            0.0000
    30. (0.00041) RY*(16) O   1           s(  0.00%)p 1.00(  0.81%)d18.96( 15.33%)
                                                  f99.99( 83.87%)
                                            0.0000  0.0000  0.0000  0.0000  0.0000
                                            0.0000  0.0000  0.0000  0.0000  0.0000
                                            0.0000  0.0000  0.0000  0.0010  0.0098
                                            0.0875  0.0182  0.0000  0.0000  0.0000
                                           -0.0819  0.3418  0.1619 -0.0297 -0.0294
                                            0.0421  0.0000  0.0000  0.0000  0.0000
                                            0.0000  0.0000 -0.3485  0.0088  0.0000
                                            0.0000  0.0000  0.0000  0.8455  0.0188
                                            0.0437 -0.0033  0.0000  0.0000  0.0000
                                            0.0000
    31. (0.00040) RY*(17) O   1           s(  2.63%)p12.75( 33.59%)d 5.07( 13.34%)
                                                  f19.14( 50.43%)
                                            0.0000 -0.0014  0.0143  0.1354  0.0883
                                           -0.0084 -0.0473  0.5326  0.0125 -0.0052
                                           -0.0307  0.2199  0.0214  0.0000  0.0000
                                            0.0000  0.0000 -0.0270  0.1663  0.0448
                                            0.0000  0.0000  0.0000  0.0000  0.0000
                                            0.0000  0.0794 -0.2562 -0.0444  0.0114
                                           -0.1697 -0.0154  0.0000  0.0000  0.4298
                                            0.0345  0.3164  0.0238  0.0000  0.0000
                                            0.0000  0.0000 -0.1261 -0.0212  0.4481
                                            0.0225
    32. (0.00038) RY*(18) O   1           s(  0.00%)p 1.00( 25.84%)d 1.99( 51.31%)
                                                  f 0.88( 22.86%)
                                            0.0000  0.0000  0.0000  0.0000  0.0000
                                            0.0000  0.0000  0.0000  0.0000  0.0000
                                            0.0000  0.0000  0.0000 -0.0106 -0.0021
                                           -0.4703 -0.1926  0.0000  0.0000  0.0000
                                            0.0049 -0.5435  0.0050 -0.0186  0.4661
                                            0.0059  0.0000  0.0000  0.0000  0.0000
                                            0.0000  0.0000 -0.3640 -0.0305  0.0000
                                            0.0000  0.0000  0.0000  0.1229  0.0081
                                            0.2823  0.0157  0.0000  0.0000  0.0000
                                            0.0000
    33. (0.00038) RY*(19) O   1           s(  1.62%)p 1.94(  3.15%)d 7.12( 11.55%)
                                                  f51.63( 83.69%)
                                           -0.0000 -0.0001 -0.0016  0.0982  0.0810
                                           -0.0057 -0.0051  0.1304 -0.0633 -0.0069
                                           -0.0089  0.0638 -0.0787  0.0000  0.0000
                                            0.0000  0.0000 -0.0144 -0.1680  0.0484
                                            0.0000  0.0000  0.0000  0.0000  0.0000
                                            0.0000 -0.0010  0.1672 -0.0637  0.0197
                                           -0.2225 -0.0529  0.0000  0.0000 -0.4924
                                           -0.0157 -0.4668 -0.0197  0.0000  0.0000
                                            0.0000  0.0000 -0.1225 -0.0236  0.5974
                                            0.0587
    34. (0.00033) RY*(20) O   1           s(  0.00%)p 1.00(  3.07%)d29.11( 89.30%)
                                                  f 2.49(  7.64%)
                                            0.0000  0.0000  0.0000  0.0000  0.0000
                                            0.0000  0.0000  0.0000  0.0000  0.0000
                                            0.0000  0.0000  0.0000 -0.0012  0.0102
                                           -0.1710 -0.0363  0.0000  0.0000  0.0000
                                           -0.0135  0.7081 -0.0611 -0.0161  0.6177
                                           -0.0765  0.0000  0.0000  0.0000  0.0000
                                            0.0000  0.0000 -0.0183 -0.0071  0.0000
                                            0.0000  0.0000  0.0000 -0.2454 -0.0378
                                            0.1181  0.0193  0.0000  0.0000  0.0000
                                            0.0000
    35. (0.00032) RY*(21) O   1           s(  0.10%)p99.99( 13.74%)d99.99( 41.22%)
                                                  f99.99( 44.94%)
                                            0.0000 -0.0016 -0.0164  0.0096  0.0254
                                           -0.0046 -0.0227  0.3232  0.0860  0.0036
                                            0.0082  0.1137  0.1093  0.0000  0.0000
                                            0.0000  0.0000 -0.0395  0.5772 -0.0243
                                            0.0000  0.0000  0.0000  0.0000  0.0000
                                            0.0000 -0.0593  0.1225  0.0067  0.0478
                                           -0.2355  0.0252  0.0000  0.0000 -0.3158
                                           -0.0218 -0.0349 -0.0041  0.0000  0.0000
                                            0.0000  0.0000  0.5489  0.0894 -0.1883
                                           -0.0568
    36. (0.00030) RY*(22) O   1           s(  1.11%)p32.09( 35.65%)d41.77( 46.41%)
                                                  f15.14( 16.82%)
                                           -0.0000 -0.0028 -0.0073 -0.0659  0.0819
                                            0.0000 -0.0178  0.5514  0.1781 -0.0056
                                           -0.0083 -0.1383 -0.0344 -0.0000 -0.0000
                                           -0.0000 -0.0000  0.0192 -0.6320  0.0666
                                           -0.0000 -0.0000 -0.0000 -0.0000 -0.0000
                                           -0.0000 -0.0295 -0.1737  0.0329  0.0136
                                           -0.1631  0.0323 -0.0000 -0.0000 -0.0634
                                            0.0118 -0.0751 -0.0311 -0.0000 -0.0000
                                           -0.0000 -0.0000  0.1385 -0.0116 -0.3533
                                           -0.1154
    37. (0.00026) RY*(23) O   1           s( 13.95%)p 0.16(  2.25%)d 1.60( 22.29%)
                                                  f 4.41( 61.51%)
                                           -0.0000  0.0052 -0.0234  0.1751  0.3290
                                            0.0065 -0.0163  0.0129 -0.0414 -0.0051
                                            0.0145  0.0904  0.1090 -0.0000 -0.0000
                                           -0.0000 -0.0000  0.0304  0.2036 -0.0534
                                           -0.0000 -0.0000 -0.0000 -0.0000 -0.0000
                                           -0.0000 -0.0124  0.1799 -0.0344  0.0077
                                           -0.3776 -0.0364 -0.0000 -0.0000  0.1555
                                            0.0755 -0.2728 -0.1097 -0.0000 -0.0000
                                           -0.0000 -0.0000 -0.5237 -0.2012 -0.3979
                                           -0.1604
    38. (0.00020) RY*(24) O   1           s( 23.00%)p 1.19( 27.29%)d 1.83( 42.11%)
                                                  f 0.33(  7.60%)
                                           -0.0000  0.0015  0.1069  0.4476  0.1352
                                           -0.0037 -0.0175  0.1110 -0.0607 -0.0022
                                           -0.0873  0.4982 -0.0264  0.0000  0.0000
                                            0.0000  0.0000  0.0404 -0.1630  0.1301
                                            0.0000  0.0000  0.0000  0.0000  0.0000
                                            0.0000 -0.0449  0.2862 -0.1796 -0.0705
                                            0.4364 -0.2537  0.0000  0.0000 -0.0193
                                            0.0134  0.0246  0.1516  0.0000  0.0000
                                            0.0000  0.0000  0.0721  0.1285 -0.1684
                                            0.0422
    39. (0.00019) RY*(25) O   1           s( 17.21%)p 0.82( 14.19%)d 2.96( 50.90%)
                                                  f 1.03( 17.70%)
                                            0.0000 -0.0017 -0.0403 -0.1971  0.3628
                                            0.0070 -0.0289  0.0401 -0.0353  0.0053
                                           -0.0052 -0.2547 -0.2706  0.0000  0.0000
                                            0.0000  0.0000 -0.0053 -0.0921 -0.0452
                                            0.0000  0.0000  0.0000  0.0000  0.0000
                                            0.0000 -0.0714  0.6783 -0.0918  0.0165
                                           -0.0722  0.1391  0.0000  0.0000  0.1915
                                            0.1168  0.2740  0.0897  0.0000  0.0000
                                            0.0000  0.0000  0.1511 -0.0291  0.1362
                                           -0.0368
    40. (0.00013) RY*(26) O   1           s( 57.85%)p 0.15(  8.48%)d 0.46( 26.65%)
                                                  f 0.12(  7.03%)
                                            0.0000 -0.0008  0.0559  0.1172  0.7494
                                           -0.0038  0.0587 -0.1088  0.1225 -0.0031
                                           -0.0003 -0.1196 -0.2003  0.0000  0.0000
                                            0.0000  0.0000 -0.0069  0.0975 -0.1619
                                            0.0000  0.0000  0.0000  0.0000  0.0000
                                            0.0000  0.0666 -0.3699  0.1699 -0.0436
                                            0.2420  0.0105  0.0000  0.0000 -0.1307
                                           -0.1823 -0.0095 -0.0651  0.0000  0.0000
                                            0.0000  0.0000  0.0899  0.0149  0.0603
                                           -0.0609
    41. (0.00007) RY*(27) O   1           s(  0.00%)p 1.00(  0.18%)d61.82( 10.86%)
                                                  f99.99( 88.96%)
    42. (0.00007) RY*(28) O   1           s(  0.00%)p 1.00(  0.18%)d34.38(  6.22%)
                                                  f99.99( 93.60%)
    43. (0.00007) RY*(29) O   1           s(  0.00%)p 1.00(  0.09%)d33.41(  3.15%)
                                                  f99.99( 96.75%)
    44. (0.00007) RY*(30) O   1           s(  0.18%)p 2.77(  0.49%)d38.16(  6.79%)
                                                  f99.99( 92.54%)
    45. (0.00006) RY*(31) O   1           s(  1.04%)p 2.76(  2.86%)d20.07( 20.83%)
                                                  f72.53( 75.27%)
    46. (0.00006) RY*(32) O   1           s(  0.21%)p 5.02(  1.07%)d43.93(  9.39%)
                                                  f99.99( 89.33%)
    47. (0.00006) RY*(33) O   1           s(  1.58%)p 3.85(  6.08%)d 2.69(  4.25%)
                                                  f55.82( 88.10%)
    48. (0.00004) RY*(34) O   1           s(  0.00%)p 1.00(  1.02%)d80.18( 81.39%)
                                                  f17.34( 17.60%)
    49. (0.00005) RY*(35) O   1           s(  0.00%)p 1.00(  2.57%)d35.60( 91.36%)
                                                  f 2.37(  6.07%)
    50. (0.00002) RY*(36) O   1           s(  7.52%)p10.11( 76.02%)d 1.48( 11.10%)
                                                  f 0.71(  5.37%)
    51. (0.00003) RY*(37) O   1           s(  2.45%)p 0.42(  1.03%)d37.51( 91.99%)
                                                  f 1.85(  4.53%)
    52. (0.00003) RY*(38) O   1           s(  7.26%)p 1.12(  8.12%)d 8.18( 59.40%)
                                                  f 3.47( 25.21%)
    53. (0.00001) RY*(39) O   1           s(  6.94%)p 1.40(  9.72%)d11.15( 77.41%)
                                                  f 0.85(  5.93%)
    54. (0.00001) RY*(40) O   1           s(  4.11%)p19.88( 81.65%)d 2.39(  9.83%)
                                                  f 1.08(  4.42%)
    55. (-.00001) RY*(41) O   1           s(  0.00%)p 1.00( 94.47%)d 0.05(  4.32%)
                                                  f 0.01(  1.21%)
    56. (0.00549) RY*( 1) H   2           s(  0.00%)p 1.00( 99.14%)d 0.01(  0.86%)
                                            0.0000  0.0000  0.0000  0.0000  0.0000
                                            0.0000  0.0000  0.0000  0.0000  0.0000
                                            0.9955 -0.0205 -0.0030  0.0000  0.0000
                                           -0.0773  0.0386  0.0239 -0.0232  0.0000
                                            0.0000  0.0000  0.0000
    57. (0.00228) RY*( 2) H   2           s(  1.23%)p79.43( 97.75%)d 0.83(  1.02%)
                                            0.0159  0.0370 -0.0096  0.1029 -0.5482
                                           -0.0557 -0.0574  0.8097 -0.1154 -0.0405
                                            0.0000  0.0000  0.0000 -0.0473  0.0258
                                            0.0000  0.0000  0.0000  0.0000  0.0808
                                           -0.0267 -0.0072 -0.0061
    58. (0.00170) RY*( 3) H   2           s( 78.85%)p 0.25( 20.04%)d 0.01(  1.11%)
[...]
                                            0.0185 -0.0063 -0.0145  0.0029  0.0000
                                            0.0000  0.0000  0.0000
   121. (0.00381) RY*( 3) H   4           s( 11.91%)p 7.36( 87.63%)d 0.04(  0.46%)
                                           -0.0098  0.3164  0.1375  0.0001  0.5436
                                            0.0274 -0.0084 -0.7514  0.1236 -0.0148
                                           -0.0000 -0.0000 -0.0000 -0.0322 -0.0037
                                           -0.0000 -0.0000 -0.0000 -0.0000  0.0217
                                            0.0303 -0.0449  0.0100
   122. (0.00262) RY*( 4) H   4           s( 18.52%)p 4.36( 80.76%)d 0.04(  0.72%)
                                            0.0043  0.4001  0.1574  0.0176 -0.8053
                                            0.0293 -0.0147 -0.3594  0.1690  0.0159
                                           -0.0000 -0.0000 -0.0000  0.0616 -0.0318
                                           -0.0000 -0.0000 -0.0000 -0.0000  0.0020
                                            0.0302  0.0311  0.0225
   123. (0.00041) RY*( 5) H   4           s(  9.27%)p 9.11( 84.41%)d 0.68(  6.32%)
                                           -0.0021 -0.0087 -0.0663  0.2970  0.0149
                                           -0.8302  0.1576  0.0156  0.2960 -0.2047
                                           -0.0000 -0.0000 -0.0000 -0.0145 -0.0567
                                           -0.0000 -0.0000 -0.0000 -0.0000 -0.1988
                                            0.1357  0.0234  0.0361
   124. (0.00031) RY*( 6) H   4           s(  2.35%)p24.61( 57.89%)d16.90( 39.75%)
                                            0.0075 -0.0019 -0.0844  0.1279 -0.0055
                                            0.1994 -0.2041  0.0227 -0.0406 -0.7038
                                           -0.0000 -0.0000 -0.0000 -0.0812 -0.2345
                                           -0.0000 -0.0000 -0.0000 -0.0000  0.2941
                                            0.3875  0.1064  0.2966
   125. (0.00031) RY*( 7) H   4           s(  0.00%)p 1.00( 97.28%)d 0.03(  2.72%)
                                            0.0000  0.0000  0.0000  0.0000  0.0000
                                            0.0000  0.0000  0.0000  0.0000  0.0000
                                           -0.1661  0.9708 -0.0535  0.0000  0.0000
                                            0.0070 -0.0031  0.1577  0.0475  0.0000
                                            0.0000  0.0000  0.0000
   126. (0.00018) RY*( 8) H   4           s(  3.64%)p15.46( 56.20%)d11.05( 40.16%)
                                           -0.0139 -0.0347  0.0855  0.1663  0.0642
                                            0.3553 -0.0875  0.1882  0.6185  0.0778
                                            0.0000  0.0000  0.0000  0.0625 -0.0724
                                            0.0000  0.0000  0.0000  0.0000 -0.3359
                                            0.2394 -0.4680  0.0578
   127. (0.00017) RY*( 9) H   4           s(  0.00%)p 1.00(  9.91%)d 9.09( 90.09%)
                                            0.0000  0.0000  0.0000  0.0000  0.0000
                                            0.0000  0.0000  0.0000  0.0000  0.0000
                                            0.0477 -0.1120  0.2903  0.0000  0.0000
                                           -0.2773 -0.1417  0.8870 -0.1307  0.0000
                                            0.0000  0.0000  0.0000
   128. (0.00016) RY*(10) H   4           s( 18.37%)p 1.27( 23.24%)d 3.18( 58.39%)
                                           -0.0043 -0.0451  0.4261  0.0074 -0.0015
                                           -0.0883 -0.4358  0.0897  0.0951  0.1324
                                           -0.0000 -0.0000 -0.0000 -0.7349  0.0031
                                           -0.0000 -0.0000 -0.0000 -0.0000 -0.0448
                                           -0.0494  0.1948  0.0376
   129. (0.00014) RY*(11) H   4           s(  0.00%)p 1.00(  0.66%)d99.99( 99.34%)
                                            0.0000  0.0000  0.0000  0.0000  0.0000
                                            0.0000  0.0000  0.0000  0.0000  0.0000
                                           -0.0033 -0.0454 -0.0676  0.0000  0.0000
                                            0.8483  0.3442  0.2989 -0.2568  0.0000
                                            0.0000  0.0000  0.0000
   130. (0.00014) RY*(12) H   4           s( 14.48%)p 0.95( 13.72%)d 4.96( 71.80%)
                                           -0.0075 -0.0616  0.3610 -0.1031  0.1100
                                            0.0988  0.1227  0.1130  0.2955  0.0148
                                            0.0000  0.0000  0.0000  0.3851  0.0614
                                            0.0000  0.0000  0.0000  0.0000 -0.0992
                                           -0.0706  0.6589  0.3420
   131. (0.00012) RY*(13) H   4           s(  0.00%)p 1.00( 56.98%)d 0.76( 43.02%)
                                            0.0000  0.0000  0.0000  0.0000  0.0000
                                            0.0000  0.0000  0.0000  0.0000  0.0000
                                            0.0197  0.0293  0.7540  0.0000  0.0000
                                            0.1302  0.3101 -0.0716  0.5586  0.0000
                                            0.0000  0.0000  0.0000
   132. (0.00010) RY*(14) H   4           s( 21.41%)p 0.70( 14.93%)d 2.97( 63.65%)
                                           -0.0101 -0.0873  0.3702 -0.2634  0.0230
                                           -0.1575  0.1490  0.1175  0.2964  0.0111
                                            0.0000  0.0000  0.0000  0.0866 -0.0449
                                            0.0000  0.0000  0.0000  0.0000  0.7044
                                            0.1016 -0.1935 -0.2883
   133. (0.00011) RY*(15) H   4           s(  8.27%)p 4.15( 34.32%)d 6.94( 57.41%)
                                            0.0037 -0.0061  0.2032  0.2035 -0.0309
                                            0.1743  0.5242  0.0136 -0.1130 -0.1553
                                            0.0000  0.0000  0.0000 -0.2660  0.6340
                                            0.0000  0.0000  0.0000  0.0000 -0.0555
                                            0.3002  0.0191 -0.0879
   134. (0.00006) RY*(16) H   4           s(  0.00%)p 1.00(  0.12%)d99.99( 99.88%)
   135. (0.00006) RY*(17) H   4           s( 60.63%)p 0.32( 19.38%)d 0.33( 19.99%)
   136. (0.00006) RY*(18) H   4           s(  1.81%)p 0.84(  1.52%)d53.55( 96.67%)
   137. (0.00004) RY*(19) H   4           s( 33.49%)p 0.67( 22.55%)d 1.31( 43.96%)
   138. (0.00003) RY*(20) H   4           s(  0.00%)p 1.00( 35.11%)d 1.85( 64.89%)
   139. (0.00003) RY*(21) H   4           s( 11.41%)p 3.14( 35.79%)d 4.63( 52.80%)
   140. (0.00002) RY*(22) H   4           s( 11.98%)p 3.40( 40.72%)d 3.95( 47.30%)
   141. (0.02115) BD*( 1) O   1 - H   2  
                ( 27.31%)   0.5226* O   1 s( 20.52%)p 3.85( 79.05%)d 0.02(  0.42%)
                                                  f 0.00(  0.01%)
                                           -0.0002 -0.4529  0.0027  0.0017  0.0018
                                           -0.8852  0.0290 -0.0099  0.0025 -0.0755
                                            0.0175 -0.0010  0.0027 -0.0000 -0.0000
                                           -0.0000 -0.0000  0.0212 -0.0027 -0.0002
                                           -0.0000 -0.0000 -0.0000 -0.0000 -0.0000
                                           -0.0000 -0.0503  0.0032  0.0034  0.0346
                                           -0.0028 -0.0002 -0.0000 -0.0000  0.0098
                                            0.0000 -0.0002  0.0003 -0.0000 -0.0000
                                           -0.0000 -0.0000 -0.0030 -0.0032 -0.0025
                                            0.0005
                ( 72.69%)  -0.8526* H   2 s( 99.90%)p 0.00(  0.10%)d 0.00(  0.00%)
                                           -0.9995 -0.0029  0.0002 -0.0002 -0.0153
                                           -0.0247  0.0057  0.0086  0.0041  0.0026
                                           -0.0000 -0.0000 -0.0000  0.0008  0.0018
                                           -0.0000 -0.0000 -0.0000 -0.0000  0.0030
                                            0.0007  0.0001 -0.0005
   142. (0.03185) BD*( 1) O   1 - H   4  
                ( 24.78%)   0.4978* O   1 s( 32.75%)p 2.04( 66.83%)d 0.01(  0.40%)
                                                  f 0.00(  0.01%)
                                            0.0003  0.5722 -0.0109 -0.0030 -0.0023
                                           -0.2229  0.0211 -0.0013  0.0011 -0.7857
                                            0.0301 -0.0062  0.0012 -0.0000 -0.0000
                                           -0.0000 -0.0000  0.0007  0.0035  0.0015
                                           -0.0000 -0.0000 -0.0000 -0.0000 -0.0000
                                           -0.0000 -0.0522  0.0008  0.0012 -0.0361
                                            0.0002 -0.0014 -0.0000 -0.0000  0.0018
                                            0.0002  0.0081  0.0011 -0.0000 -0.0000
                                           -0.0000 -0.0000  0.0028  0.0026  0.0016
                                            0.0036
                ( 75.22%)  -0.8673* H   4 s( 99.91%)p 0.00(  0.09%)d 0.00(  0.01%)
                                            0.9994  0.0161  0.0001  0.0004  0.0145
                                            0.0022  0.0011  0.0079  0.0229  0.0088
                                           -0.0000 -0.0000 -0.0000 -0.0021  0.0000
                                           -0.0000 -0.0000 -0.0000 -0.0000  0.0048
                                           -0.0035  0.0017 -0.0039


 NHO Directionality and "Bond Bending" (deviations from line of nuclear centers)

         [Thresholds for printing:  angular deviation  >  1.0 degree]
                                    hybrid p-character > 25.0%
                                    orbital occupancy  >  0.10e

                                Line of Centers        Hybrid 1              Hybrid 2
                                ---------------  -------------------   ------------------
                NBO               Theta   Phi    Theta   Phi    Dev    Theta   Phi    Dev
 ========================================================================================
     1. BD (   1) O   1 - H   2    90.0    0.0    90.0    3.7   3.7      --     --    --
     2. BD (   1) O   1 - H   4    90.0  258.3    90.0  255.1   3.2      --     --    --
     9. LP (   1) O   1             --     --     90.0  123.4   --       --     --    --
    10. LP (   2) O   1             --     --      0.0    0.0   --       --     --    --
    12. LP (   2)Cl   3             --     --      0.0    0.0   --       --     --    --
    13. LP (   3)Cl   3             --     --     90.0  347.8   --       --     --    --
    14. LP (   4)Cl   3             --     --     90.0   77.7   --       --     --    --


 Natural Bond Orbitals (Summary):

           NBO                  Occupancy  
 -----------------------------------------------
 Molecular unit  1  (H2O)
     1. BD (   1) O   1 - H   2          1.96691
     2. BD (   1) O   1 - H   4          1.97394
     3. CR (   1) O   1                  1.99960
     9. LP (   1) O   1                  1.97002
    10. LP (   2) O   1                  1.96067
    15. RY*(   1) O   1                  0.01789
    16. RY*(   2) O   1                  0.01420
    17. RY*(   3) O   1                  0.00638
    18. RY*(   4) O   1                  0.00597
    19. RY*(   5) O   1                  0.00590
    20. RY*(   6) O   1                  0.00583
    21. RY*(   7) O   1                  0.00557
    22. RY*(   8) O   1                  0.00248
    23. RY*(   9) O   1                  0.00207
    24. RY*(  10) O   1                  0.00072
    25. RY*(  11) O   1                  0.00055
    26. RY*(  12) O   1                  0.00045
    27. RY*(  13) O   1                  0.00043
    28. RY*(  14) O   1                  0.00043
    29. RY*(  15) O   1                  0.00044
    30. RY*(  16) O   1                  0.00041
    31. RY*(  17) O   1                  0.00040
    32. RY*(  18) O   1                  0.00038
    33. RY*(  19) O   1                  0.00038
    34. RY*(  20) O   1                  0.00033
    35. RY*(  21) O   1                  0.00032
    36. RY*(  22) O   1                  0.00030
    37. RY*(  23) O   1                  0.00026
    38. RY*(  24) O   1                  0.00020
    39. RY*(  25) O   1                  0.00019
    40. RY*(  26) O   1                  0.00013
    41. RY*(  27) O   1                  0.00007
    42. RY*(  28) O   1                  0.00007
    43. RY*(  29) O   1                  0.00007
    44. RY*(  30) O   1                  0.00007
    45. RY*(  31) O   1                  0.00006
    46. RY*(  32) O   1                  0.00006
    47. RY*(  33) O   1                  0.00006
    48. RY*(  34) O   1                  0.00004
    49. RY*(  35) O   1                  0.00005
    50. RY*(  36) O   1                  0.00002
    51. RY*(  37) O   1                  0.00003
    52. RY*(  38) O   1                  0.00003
    53. RY*(  39) O   1                  0.00001
    54. RY*(  40) O   1                  0.00001
    55. RY*(  41) O   1                 -0.00001
    56. RY*(   1) H   2                  0.00549
    57. RY*(   2) H   2                  0.00228
    58. RY*(   3) H   2                  0.00170
    59. RY*(   4) H   2                  0.00070
    60. RY*(   5) H   2                  0.00030
    61. RY*(   6) H   2                  0.00021
    62. RY*(   7) H   2                  0.00016
    63. RY*(   8) H   2                  0.00010
    64. RY*(   9) H   2                  0.00011
    65. RY*(  10) H   2                  0.00010
    66. RY*(  11) H   2                  0.00007
    67. RY*(  12) H   2                  0.00008
    68. RY*(  13) H   2                  0.00007
    69. RY*(  14) H   2                  0.00003
    70. RY*(  15) H   2                  0.00003
    71. RY*(  16) H   2                  0.00004
    72. RY*(  17) H   2                  0.00003
    73. RY*(  18) H   2                  0.00002
    74. RY*(  19) H   2                  0.00002
    75. RY*(  20) H   2                  0.00001
    76. RY*(  21) H   2                  0.00001
    77. RY*(  22) H   2                  0.00001
   119. RY*(   1) H   4                  0.00822
   120. RY*(   2) H   4                  0.00383
   121. RY*(   3) H   4                  0.00381
   122. RY*(   4) H   4                  0.00262
   123. RY*(   5) H   4                  0.00041
   124. RY*(   6) H   4                  0.00031
   125. RY*(   7) H   4                  0.00031
   126. RY*(   8) H   4                  0.00018
   127. RY*(   9) H   4                  0.00017
   128. RY*(  10) H   4                  0.00016
   129. RY*(  11) H   4                  0.00014
   130. RY*(  12) H   4                  0.00014
   131. RY*(  13) H   4                  0.00012
   132. RY*(  14) H   4                  0.00010
   133. RY*(  15) H   4                  0.00011
   134. RY*(  16) H   4                  0.00006
   135. RY*(  17) H   4                  0.00006
   136. RY*(  18) H   4                  0.00006
   137. RY*(  19) H   4                  0.00004
   138. RY*(  20) H   4                  0.00003
   139. RY*(  21) H   4                  0.00003
   140. RY*(  22) H   4                  0.00002
   141. BD*(   1) O   1 - H   2          0.02115
   142. BD*(   1) O   1 - H   4          0.03185
       -------------------------------
              Total Lewis    9.87115  ( 98.4175%)
        Valence non-Lewis    0.05300  (  0.5284%)
        Rydberg non-Lewis    0.10573  (  1.0541%)
       -------------------------------
            Total unit  1   10.02987  (100.0000%)
           Charge unit  1   -0.02987

 Molecular unit  2  (Cl)
     4. CR (   1)Cl   3                  2.00001
     5. CR (   2)Cl   3                  2.00000
     6. CR (   3)Cl   3                  2.00003
     7. CR (   4)Cl   3                  2.00002
     8. CR (   5)Cl   3                  2.00003
    11. LP (   1)Cl   3                  1.98020
    12. LP (   2)Cl   3                  1.95277
    13. LP (   3)Cl   3                  1.95255
    14. LP (   4)Cl   3                  1.93478
    78. RY*(   1)Cl   3                  0.01837
    79. RY*(   2)Cl   3                  0.01836
    80. RY*(   3)Cl   3                  0.01829
    81. RY*(   4)Cl   3                  0.01829
    82. RY*(   5)Cl   3                  0.01802
    83. RY*(   6)Cl   3                  0.01351
    84. RY*(   7)Cl   3                  0.01348
    85. RY*(   8)Cl   3                  0.01176
    86. RY*(   9)Cl   3                  0.00291
    87. RY*(  10)Cl   3                  0.00130
    88. RY*(  11)Cl   3                  0.00129
    89. RY*(  12)Cl   3                  0.00130
    90. RY*(  13)Cl   3                  0.00129
    91. RY*(  14)Cl   3                  0.00129
    92. RY*(  15)Cl   3                  0.00128
    93. RY*(  16)Cl   3                  0.00126
    94. RY*(  17)Cl   3                  0.00100
    95. RY*(  18)Cl   3                  0.00100
    96. RY*(  19)Cl   3                  0.00079
    97. RY*(  20)Cl   3                  0.00078
    98. RY*(  21)Cl   3                  0.00076
    99. RY*(  22)Cl   3                  0.00056
   100. RY*(  23)Cl   3                  0.00055
   101. RY*(  24)Cl   3                  0.00053
   102. RY*(  25)Cl   3                  0.00022
   103. RY*(  26)Cl   3                  0.00014
   104. RY*(  27)Cl   3                  0.00014
   105. RY*(  28)Cl   3                  0.00015
   106. RY*(  29)Cl   3                  0.00014
   107. RY*(  30)Cl   3                  0.00014
   108. RY*(  31)Cl   3                  0.00014
   109. RY*(  32)Cl   3                  0.00014
   110. RY*(  33)Cl   3                  0.00010
   111. RY*(  34)Cl   3                  0.00010
   112. RY*(  35)Cl   3                  0.00009
   113. RY*(  36)Cl   3                  0.00009
   114. RY*(  37)Cl   3                  0.00009
   115. RY*(  38)Cl   3                  0.00006
   116. RY*(  39)Cl   3                  0.00002
   117. RY*(  40)Cl   3                  0.00001
   118. RY*(  41)Cl   3                  0.00001
       -------------------------------
              Total Lewis   17.82038  ( 99.1667%)
        Valence non-Lewis    0.00000  (  0.0000%)
        Rydberg non-Lewis    0.14975  (  0.8333%)
       -------------------------------
            Total unit  2   17.97013  (100.0000%)
           Charge unit  2   -0.97013
 Leave Link  607 at Fri Oct  8 13:07:26 2021, MaxMem= 16106127360 cpu:              69.7 elap:               2.5
 (Enter /sw/contrib/gaussian/g16/B01/g16/l9999.exe)
 1\1\GINC-N2218\SP\RMP2-FC\Aug-CC-pVTZ\Cl1H2O1(1-)\CGAVINH\08-Oct-2021\
 0\\#p pop=NBO SP NoSymm mp2/aug-cc-pvtz density=current\\title\\-1,1\O
 \X,1,10.\H,1,0.96061628,2,90.\Cl,1,3.08954942,2,90.,3,101.71720655,0\H
 ,1,0.85,2,90.,3,101.71720655,0\\Version=ES64L-G16RevB.01\HF=-535.63639
 33\MP2=-536.1129379\RMSD=5.466e-09\Dipole=0.8367024,1.1146501,0.\Quadr
 upole=10.2757164,-19.8614567,9.5857403,-5.818465,0.,0.\PG=CS [SG(Cl1H2
 O1)]\\@


 THE REASON MAN'S BEST FRIEND IS A DOG IS BECAUSE
 HE WAGS HIS TAIL INSTEAD OF HIS TONGUE.
 Job cpu time:       0 days  0 hours  3 minutes 10.0 seconds.
 Elapsed time:       0 days  0 hours  0 minutes  8.9 seconds.
 File lengths (MBytes):  RWF=     10 Int=      0 D2E=      0 Chk=      8 Scr=      1
 Normal termination of Gaussian 16 at Fri Oct  8 13:07:26 2021.
