 Entering Gaussian System, Link 0=g16
 Input=clhod_rOH_095_sp.gjf
 Output=clhod_rOH_095_sp.log
 Initial command:
 /sw/contrib/gaussian/g16/B01/g16/l1.exe "/scr/Gau-11222.inp" -scrdir="/scr/"
 Entering Link 1 = /sw/contrib/gaussian/g16/B01/g16/l1.exe PID=     11223.
  
 Copyright (c) 1988-2017, Gaussian, Inc.  All Rights Reserved.
  
 This is part of the Gaussian(R) 16 program.  It is based on
 the Gaussian(R) 09 system (copyright 2009, Gaussian, Inc.),
 the Gaussian(R) 03 system (copyright 2003, Gaussian, Inc.),
 the Gaussian(R) 98 system (copyright 1998, Gaussian, Inc.),
 the Gaussian(R) 94 system (copyright 1995, Gaussian, Inc.),
 the Gaussian 92(TM) system (copyright 1992, Gaussian, Inc.),
 the Gaussian 90(TM) system (copyright 1990, Gaussian, Inc.),
 the Gaussian 88(TM) system (copyright 1988, Gaussian, Inc.),
 the Gaussian 86(TM) system (copyright 1986, Carnegie Mellon
 University), and the Gaussian 82(TM) system (copyright 1983,
 Carnegie Mellon University). Gaussian is a federally registered
 trademark of Gaussian, Inc.
  
 This software contains proprietary and confidential information,
 including trade secrets, belonging to Gaussian, Inc.
  
 This software is provided under written license and may be
 used, copied, transmitted, or stored only in accord with that
 written license.
  
 The following legend is applicable only to US Government
 contracts under FAR:
  
                    RESTRICTED RIGHTS LEGEND
  
 Use, reproduction and disclosure by the US Government is
 subject to restrictions as set forth in subparagraphs (a)
 and (c) of the Commercial Computer Software - Restricted
 Rights clause in FAR 52.227-19.
  
 Gaussian, Inc.
 340 Quinnipiac St., Bldg. 40, Wallingford CT 06492
  
  
 ---------------------------------------------------------------
 Warning -- This program may not be used in any manner that
 competes with the business of Gaussian, Inc. or will provide
 assistance to any competitor of Gaussian, Inc.  The licensee
 of this program is prohibited from giving any competitor of
 Gaussian, Inc. access to this program.  By using this program,
 the user acknowledges that Gaussian, Inc. is engaged in the
 business of creating and licensing software in the field of
 computational chemistry and represents and warrants to the
 licensee that it is not a competitor of Gaussian, Inc. and that
 it will not use this program in any manner prohibited above.
 ---------------------------------------------------------------
  

 Cite this work as:
 Gaussian 16, Revision B.01,
 M. J. Frisch, G. W. Trucks, H. B. Schlegel, G. E. Scuseria, 
 M. A. Robb, J. R. Cheeseman, G. Scalmani, V. Barone, 
 G. A. Petersson, H. Nakatsuji, X. Li, M. Caricato, A. V. Marenich, 
 J. Bloino, B. G. Janesko, R. Gomperts, B. Mennucci, H. P. Hratchian, 
 J. V. Ortiz, A. F. Izmaylov, J. L. Sonnenberg, D. Williams-Young, 
 F. Ding, F. Lipparini, F. Egidi, J. Goings, B. Peng, A. Petrone, 
 T. Henderson, D. Ranasinghe, V. G. Zakrzewski, J. Gao, N. Rega, 
 G. Zheng, W. Liang, M. Hada, M. Ehara, K. Toyota, R. Fukuda, 
 J. Hasegawa, M. Ishida, T. Nakajima, Y. Honda, O. Kitao, H. Nakai, 
 T. Vreven, K. Throssell, J. A. Montgomery, Jr., J. E. Peralta, 
 F. Ogliaro, M. J. Bearpark, J. J. Heyd, E. N. Brothers, K. N. Kudin, 
 V. N. Staroverov, T. A. Keith, R. Kobayashi, J. Normand, 
 K. Raghavachari, A. P. Rendell, J. C. Burant, S. S. Iyengar, 
 J. Tomasi, M. Cossi, J. M. Millam, M. Klene, C. Adamo, R. Cammi, 
 J. W. Ochterski, R. L. Martin, K. Morokuma, O. Farkas, 
 J. B. Foresman, and D. J. Fox, Gaussian, Inc., Wallingford CT, 2016.
 
 ******************************************
 Gaussian 16:  ES64L-G16RevB.01 20-Dec-2017
                 8-Oct-2021 
 ******************************************
 %nproc=28
 Will use up to   28 processors via shared memory.
 %mem=120GB
 %chk=/gscratch/ilahie/mccoygrp/coire_hocl/rOH_s_oop_0/clhod/clhod_095_sp.chk
 ----------------------------------------------------
 #p pop=NBO SP NoSymm mp2/aug-cc-pvtz density=current
 ----------------------------------------------------
 1/30=1,38=1,172=1/1;
 2/12=2,15=1,17=6,18=5,40=1/2;
 3/5=16,6=1,7=10,11=9,25=1,30=1,71=1/1,2,3;
 4//1;
 5/5=2,38=5/2;
 8/6=4,10=1/1;
 9/15=1,16=-3/6;
 10/5=1,13=10,31=1/2;
 6/7=2,8=2,9=2,10=2,22=-1,40=1/1,7;
 99/5=1,9=1/99;
 Leave Link    1 at Fri Oct  8 13:07:37 2021, MaxMem= 16106127360 cpu:               2.6 elap:               0.1
 (Enter /sw/contrib/gaussian/g16/B01/g16/l101.exe)
 -----
 title
 -----
 Symbolic Z-matrix:
 Charge = -1 Multiplicity = 1
 O
 X                    1     10. 
 H(iso=2)             1    r1       2     90. 
 Cl                   1    r2       2     90.      3    a1       0
 H                    1    r3       2    oop      3    a1       0
       Variables:
  r1                    0.96062                  
  r2                    3.08955                  
  r3                    0.95                     
  a1                  101.71721                  
  OOP                  90.                       
 
 ITRead=  0  0  0  0
 MicOpt= -1 -1 -1 -1
 NAtoms=      4 NQM=        4 NQMF=       0 NMMI=      0 NMMIF=      0
                NMic=       0 NMicF=      0.
                    Isotopes and Nuclear Properties:
 (Nuclear quadrupole moments (NQMom) in fm**2, nuclear magnetic moments (NMagM)
  in nuclear magnetons)

  Atom         1           2           3           4
 IAtWgt=          16           2          35           1
 AtmWgt=  15.9949146   2.0141018  34.9688527   1.0078250
 NucSpn=           0           2           3           1
 AtZEff=  -0.0000000  -0.0000000  -0.0000000  -0.0000000
 NQMom=    0.0000000   0.2860000  -8.1650000   0.0000000
 NMagM=    0.0000000   0.8574380   0.8218740   2.7928460
 AtZNuc=   8.0000000   1.0000000  17.0000000   1.0000000
 Leave Link  101 at Fri Oct  8 13:07:37 2021, MaxMem= 16106127360 cpu:               2.2 elap:               0.1
 (Enter /sw/contrib/gaussian/g16/B01/g16/l202.exe)
                          Input orientation:                          
 ---------------------------------------------------------------------
 Center     Atomic      Atomic             Coordinates (Angstroms)
 Number     Number       Type             X           Y           Z
 ---------------------------------------------------------------------
      1          8           0        0.000000    0.000000    0.000000
      2          1           0        0.960616    0.000000    0.000000
      3         17           0       -0.627430   -3.025169    0.000000
      4          1           0       -0.192927   -0.930204    0.000000
 ---------------------------------------------------------------------
                    Distance matrix (angstroms):
                    1          2          3          4
     1  O    0.000000
     2  H    0.960616   0.000000
     3  Cl   3.089549   3.416656   0.000000
     4  H    0.950000   1.481871   2.139549   0.000000
 Symmetry turned off by external request.
 Stoichiometry    ClH2O(1-)
 Framework group  CS[SG(ClH2O)]
 Deg. of freedom     5
 Full point group                 CS      NOp   2
 Rotational constants (GHZ):         323.3144802           4.3397823           4.2823019
 Leave Link  202 at Fri Oct  8 13:07:37 2021, MaxMem= 16106127360 cpu:               0.2 elap:               0.0
 (Enter /sw/contrib/gaussian/g16/B01/g16/l301.exe)
 Standard basis: Aug-CC-pVTZ (5D, 7F)
 Ernie: Thresh=  0.10000D-02 Tol=  0.10000D-05 Strict=F.
 Ernie:  16 primitive shells out of 116 were deleted.
   142 basis functions,   240 primitive gaussians,   164 cartesian basis functions
    14 alpha electrons       14 beta electrons
       nuclear repulsion energy        39.3519720593 Hartrees.
 IExCor=    0 DFT=F Ex=HF Corr=None ExCW=0 ScaHFX=  1.000000
 ScaDFX=  1.000000  1.000000  1.000000  1.000000 ScalE2=  1.000000  1.000000
 IRadAn=      5 IRanWt=     -1 IRanGd=            0 ICorTp=0 IEmpDi=  4
 NAtoms=    4 NActive=    4 NUniq=    4 SFac= 1.00D+00 NAtFMM=   60 NAOKFM=F Big=F
 Integral buffers will be    131072 words long.
 Raffenetti 1 integral format.
 Two-electron integral symmetry is turned off.
 Leave Link  301 at Fri Oct  8 13:07:37 2021, MaxMem= 16106127360 cpu:               1.2 elap:               0.1
 (Enter /sw/contrib/gaussian/g16/B01/g16/l302.exe)
 NPDir=0 NMtPBC=     1 NCelOv=     1 NCel=       1 NClECP=     1 NCelD=      1
         NCelK=      1 NCelE2=     1 NClLst=     1 CellRange=     0.0.
 One-electron integrals computed using PRISM.
 NBasis=   142 RedAO= T EigKep=  2.65D-04  NBF=   142
 NBsUse=   142 1.00D-06 EigRej= -1.00D+00 NBFU=   142
 Leave Link  302 at Fri Oct  8 13:07:37 2021, MaxMem= 16106127360 cpu:               4.7 elap:               0.2
 (Enter /sw/contrib/gaussian/g16/B01/g16/l303.exe)
 DipDrv:  MaxL=1.
 Leave Link  303 at Fri Oct  8 13:07:37 2021, MaxMem= 16106127360 cpu:               1.5 elap:               0.1
 (Enter /sw/contrib/gaussian/g16/B01/g16/l401.exe)
 ExpMin= 2.53D-02 ExpMax= 4.56D+05 ExpMxC= 1.44D+03 IAcc=3 IRadAn=         5 AccDes= 0.00D+00
 Harris functional with IExCor=  205 and IRadAn=       5 diagonalized for initial guess.
 HarFok:  IExCor=  205 AccDes= 0.00D+00 IRadAn=         5 IDoV= 1 UseB2=F ITyADJ=14
 ICtDFT=  3500011 ScaDFX=  1.000000  1.000000  1.000000  1.000000
 FoFCou: FMM=F IPFlag=           0 FMFlag=      100000 FMFlg1=           0
         NFxFlg=           0 DoJE=T BraDBF=F KetDBF=T FulRan=T
         wScrn=  0.000000 ICntrl=       500 IOpCl=  0 I1Cent=   200000004 NGrid=           0
         NMat0=    1 NMatS0=      1 NMatT0=    0 NMatD0=    1 NMtDS0=    0 NMtDT0=    0
 Symmetry not used in FoFCou.
 Harris En= -535.446803393522    
 JPrj=0 DoOrth=F DoCkMO=F.
 Leave Link  401 at Fri Oct  8 13:07:38 2021, MaxMem= 16106127360 cpu:               7.3 elap:               0.3
 (Enter /sw/contrib/gaussian/g16/B01/g16/l502.exe)
 Keep R1 ints in memory in canonical form, NReq=65346335.
 FoFCou: FMM=F IPFlag=           0 FMFlag=           0 FMFlg1=           0
         NFxFlg=           0 DoJE=F BraDBF=F KetDBF=F FulRan=T
         wScrn=  0.000000 ICntrl=       600 IOpCl=  0 I1Cent=           0 NGrid=           0
         NMat0=    1 NMatS0=  10153 NMatT0=    0 NMatD0=    1 NMtDS0=    0 NMtDT0=    0
 Symmetry not used in FoFCou.
 Two-electron integral symmetry not used.
 Closed shell SCF:
 Using DIIS extrapolation, IDIIS=  1040.
 NGot= 16106127360 LenX= 16054521101 LenY= 16054493764
 Requested convergence on RMS density matrix=1.00D-08 within 128 cycles.
 Requested convergence on MAX density matrix=1.00D-06.
 Requested convergence on             energy=1.00D-06.
 No special actions if energy rises.

 Cycle   1  Pass 1  IDiag  1:
 E= -535.512191830168    
 DIIS: error= 4.78D-02 at cycle   1 NSaved=   1.
 NSaved= 1 IEnMin= 1 EnMin= -535.512191830168     IErMin= 1 ErrMin= 4.78D-02
 ErrMax= 4.78D-02  0.00D+00 EMaxC= 1.00D-01 BMatC= 3.47D-01 BMatP= 3.47D-01
 IDIUse=3 WtCom= 5.22D-01 WtEn= 4.78D-01
 Coeff-Com:  0.100D+01
 Coeff-En:   0.100D+01
 Coeff:      0.100D+01
 Gap=     0.379 Goal=   None    Shift=    0.000
 GapD=    0.379 DampG=1.000 DampE=0.500 DampFc=0.5000 IDamp=-1.
 Damping current iteration by 5.00D-01
 RMSDP=2.26D-03 MaxDP=5.79D-02              OVMax= 1.33D-01

 Cycle   2  Pass 1  IDiag  1:
 E= -535.586114804333     Delta-E=       -0.073922974165 Rises=F Damp=T
 DIIS: error= 1.59D-02 at cycle   2 NSaved=   2.
 NSaved= 2 IEnMin= 2 EnMin= -535.586114804333     IErMin= 2 ErrMin= 1.59D-02
 ErrMax= 1.59D-02  0.00D+00 EMaxC= 1.00D-01 BMatC= 6.34D-02 BMatP= 3.47D-01
 IDIUse=3 WtCom= 8.41D-01 WtEn= 1.59D-01
 Coeff-Com: -0.481D+00 0.148D+01
 Coeff-En:   0.000D+00 0.100D+01
 Coeff:     -0.405D+00 0.140D+01
 Gap=     0.313 Goal=   None    Shift=    0.000
 RMSDP=9.36D-04 MaxDP=3.36D-02 DE=-7.39D-02 OVMax= 6.61D-02

 Cycle   3  Pass 1  IDiag  1:
 E= -535.649697114981     Delta-E=       -0.063582310648 Rises=F Damp=F
 DIIS: error= 5.55D-03 at cycle   3 NSaved=   3.
 NSaved= 3 IEnMin= 3 EnMin= -535.649697114981     IErMin= 3 ErrMin= 5.55D-03
 ErrMax= 5.55D-03  0.00D+00 EMaxC= 1.00D-01 BMatC= 2.20D-03 BMatP= 6.34D-02
 IDIUse=3 WtCom= 9.44D-01 WtEn= 5.55D-02
 Coeff-Com: -0.145D+00 0.262D+00 0.883D+00
 Coeff-En:   0.000D+00 0.000D+00 0.100D+01
 Coeff:     -0.137D+00 0.248D+00 0.889D+00
 Gap=     0.317 Goal=   None    Shift=    0.000
 RMSDP=1.61D-04 MaxDP=3.98D-03 DE=-6.36D-02 OVMax= 1.09D-02

 Cycle   4  Pass 1  IDiag  1:
 E= -535.651117963247     Delta-E=       -0.001420848266 Rises=F Damp=F
 DIIS: error= 5.67D-04 at cycle   4 NSaved=   4.
 NSaved= 4 IEnMin= 4 EnMin= -535.651117963247     IErMin= 4 ErrMin= 5.67D-04
 ErrMax= 5.67D-04  0.00D+00 EMaxC= 1.00D-01 BMatC= 4.56D-05 BMatP= 2.20D-03
 IDIUse=3 WtCom= 9.94D-01 WtEn= 5.67D-03
 Coeff-Com: -0.213D-01 0.361D-01 0.177D+00 0.808D+00
 Coeff-En:   0.000D+00 0.000D+00 0.000D+00 0.100D+01
 Coeff:     -0.212D-01 0.359D-01 0.176D+00 0.809D+00
 Gap=     0.312 Goal=   None    Shift=    0.000
 RMSDP=3.79D-05 MaxDP=9.04D-04 DE=-1.42D-03 OVMax= 2.24D-03

 Cycle   5  Pass 1  IDiag  1:
 E= -535.651165776707     Delta-E=       -0.000047813459 Rises=F Damp=F
 DIIS: error= 1.80D-04 at cycle   5 NSaved=   5.
 NSaved= 5 IEnMin= 5 EnMin= -535.651165776707     IErMin= 5 ErrMin= 1.80D-04
 ErrMax= 1.80D-04  0.00D+00 EMaxC= 1.00D-01 BMatC= 3.57D-06 BMatP= 4.56D-05
 IDIUse=3 WtCom= 9.98D-01 WtEn= 1.80D-03
 Coeff-Com:  0.143D-01-0.273D-01-0.891D-01-0.360D-01 0.114D+01
 Coeff-En:   0.000D+00 0.000D+00 0.000D+00 0.000D+00 0.100D+01
 Coeff:      0.143D-01-0.273D-01-0.890D-01-0.359D-01 0.114D+01
 Gap=     0.312 Goal=   None    Shift=    0.000
 RMSDP=1.99D-05 MaxDP=5.00D-04 DE=-4.78D-05 OVMax= 1.48D-03

 Cycle   6  Pass 1  IDiag  1:
 E= -535.651174669316     Delta-E=       -0.000008892609 Rises=F Damp=F
 DIIS: error= 5.08D-05 at cycle   6 NSaved=   6.
 NSaved= 6 IEnMin= 6 EnMin= -535.651174669316     IErMin= 6 ErrMin= 5.08D-05
 ErrMax= 5.08D-05  0.00D+00 EMaxC= 1.00D-01 BMatC= 2.23D-07 BMatP= 3.57D-06
 IDIUse=1 WtCom= 1.00D+00 WtEn= 0.00D+00
 Coeff-Com: -0.184D-02 0.406D-02 0.104D-01-0.168D-01-0.350D+00 0.135D+01
 Coeff:     -0.184D-02 0.406D-02 0.104D-01-0.168D-01-0.350D+00 0.135D+01
 Gap=     0.312 Goal=   None    Shift=    0.000
 RMSDP=6.63D-06 MaxDP=1.34D-04 DE=-8.89D-06 OVMax= 4.86D-04

 Cycle   7  Pass 1  IDiag  1:
 E= -535.651175444397     Delta-E=       -0.000000775081 Rises=F Damp=F
 DIIS: error= 9.97D-06 at cycle   7 NSaved=   7.
 NSaved= 7 IEnMin= 7 EnMin= -535.651175444397     IErMin= 7 ErrMin= 9.97D-06
 ErrMax= 9.97D-06  0.00D+00 EMaxC= 1.00D-01 BMatC= 6.86D-09 BMatP= 2.23D-07
 IDIUse=1 WtCom= 1.00D+00 WtEn= 0.00D+00
 Coeff-Com:  0.737D-06-0.178D-03-0.310D-04 0.528D-02 0.662D-01-0.409D+00
 Coeff-Com:  0.134D+01
 Coeff:      0.737D-06-0.178D-03-0.310D-04 0.528D-02 0.662D-01-0.409D+00
 Coeff:      0.134D+01
 Gap=     0.312 Goal=   None    Shift=    0.000
 RMSDP=1.14D-06 MaxDP=3.05D-05 DE=-7.75D-07 OVMax= 7.59D-05

 Cycle   8  Pass 1  IDiag  1:
 E= -535.651175466399     Delta-E=       -0.000000022002 Rises=F Damp=F
 DIIS: error= 1.69D-06 at cycle   8 NSaved=   8.
 NSaved= 8 IEnMin= 8 EnMin= -535.651175466399     IErMin= 8 ErrMin= 1.69D-06
 ErrMax= 1.69D-06  0.00D+00 EMaxC= 1.00D-01 BMatC= 2.42D-10 BMatP= 6.86D-09
 IDIUse=1 WtCom= 1.00D+00 WtEn= 0.00D+00
 Coeff-Com:  0.531D-04-0.117D-03-0.337D-03 0.291D-03 0.107D-01-0.368D-01
 Coeff-Com: -0.314D-01 0.106D+01
 Coeff:      0.531D-04-0.117D-03-0.337D-03 0.291D-03 0.107D-01-0.368D-01
 Coeff:     -0.314D-01 0.106D+01
 Gap=     0.312 Goal=   None    Shift=    0.000
 RMSDP=1.72D-07 MaxDP=4.33D-06 DE=-2.20D-08 OVMax= 1.11D-05

 Cycle   9  Pass 1  IDiag  1:
 E= -535.651175466944     Delta-E=       -0.000000000545 Rises=F Damp=F
 DIIS: error= 5.16D-07 at cycle   9 NSaved=   9.
 NSaved= 9 IEnMin= 9 EnMin= -535.651175466944     IErMin= 9 ErrMin= 5.16D-07
 ErrMax= 5.16D-07  0.00D+00 EMaxC= 1.00D-01 BMatC= 2.20D-11 BMatP= 2.42D-10
 IDIUse=1 WtCom= 1.00D+00 WtEn= 0.00D+00
 Coeff-Com: -0.104D-04 0.367D-04 0.605D-04-0.455D-03-0.713D-02 0.404D-01
 Coeff-Com: -0.115D+00-0.121D+00 0.120D+01
 Coeff:     -0.104D-04 0.367D-04 0.605D-04-0.455D-03-0.713D-02 0.404D-01
 Coeff:     -0.115D+00-0.121D+00 0.120D+01
 Gap=     0.312 Goal=   None    Shift=    0.000
 RMSDP=4.94D-08 MaxDP=9.99D-07 DE=-5.45D-10 OVMax= 3.97D-06

 Cycle  10  Pass 1  IDiag  1:
 E= -535.651175467002     Delta-E=       -0.000000000057 Rises=F Damp=F
 DIIS: error= 7.88D-08 at cycle  10 NSaved=  10.
 NSaved=10 IEnMin=10 EnMin= -535.651175467002     IErMin=10 ErrMin= 7.88D-08
 ErrMax= 7.88D-08  0.00D+00 EMaxC= 1.00D-01 BMatC= 9.36D-13 BMatP= 2.20D-11
 IDIUse=1 WtCom= 1.00D+00 WtEn= 0.00D+00
 Coeff-Com: -0.139D-05 0.222D-05 0.801D-05 0.135D-04 0.209D-04-0.114D-02
 Coeff-Com:  0.106D-01-0.425D-01-0.791D-01 0.111D+01
 Coeff:     -0.139D-05 0.222D-05 0.801D-05 0.135D-04 0.209D-04-0.114D-02
 Coeff:      0.106D-01-0.425D-01-0.791D-01 0.111D+01
 Gap=     0.312 Goal=   None    Shift=    0.000
 RMSDP=1.37D-08 MaxDP=3.92D-07 DE=-5.73D-11 OVMax= 7.68D-07

 Cycle  11  Pass 1  IDiag  1:
 E= -535.651175467005     Delta-E=       -0.000000000004 Rises=F Damp=F
 DIIS: error= 2.15D-08 at cycle  11 NSaved=  11.
 NSaved=11 IEnMin=11 EnMin= -535.651175467005     IErMin=11 ErrMin= 2.15D-08
 ErrMax= 2.15D-08  0.00D+00 EMaxC= 1.00D-01 BMatC= 5.39D-14 BMatP= 9.36D-13
 IDIUse=1 WtCom= 1.00D+00 WtEn= 0.00D+00
 Coeff-Com:  0.969D-06-0.274D-05-0.500D-05 0.247D-04 0.407D-03-0.219D-02
 Coeff-Com:  0.532D-02 0.111D-01-0.681D-01-0.108D+00 0.116D+01
 Coeff:      0.969D-06-0.274D-05-0.500D-05 0.247D-04 0.407D-03-0.219D-02
 Coeff:      0.532D-02 0.111D-01-0.681D-01-0.108D+00 0.116D+01
 Gap=     0.312 Goal=   None    Shift=    0.000
 RMSDP=5.50D-09 MaxDP=1.96D-07 DE=-3.87D-12 OVMax= 2.08D-07

 SCF Done:  E(RHF) =  -535.651175467     A.U. after   11 cycles
            NFock= 11  Conv=0.55D-08     -V/T= 2.0001
 KE= 5.356163860989D+02 PE=-1.361532228742D+03 EE= 2.509126951171D+02
 Leave Link  502 at Fri Oct  8 13:07:39 2021, MaxMem= 16106127360 cpu:              20.0 elap:               1.5
 (Enter /sw/contrib/gaussian/g16/B01/g16/l801.exe)
 ExpMin= 2.53D-02 ExpMax= 4.56D+05 ExpMxC= 1.44D+03 IAcc=3 IRadAn=         5 AccDes= 0.00D+00
 HarFok:  IExCor=  205 AccDes= 0.00D+00 IRadAn=         5 IDoV=-2 UseB2=F ITyADJ=14
 ICtDFT= 12500011 ScaDFX=  1.000000  1.000000  1.000000  1.000000
 Largest valence mixing into a core orbital is  4.53D-04
 Largest core mixing into a valence orbital is  1.83D-04
 Range of M.O.s used for correlation:     7   142
 NBasis=   142 NAE=    14 NBE=    14 NFC=     6 NFV=     0
 NROrb=    136 NOA=     8 NOB=     8 NVA=   128 NVB=   128

 **** Warning!!: The largest alpha MO coefficient is  0.17775272D+02

 Leave Link  801 at Fri Oct  8 13:07:39 2021, MaxMem= 16106127360 cpu:               1.9 elap:               0.1
 (Enter /sw/contrib/gaussian/g16/B01/g16/l906.exe)
 Frozen-core derivative calculation, NFC=   6 NFV=   0.
 FulOut=F Deriv=T AODrv=F NAtomX=     4
   MMem=         252  MDisk=           8 MDiskD=           8
  W3Min=      326032 MinDsk=      657538 NBas6D=         164
 NBas2D=       13905    NTT=       13530    LW2=     3500000
    MDV= 16105867658 MDiskM=      490971 NBas2p=       13814
 Fully in-core method, ICMem=   205321089.
 IMap=   1   2   3   4   5   6   7   8   9  10  11  12  13  14
 JobTyp=1 Pass  1 fully in-core, NPsUse= 28.
 Compute canonical integrals.
 FoFCou: FMM=F IPFlag=           0 FMFlag=           0 FMFlg1=           0
         NFxFlg=           0 DoJE=F BraDBF=F KetDBF=F FulRan=T
         wScrn=  0.000000 ICntrl=       600 IOpCl=  1 I1Cent=           0 NGrid=           0
         NMat0=    1 NMatS0=  13905 NMatT0=    0 NMatD0=    1 NMtDS0=    0 NMtDT0=    0
 Symmetry not used in FoFCou.
 Spin components of T(2) and E(2):
     alpha-alpha T2 =       0.1942093133D-01 E2=     -0.5986810220D-01
     alpha-beta  T2 =       0.1062783484D+00 E2=     -0.3616560221D+00
     beta-beta   T2 =       0.1942093133D-01 E2=     -0.5986810220D-01
 The integrals were generated   1 times.
 ANorm=    0.1070102897D+01
 E2 =    -0.4813922265D+00 EUMP2 =    -0.53613256769355D+03
 Leave Link  906 at Fri Oct  8 13:07:41 2021, MaxMem= 16106127360 cpu:              49.6 elap:               1.8
 (Enter /sw/contrib/gaussian/g16/B01/g16/l1002.exe)
 Minotr:  Closed shell wavefunction.
          Computing MP2/KS-MP2 derivatives.
          Using Z-Vector for PSCF gradient.
          Skipping F1 and S1 gradient terms here.
          Frozen-core window.
          Direct CPHF calculation.
          Differentiating once with respect to electric field.
                with respect to dipole field.
          Electric field/nuclear overlap derivatives assumed to be zero.
          Requested convergence is 1.0D-10 RMS, and 1.0D-09 maximum.
          NewPWx=F KeepS1=T KeepF1=T KeepIn=T MapXYZ=F SortEE=F KeepMc=T.
 Keep R1 ints in memory in canonical form, NReq=65349028.
 FoFCou: FMM=F IPFlag=           0 FMFlag=           0 FMFlg1=           0
         NFxFlg=           0 DoJE=F BraDBF=F KetDBF=F FulRan=T
         wScrn=  0.000000 ICntrl=       600 IOpCl=  0 I1Cent=           0 NGrid=           0
         NMat0=    1 NMatS0=  10153 NMatT0=    0 NMatD0=    1 NMtDS0=    0 NMtDT0=    0
 Symmetry not used in FoFCou.
 Two-electron integral symmetry not used.
          MDV=   16106127360 using IRadAn=       5.
          Solving linear equations separately, MaxMat=       0.
          There are     1 degrees of freedom in the 1st order CPHF.  IDoFFX=0 NUNeed=     1.
 LinEq1:  Iter=  0 NonCon=     1 RMS=2.93D-03 Max=3.94D-02 NDo=     1
 AX will form     1 AO Fock derivatives at one time.
 LinEq1:  Iter=  1 NonCon=     1 RMS=3.60D-04 Max=5.07D-03 NDo=     1
 LinEq1:  Iter=  2 NonCon=     1 RMS=1.11D-04 Max=1.15D-03 NDo=     1
 LinEq1:  Iter=  3 NonCon=     1 RMS=3.65D-05 Max=3.53D-04 NDo=     1
 LinEq1:  Iter=  4 NonCon=     1 RMS=1.03D-05 Max=9.53D-05 NDo=     1
 LinEq1:  Iter=  5 NonCon=     1 RMS=2.53D-06 Max=2.76D-05 NDo=     1
 LinEq1:  Iter=  6 NonCon=     1 RMS=6.04D-07 Max=8.05D-06 NDo=     1
 LinEq1:  Iter=  7 NonCon=     1 RMS=1.48D-07 Max=1.46D-06 NDo=     1
 LinEq1:  Iter=  8 NonCon=     1 RMS=3.42D-08 Max=3.68D-07 NDo=     1
 LinEq1:  Iter=  9 NonCon=     1 RMS=5.96D-09 Max=8.63D-08 NDo=     1
 LinEq1:  Iter= 10 NonCon=     1 RMS=8.34D-10 Max=7.47D-09 NDo=     1
 LinEq1:  Iter= 11 NonCon=     1 RMS=1.86D-10 Max=2.06D-09 NDo=     1
 LinEq1:  Iter= 12 NonCon=     0 RMS=4.45D-11 Max=4.84D-10 NDo=     1
 Linear equations converged to 1.000D-10 1.000D-09 after    12 iterations.
 End of Minotr F.D. properties file   721 does not exist.
 End of Minotr F.D. properties file   722 does not exist.
 End of Minotr F.D. properties file   788 does not exist.
 Leave Link 1002 at Fri Oct  8 13:07:43 2021, MaxMem= 16106127360 cpu:              26.8 elap:               2.0
 (Enter /sw/contrib/gaussian/g16/B01/g16/l601.exe)
 Copying SCF densities to generalized density rwf, IOpCl= 0 IROHF=0.

 **********************************************************************

            Population analysis using the MP2 Density.

 **********************************************************************

 Alpha  occ. eigenvalues -- -104.52743 -20.37858 -10.25187  -7.71796  -7.71791
 Alpha  occ. eigenvalues --   -7.71791  -1.17169  -0.76221  -0.52980  -0.41258
 Alpha  occ. eigenvalues --   -0.32804  -0.17976  -0.17496  -0.17452
 Alpha virt. eigenvalues --    0.13790   0.18203   0.25677   0.26671   0.27591
 Alpha virt. eigenvalues --    0.28762   0.30411   0.30961   0.35098   0.39847
 Alpha virt. eigenvalues --    0.41267   0.41761   0.43323   0.49881   0.55270
 Alpha virt. eigenvalues --    0.55998   0.58207   0.59390   0.61394   0.67064
 Alpha virt. eigenvalues --    0.68510   0.69948   0.72494   0.82509   0.85622
 Alpha virt. eigenvalues --    0.87293   0.88817   0.89463   0.91874   0.93752
 Alpha virt. eigenvalues --    1.02054   1.02791   1.04854   1.07848   1.08319
 Alpha virt. eigenvalues --    1.10062   1.10818   1.11731   1.15251   1.18484
 Alpha virt. eigenvalues --    1.20218   1.20305   1.23117   1.25964   1.28259
 Alpha virt. eigenvalues --    1.32393   1.32393   1.39756   1.40981   1.44733
 Alpha virt. eigenvalues --    1.44972   1.50150   1.57060   1.58416   1.62037
 Alpha virt. eigenvalues --    1.67599   1.69987   1.74983   1.79358   1.80029
 Alpha virt. eigenvalues --    1.89682   1.90797   2.09978   2.13640   2.25194
 Alpha virt. eigenvalues --    2.45819   2.52040   2.59438   2.62157   2.63671
 Alpha virt. eigenvalues --    2.66092   2.67960   2.74515   2.80735   2.80989
 Alpha virt. eigenvalues --    2.85160   2.89277   2.91751   2.92638   2.98635
 Alpha virt. eigenvalues --    2.99979   3.00282   3.08222   3.15496   3.20234
 Alpha virt. eigenvalues --    3.34710   3.34749   3.39636   3.39886   3.43154
 Alpha virt. eigenvalues --    3.50832   3.53718   3.62443   3.88029   4.22162
 Alpha virt. eigenvalues --    4.25099   4.35909   4.39447   4.45466   4.48414
 Alpha virt. eigenvalues --    4.57777   4.59244   4.66270   4.79116   4.98531
 Alpha virt. eigenvalues --    5.16126   5.35106   5.43837   5.47046   5.61058
 Alpha virt. eigenvalues --    5.75114   5.82221   6.25186   6.51220   6.72081
 Alpha virt. eigenvalues --    6.91517   7.15842   7.32395   7.45559   7.48092
 Alpha virt. eigenvalues --    7.53089   7.56399   7.62437   7.87060   8.13389
 Alpha virt. eigenvalues --    8.19497   9.07190  17.01169
          Condensed to atoms (all electrons):
               1          2          3          4
     1  O    8.216876   0.220421  -0.064925   0.146211
     2  H    0.220421   0.607353   0.005469   0.000151
     3  Cl  -0.064925   0.005469  17.943640   0.042264
     4  H    0.146211   0.000151   0.042264   0.532949
 Mulliken charges:
               1
     1  O   -0.518584
     2  H    0.166605
     3  Cl  -0.926448
     4  H    0.278426
 Sum of Mulliken charges =  -1.00000
 Mulliken charges with hydrogens summed into heavy atoms:
               1
     1  O   -0.073552
     3  Cl  -0.926448
 Electronic spatial extent (au):  <R**2>=            669.7901
 Charge=             -1.0000 electrons
 Dipole moment (field-independent basis, Debye):
    X=              3.7639    Y=             11.7221    Z=              0.0000  Tot=             12.3116
 Quadrupole moment (field-independent basis, Debye-Ang):
   XX=            -24.1302   YY=            -63.4663   ZZ=            -25.1092
   XY=             -7.5897   XZ=             -0.0000   YZ=             -0.0000
 Traceless Quadrupole moment (field-independent basis, Debye-Ang):
   XX=             13.4384   YY=            -25.8977   ZZ=             12.4593
   XY=             -7.5897   XZ=             -0.0000   YZ=             -0.0000
 Octapole moment (field-independent basis, Debye-Ang**2):
  XXX=             32.9929  YYY=            275.1994  ZZZ=              0.0000  XYY=             34.1910
  XXY=             56.7520  XXZ=              0.0000  XZZ=             10.0170  YZZ=             51.7996
  YYZ=              0.0000  XYZ=              0.0000
 Hexadecapole moment (field-independent basis, Debye-Ang**3):
 XXXX=            -76.7090 YYYY=          -1330.2177 ZZZZ=            -37.5761 XXXY=            -99.1278
 XXXZ=             -0.0000 YYYX=           -168.2938 YYYZ=             -0.0000 ZZZX=             -0.0000
 ZZZY=             -0.0000 XXYY=           -189.7676 XXZZ=            -19.3083 YYZZ=           -168.3820
 XXYZ=             -0.0000 YYXZ=             -0.0000 ZZXY=            -32.0668
 N-N= 3.935197205934D+01 E-N=-1.361476006861D+03  KE= 5.360923130361D+02
 No NMR shielding tensors so no spin-rotation constants.
 Leave Link  601 at Fri Oct  8 13:07:43 2021, MaxMem= 16106127360 cpu:               5.6 elap:               0.3
 (Enter /sw/contrib/gaussian/g16/B01/g16/l607.exe)
 ******************************Gaussian NBO Version 3.1******************************
             N A T U R A L   A T O M I C   O R B I T A L   A N D
          N A T U R A L   B O N D   O R B I T A L   A N A L Y S I S
 ******************************Gaussian NBO Version 3.1******************************
       /RESON  / : Allow strongly delocalized NBO set

 Analyzing the MP2 density

 Job title: title                                                           

 Storage needed:     61222 in NPA,     81148 in NBO (********** available)
 GSVD:  LWork=       -1046 too small for GESVD, short by       42557 words or       42557 for optimal perf.


 NATURAL POPULATIONS:  Natural atomic orbital occupancies 
                                                          
   NAO  Atom  No  lang   Type(AO)    Occupancy
 --------------------------------------------
     1    O    1  S      Cor( 1S)     1.99966
     2    O    1  S      Val( 2S)     1.73052
     3    O    1  S      Ryd( 3S)     0.00581
     4    O    1  S      Ryd( 4S)     0.00046
     5    O    1  S      Ryd( 5S)     0.00018
     6    O    1  px     Val( 2p)     1.52094
     7    O    1  px     Ryd( 3p)     0.00957
     8    O    1  px     Ryd( 4p)     0.00052
     9    O    1  px     Ryd( 5p)     0.00007
    10    O    1  py     Val( 2p)     1.67191
    11    O    1  py     Ryd( 3p)     0.01137
    12    O    1  py     Ryd( 4p)     0.00062
    13    O    1  py     Ryd( 5p)     0.00008
    14    O    1  pz     Val( 2p)     1.95405
    15    O    1  pz     Ryd( 3p)     0.02059
    16    O    1  pz     Ryd( 4p)     0.00060
    17    O    1  pz     Ryd( 5p)     0.00001
    18    O    1  dxy    Ryd( 3d)     0.00813
    19    O    1  dxy    Ryd( 4d)     0.00041
    20    O    1  dxy    Ryd( 5d)     0.00006
    21    O    1  dxz    Ryd( 3d)     0.00808
    22    O    1  dxz    Ryd( 4d)     0.00043
    23    O    1  dxz    Ryd( 5d)     0.00006
    24    O    1  dyz    Ryd( 3d)     0.00763
    25    O    1  dyz    Ryd( 4d)     0.00046
    26    O    1  dyz    Ryd( 5d)     0.00010
    27    O    1  dx2y2  Ryd( 3d)     0.01228
    28    O    1  dx2y2  Ryd( 4d)     0.00029
    29    O    1  dx2y2  Ryd( 5d)     0.00008
    30    O    1  dz2    Ryd( 3d)     0.00906
    31    O    1  dz2    Ryd( 4d)     0.00043
    32    O    1  dz2    Ryd( 5d)     0.00010
    33    O    1  f(0)   Ryd( 4f)     0.00064
    34    O    1  f(0)   Ryd( 5f)     0.00010
    35    O    1  f(C1)  Ryd( 4f)     0.00056
    36    O    1  f(C1)  Ryd( 5f)     0.00008
    37    O    1  f(S1)  Ryd( 4f)     0.00055
    38    O    1  f(S1)  Ryd( 5f)     0.00008
    39    O    1  f(C2)  Ryd( 4f)     0.00045
    40    O    1  f(C2)  Ryd( 5f)     0.00009
    41    O    1  f(S2)  Ryd( 4f)     0.00046
    42    O    1  f(S2)  Ryd( 5f)     0.00007
    43    O    1  f(C3)  Ryd( 4f)     0.00041
    44    O    1  f(C3)  Ryd( 5f)     0.00012
    45    O    1  f(S3)  Ryd( 4f)     0.00039
    46    O    1  f(S3)  Ryd( 5f)     0.00009

    47    H    2  S      Val( 1S)     0.55109
    48    H    2  S      Ryd( 2S)     0.00159
    49    H    2  S      Ryd( 3S)     0.00017
    50    H    2  S      Ryd( 4S)     0.00006
    51    H    2  px     Ryd( 2p)     0.00152
    52    H    2  px     Ryd( 3p)     0.00051
    53    H    2  px     Ryd( 4p)     0.00013
    54    H    2  py     Ryd( 2p)     0.00182
    55    H    2  py     Ryd( 3p)     0.00022
    56    H    2  py     Ryd( 4p)     0.00009
    57    H    2  pz     Ryd( 2p)     0.00520
    58    H    2  pz     Ryd( 3p)     0.00019
    59    H    2  pz     Ryd( 4p)     0.00005
    60    H    2  dxy    Ryd( 3d)     0.00006
    61    H    2  dxy    Ryd( 4d)     0.00005
    62    H    2  dxz    Ryd( 3d)     0.00008
    63    H    2  dxz    Ryd( 4d)     0.00006
    64    H    2  dyz    Ryd( 3d)     0.00012
    65    H    2  dyz    Ryd( 4d)     0.00004
    66    H    2  dx2y2  Ryd( 3d)     0.00009
    67    H    2  dx2y2  Ryd( 4d)     0.00004
    68    H    2  dz2    Ryd( 3d)     0.00011
    69    H    2  dz2    Ryd( 4d)     0.00006

    70   Cl    3  S      Cor( 1S)     2.00001
    71   Cl    3  S      Cor( 2S)     2.00000
    72   Cl    3  S      Val( 3S)     1.97718
    73   Cl    3  S      Ryd( 4S)     0.00240
    74   Cl    3  S      Ryd( 5S)     0.00024
    75   Cl    3  S      Ryd( 6S)     0.00006
    76   Cl    3  px     Cor( 2p)     2.00003
    77   Cl    3  px     Val( 3p)     1.95076
    78   Cl    3  px     Ryd( 4p)     0.01321
    79   Cl    3  px     Ryd( 5p)     0.00058
    80   Cl    3  px     Ryd( 6p)     0.00002
    81   Cl    3  py     Cor( 2p)     2.00002
    82   Cl    3  py     Val( 3p)     1.91719
    83   Cl    3  py     Ryd( 4p)     0.01143
    84   Cl    3  py     Ryd( 5p)     0.00056
    85   Cl    3  py     Ryd( 6p)     0.00009
    86   Cl    3  pz     Cor( 2p)     2.00003
    87   Cl    3  pz     Val( 3p)     1.95266
    88   Cl    3  pz     Ryd( 4p)     0.01327
    89   Cl    3  pz     Ryd( 5p)     0.00058
    90   Cl    3  pz     Ryd( 6p)     0.00001
    91   Cl    3  dxy    Ryd( 3d)     0.01839
    92   Cl    3  dxy    Ryd( 4d)     0.00074
    93   Cl    3  dxy    Ryd( 5d)     0.00011
    94   Cl    3  dxz    Ryd( 3d)     0.01828
    95   Cl    3  dxz    Ryd( 4d)     0.00098
    96   Cl    3  dxz    Ryd( 5d)     0.00011
    97   Cl    3  dyz    Ryd( 3d)     0.01842
    98   Cl    3  dyz    Ryd( 4d)     0.00075
    99   Cl    3  dyz    Ryd( 5d)     0.00011
   100   Cl    3  dx2y2  Ryd( 3d)     0.01811
   101   Cl    3  dx2y2  Ryd( 4d)     0.00086
   102   Cl    3  dx2y2  Ryd( 5d)     0.00012
   103   Cl    3  dz2    Ryd( 3d)     0.01821
   104   Cl    3  dz2    Ryd( 4d)     0.00095
   105   Cl    3  dz2    Ryd( 5d)     0.00011
   106   Cl    3  f(0)   Ryd( 4f)     0.00128
   107   Cl    3  f(0)   Ryd( 5f)     0.00015
   108   Cl    3  f(C1)  Ryd( 4f)     0.00129
   109   Cl    3  f(C1)  Ryd( 5f)     0.00014
   110   Cl    3  f(S1)  Ryd( 4f)     0.00128
   111   Cl    3  f(S1)  Ryd( 5f)     0.00015
   112   Cl    3  f(C2)  Ryd( 4f)     0.00128
   113   Cl    3  f(C2)  Ryd( 5f)     0.00015
   114   Cl    3  f(S2)  Ryd( 4f)     0.00130
   115   Cl    3  f(S2)  Ryd( 5f)     0.00015
   116   Cl    3  f(C3)  Ryd( 4f)     0.00126
   117   Cl    3  f(C3)  Ryd( 5f)     0.00015
   118   Cl    3  f(S3)  Ryd( 4f)     0.00127
   119   Cl    3  f(S3)  Ryd( 5f)     0.00016

   120    H    4  S      Val( 1S)     0.49001
   121    H    4  S      Ryd( 2S)     0.00687
   122    H    4  S      Ryd( 3S)     0.00027
   123    H    4  S      Ryd( 4S)     0.00009
   124    H    4  px     Ryd( 2p)     0.00331
   125    H    4  px     Ryd( 3p)     0.00039
   126    H    4  px     Ryd( 4p)     0.00009
   127    H    4  py     Ryd( 2p)     0.00428
   128    H    4  py     Ryd( 3p)     0.00054
   129    H    4  py     Ryd( 4p)     0.00021
   130    H    4  pz     Ryd( 2p)     0.00362
   131    H    4  pz     Ryd( 3p)     0.00044
   132    H    4  pz     Ryd( 4p)     0.00009
   133    H    4  dxy    Ryd( 3d)     0.00016
   134    H    4  dxy    Ryd( 4d)     0.00009
   135    H    4  dxz    Ryd( 3d)     0.00014
   136    H    4  dxz    Ryd( 4d)     0.00005
   137    H    4  dyz    Ryd( 3d)     0.00017
   138    H    4  dyz    Ryd( 4d)     0.00008
   139    H    4  dx2y2  Ryd( 3d)     0.00016
   140    H    4  dx2y2  Ryd( 4d)     0.00010
   141    H    4  dz2    Ryd( 3d)     0.00016
   142    H    4  dz2    Ryd( 4d)     0.00008


 Summary of Natural Population Analysis:                  
                                                          
                                       Natural Population 
                Natural  -----------------------------------------------
    Atom  No    Charge         Core      Valence    Rydberg      Total
 -----------------------------------------------------------------------
      O    1   -0.97866      1.99966     6.87743    0.10157     8.97866
      H    2    0.43666      0.00000     0.55109    0.01225     0.56334
     Cl    3   -0.94660     10.00009     7.79779    0.14872    17.94660
      H    4    0.48860      0.00000     0.49001    0.02140     0.51140
 =======================================================================
   * Total *   -1.00000     11.99974    15.71632    0.28394    28.00000

                                 Natural Population      
 --------------------------------------------------------
   Core                      11.99974 ( 99.9979% of  12)
   Valence                   15.71632 ( 98.2270% of  16)
   Natural Minimal Basis     27.71606 ( 98.9859% of  28)
   Natural Rydberg Basis      0.28394 (  1.0141% of  28)
 --------------------------------------------------------

    Atom  No          Natural Electron Configuration
 ----------------------------------------------------------------------------
      O    1      [core]2S( 1.73)2p( 5.15)3S( 0.01)3p( 0.04)3d( 0.05)
      H    2            1S( 0.55)2p( 0.01)
     Cl    3      [core]3S( 1.98)3p( 5.82)3d( 0.09)4p( 0.04)4f( 0.01)
      H    4            1S( 0.49)2S( 0.01)2p( 0.01)


 NATURAL BOND ORBITAL ANALYSIS:
 Warning:  a bond orbital has occupanc of -0.00003

                       Occupancies       Lewis Structure    Low   High
           Occ.    -------------------  -----------------   occ   occ
  Cycle   Thresh.   Lewis   Non-Lewis     CR  BD  3C  LP    (L)   (NL)   Dev
 =============================================================================
   1(1)    1.90    27.66398   0.33602      6   2   0   6     0      0    0.06
 -----------------------------------------------------------------------------

 Structure accepted: No low occupancy Lewis orbitals

 --------------------------------------------------------
   Core                     11.99974 ( 99.998% of  12)
   Valence Lewis            15.66424 ( 97.901% of  16)
  ==================       ============================
   Total Lewis              27.66398 ( 98.800% of  28)
  -----------------------------------------------------
   Valence non-Lewis         0.07821 (  0.279% of  28)
   Rydberg non-Lewis         0.25781 (  0.921% of  28)
  ==================       ============================
   Total non-Lewis           0.33602 (  1.200% of  28)
 --------------------------------------------------------


       (Occupancy)   Bond orbital/ Coefficients/ Hybrids
 ---------------------------------------------------------------------------------
     1. (1.96604) BD ( 1) O   1 - H   2  
                ( 72.73%)   0.8528* O   1 s( 20.84%)p 3.78( 78.70%)d 0.02(  0.45%)
                                                  f 0.00(  0.01%)
                                            0.0002  0.4564 -0.0047 -0.0019 -0.0021
                                            0.8844 -0.0313  0.0094 -0.0031  0.0602
                                           -0.0153  0.0010 -0.0032  0.0000  0.0000
                                            0.0000  0.0000 -0.0196  0.0031  0.0006
                                            0.0000  0.0000  0.0000  0.0000  0.0000
                                            0.0000  0.0533 -0.0037 -0.0040 -0.0349
                                            0.0021 -0.0003  0.0000  0.0000 -0.0099
                                            0.0002 -0.0000 -0.0001  0.0000  0.0000
                                            0.0000  0.0000  0.0034  0.0038  0.0023
                                           -0.0008
                ( 27.27%)   0.5222* H   2 s( 99.88%)p 0.00(  0.12%)d 0.00(  0.00%)
                                            0.9994  0.0033 -0.0002  0.0002  0.0181
                                            0.0265 -0.0051 -0.0092 -0.0040 -0.0024
                                            0.0000  0.0000  0.0000 -0.0005  0.0024
                                            0.0000  0.0000  0.0000  0.0000 -0.0019
                                            0.0011 -0.0007 -0.0008
     2. (1.96994) BD ( 1) O   1 - H   4  
                ( 77.35%)   0.8795* O   1 s( 28.60%)p 2.48( 70.98%)d 0.01(  0.41%)
                                                  f 0.00(  0.01%)
                                           -0.0003 -0.5348  0.0039  0.0022  0.0013
                                            0.2179 -0.0188  0.0018 -0.0014  0.8134
                                           -0.0177  0.0067 -0.0019  0.0000  0.0000
                                            0.0000  0.0000  0.0019 -0.0027 -0.0014
                                            0.0000  0.0000  0.0000  0.0000  0.0000
                                            0.0000  0.0529 -0.0031 -0.0009  0.0358
                                           -0.0018  0.0014  0.0000  0.0000 -0.0018
                                           -0.0002 -0.0085  0.0000  0.0000  0.0000
                                            0.0000  0.0000 -0.0027 -0.0018 -0.0017
                                           -0.0023
                ( 22.65%)   0.4759* H   4 s( 99.91%)p 0.00(  0.09%)d 0.00(  0.00%)
                                           -0.9993 -0.0242 -0.0005  0.0001 -0.0159
                                           -0.0023 -0.0011 -0.0030 -0.0231 -0.0089
                                            0.0000  0.0000  0.0000  0.0020  0.0015
                                            0.0000  0.0000  0.0000  0.0000 -0.0034
                                            0.0016 -0.0003  0.0019
     3. (1.99966) CR ( 1) O   1           s(100.00%)
                                            1.0000 -0.0004  0.0000  0.0000  0.0000
                                           -0.0001  0.0000 -0.0000  0.0000  0.0001
                                           -0.0000  0.0000  0.0000  0.0000  0.0000
                                            0.0000  0.0000 -0.0000 -0.0000 -0.0000
                                            0.0000  0.0000  0.0000  0.0000  0.0000
                                            0.0000  0.0000  0.0000  0.0000  0.0000
                                           -0.0000  0.0000  0.0000  0.0000  0.0000
                                            0.0000 -0.0000 -0.0000  0.0000  0.0000
                                            0.0000  0.0000 -0.0000 -0.0000 -0.0000
                                           -0.0000
     4. (2.00001) CR ( 1)Cl   3           s(100.00%)
                                            1.0000 -0.0000  0.0000  0.0000  0.0000
                                            0.0000  0.0000  0.0000  0.0000 -0.0000
                                            0.0000  0.0000  0.0000 -0.0000 -0.0000
                                            0.0000  0.0000  0.0000  0.0000  0.0000
                                            0.0000  0.0000  0.0000  0.0000  0.0000
                                            0.0000  0.0000  0.0000  0.0000  0.0000
                                           -0.0000 -0.0000  0.0000 -0.0000 -0.0000
                                           -0.0000  0.0000  0.0000 -0.0000 -0.0000
                                           -0.0000 -0.0000  0.0000  0.0000  0.0000
                                            0.0000 -0.0000 -0.0000 -0.0000 -0.0000
     5. (2.00000) CR ( 2)Cl   3           s(100.00%)
                                           -0.0000  1.0000  0.0000  0.0000  0.0000
                                            0.0000  0.0000  0.0000  0.0000 -0.0000
                                            0.0000  0.0000  0.0000 -0.0000 -0.0000
                                            0.0000  0.0000  0.0000  0.0000  0.0000
                                            0.0000  0.0000  0.0000  0.0000  0.0000
                                            0.0000  0.0000  0.0000  0.0000  0.0000
                                           -0.0000 -0.0000  0.0000 -0.0000 -0.0000
                                           -0.0000  0.0000  0.0000 -0.0000 -0.0000
                                           -0.0000 -0.0000  0.0000  0.0000  0.0000
                                            0.0000 -0.0000 -0.0000 -0.0000 -0.0000
     6. (2.00003) CR ( 3)Cl   3           s(  0.00%)p 1.00(100.00%)
                                            0.0000  0.0000 -0.0000 -0.0000  0.0000
                                           -0.0000  1.0000  0.0000  0.0000  0.0000
                                           -0.0000 -0.0000 -0.0000  0.0000  0.0000
                                           -0.0000  0.0000  0.0000  0.0000  0.0000
                                            0.0000  0.0000  0.0000 -0.0000  0.0000
                                            0.0000  0.0000  0.0000  0.0000  0.0000
                                            0.0000  0.0000  0.0000  0.0000  0.0000
                                           -0.0000  0.0000  0.0000 -0.0000 -0.0000
                                            0.0000  0.0000  0.0000  0.0000  0.0000
                                            0.0000 -0.0000 -0.0000  0.0000  0.0000
     7. (2.00002) CR ( 4)Cl   3           s(  0.00%)p 1.00(100.00%)
                                            0.0000  0.0000 -0.0000 -0.0000 -0.0000
                                           -0.0000 -0.0000 -0.0000 -0.0000  0.0000
                                           -0.0000  1.0000 -0.0001  0.0000  0.0000
                                           -0.0000  0.0000  0.0000  0.0000  0.0000
                                            0.0000 -0.0000 -0.0000 -0.0000  0.0000
                                            0.0000  0.0000  0.0000  0.0000  0.0000
                                            0.0000  0.0000 -0.0000  0.0000  0.0000
                                            0.0000  0.0000  0.0000  0.0000  0.0000
                                            0.0000  0.0000  0.0000  0.0000  0.0000
                                            0.0000  0.0000  0.0000  0.0000  0.0000
     8. (2.00003) CR ( 5)Cl   3           s(  0.00%)p 1.00(100.00%)
                                            0.0000  0.0000  0.0000  0.0000  0.0000
                                            0.0000  0.0000  0.0000  0.0000  0.0000
                                            0.0000  0.0000  0.0000  0.0000  0.0000
                                            0.0000  1.0000  0.0000  0.0000  0.0000
                                            0.0000  0.0000  0.0000  0.0000  0.0000
                                            0.0000  0.0000  0.0000  0.0000 -0.0000
                                            0.0000  0.0000  0.0000  0.0000  0.0000
                                            0.0000 -0.0000 -0.0000  0.0000  0.0000
                                            0.0000  0.0000 -0.0000 -0.0000  0.0000
                                            0.0000  0.0000  0.0000  0.0000  0.0000
     9. (1.96976) LP ( 1) O   1           s( 50.47%)p 0.98( 49.41%)d 0.00(  0.11%)
                                                  f 0.00(  0.00%)
                                            0.0002  0.7104  0.0040  0.0021  0.0014
                                           -0.4049 -0.0053  0.0021 -0.0000  0.5745
                                            0.0094 -0.0047  0.0006  0.0000  0.0000
                                            0.0000  0.0000  0.0291 -0.0040  0.0015
                                            0.0000  0.0000  0.0000  0.0000  0.0000
                                            0.0000  0.0068 -0.0003  0.0014  0.0148
                                           -0.0020 -0.0011  0.0000  0.0000  0.0028
                                           -0.0007 -0.0031  0.0010  0.0000  0.0000
                                            0.0000  0.0000  0.0012 -0.0015  0.0009
                                           -0.0004
    10. (1.95990) LP ( 2) O   1           s(  0.00%)p 1.00( 99.80%)d 0.00(  0.19%)
                                                  f 0.00(  0.01%)
                                            0.0000  0.0000  0.0000  0.0000  0.0000
                                            0.0000  0.0000  0.0000  0.0000  0.0000
                                            0.0000  0.0000  0.0000  0.9985  0.0303
                                           -0.0070  0.0031  0.0000  0.0000  0.0000
                                            0.0325 -0.0037  0.0006 -0.0286  0.0026
                                           -0.0044  0.0000  0.0000  0.0000  0.0000
                                            0.0000  0.0000 -0.0096  0.0026  0.0000
                                            0.0000  0.0000  0.0000 -0.0011  0.0014
                                            0.0023 -0.0004  0.0000  0.0000  0.0000
                                            0.0000
    11. (1.97936) LP ( 1)Cl   3           s( 96.74%)p 0.03(  3.26%)d 0.00(  0.00%)
                                                  f 0.00(  0.00%)
                                            0.0000  0.0000  0.9836 -0.0003 -0.0000
                                           -0.0001  0.0000 -0.0364  0.0004 -0.0001
                                            0.0001  0.0000 -0.1768  0.0009 -0.0007
                                            0.0002  0.0000  0.0000  0.0000  0.0000
                                            0.0000  0.0005  0.0002 -0.0001  0.0000
                                            0.0000  0.0000  0.0000  0.0000  0.0000
                                           -0.0009 -0.0003  0.0003 -0.0007 -0.0002
                                            0.0002  0.0000  0.0000 -0.0001 -0.0001
                                           -0.0004 -0.0003  0.0000  0.0000  0.0000
                                            0.0000 -0.0003 -0.0002 -0.0004 -0.0002
    12. (1.95277) LP ( 2)Cl   3           s(  0.00%)p 1.00( 99.99%)d 0.00(  0.00%)
                                                  f 0.00(  0.00%)
                                            0.0000  0.0000  0.0000  0.0000  0.0000
                                            0.0000  0.0000  0.0000  0.0000  0.0000
                                            0.0000  0.0000  0.0000  0.0000  0.0000
                                            0.0000 -0.0000  1.0000  0.0005  0.0009
                                            0.0000  0.0000  0.0000  0.0000  0.0025
                                            0.0013  0.0007  0.0061  0.0015 -0.0005
                                            0.0000  0.0000  0.0000  0.0000  0.0000
                                            0.0000 -0.0016 -0.0011  0.0000  0.0000
                                            0.0000  0.0000 -0.0015 -0.0010  0.0009
                                            0.0007  0.0000  0.0000  0.0000  0.0000
    13. (1.95254) LP ( 3)Cl   3           s(  0.00%)p 1.00( 99.99%)d 0.00(  0.01%)
                                                  f 0.00(  0.00%)
                                            0.0000  0.0000 -0.0016  0.0002  0.0016
                                           -0.0013 -0.0000  0.9777  0.0018  0.0012
                                           -0.0006  0.0000 -0.2098  0.0004  0.0001
                                           -0.0006  0.0000  0.0000  0.0000  0.0000
                                            0.0000  0.0062  0.0013 -0.0006  0.0000
                                            0.0000  0.0000  0.0000  0.0000  0.0000
                                            0.0043  0.0016  0.0005 -0.0006 -0.0006
                                           -0.0006  0.0000  0.0000 -0.0007 -0.0005
                                            0.0001 -0.0000  0.0000  0.0000  0.0000
                                            0.0000 -0.0015 -0.0009  0.0015  0.0010
    14. (1.91394) LP ( 4)Cl   3           s(  3.26%)p29.69( 96.72%)d 0.01(  0.03%)
                                                  f 0.00(  0.00%)
                                           -0.0000 -0.0000  0.1805  0.0017  0.0001
                                            0.0004  0.0000  0.2067  0.0003 -0.0005
                                            0.0001  0.0001  0.9615 -0.0022 -0.0022
                                            0.0005  0.0000  0.0000  0.0000  0.0000
                                            0.0000  0.0065  0.0015  0.0001  0.0000
                                            0.0000  0.0000  0.0000  0.0000  0.0000
                                           -0.0115 -0.0022  0.0006 -0.0082 -0.0020
                                           -0.0001  0.0000  0.0000 -0.0005 -0.0003
                                           -0.0024 -0.0012  0.0000  0.0000  0.0000
                                            0.0000 -0.0017 -0.0006 -0.0021 -0.0008
    15. (0.01903) RY*( 1) O   1           s(  0.00%)p 1.00( 98.58%)d 0.01(  1.40%)
                                                  f 0.00(  0.02%)
                                            0.0000  0.0000  0.0000  0.0000  0.0000
                                            0.0000  0.0000  0.0000  0.0000  0.0000
                                            0.0000  0.0000  0.0000 -0.0349  0.9916
                                            0.0319 -0.0160  0.0000  0.0000  0.0000
                                            0.1003 -0.0146 -0.0060 -0.0597  0.0122
                                            0.0024  0.0000  0.0000  0.0000  0.0000
                                            0.0000  0.0000 -0.0075  0.0093  0.0000
                                            0.0000  0.0000  0.0000 -0.0032  0.0026
                                           -0.0017 -0.0008  0.0000  0.0000  0.0000
                                            0.0000
    16. (0.01486) RY*( 2) O   1           s( 20.88%)p 3.67( 76.61%)d 0.12(  2.42%)
                                                  f 0.00(  0.08%)
                                            0.0000 -0.0109  0.4568  0.0040  0.0018
                                            0.0096 -0.4678 -0.0148  0.0053 -0.0077
                                            0.7394  0.0127 -0.0108  0.0000  0.0000
                                            0.0000  0.0000  0.1525 -0.0160 -0.0006
                                            0.0000  0.0000  0.0000  0.0000  0.0000
                                            0.0000 -0.0049  0.0027  0.0044  0.0232
                                           -0.0108 -0.0029  0.0000  0.0000  0.0027
                                           -0.0015  0.0045  0.0012  0.0000  0.0000
                                            0.0000  0.0000  0.0208 -0.0125  0.0124
                                           -0.0038
    17. (0.00681) RY*( 3) O   1           s(  1.33%)p53.26( 71.08%)d20.29( 27.08%)
                                                  f 0.38(  0.51%)
                                            0.0000  0.0009  0.1060 -0.0440  0.0134
                                           -0.0623 -0.6993 -0.0448  0.0229 -0.0397
                                           -0.4616 -0.0255  0.0057 -0.0000 -0.0000
                                           -0.0000 -0.0000 -0.2100 -0.0082 -0.0015
                                           -0.0000 -0.0000 -0.0000 -0.0000 -0.0000
                                           -0.0000  0.4735  0.0407  0.0249  0.0064
                                            0.0045  0.0073 -0.0000 -0.0000 -0.0320
                                            0.0159 -0.0210  0.0082 -0.0000 -0.0000
                                           -0.0000 -0.0000  0.0206 -0.0153 -0.0464
                                            0.0225
    18. (0.00613) RY*( 4) O   1           s(  0.00%)p 1.00(  0.01%)d99.99( 98.96%)
                                                  f99.40(  1.03%)
                                            0.0000  0.0000  0.0000  0.0000  0.0000
                                            0.0000  0.0000  0.0000  0.0000  0.0000
                                            0.0000  0.0000  0.0000  0.0064 -0.0046
                                           -0.0064 -0.0001  0.0000  0.0000  0.0000
                                            0.5485  0.0290  0.0077  0.8282  0.0440
                                            0.0022  0.0000  0.0000  0.0000  0.0000
                                            0.0000  0.0000  0.0213 -0.0111  0.0000
                                            0.0000  0.0000  0.0000  0.0880 -0.0442
                                           -0.0039  0.0023  0.0000  0.0000  0.0000
                                            0.0000
    19. (0.00611) RY*( 5) O   1           s( 11.80%)p 0.10(  1.24%)d 7.28( 85.98%)
                                                  f 0.08(  0.98%)
                                           -0.0000  0.0137  0.3432  0.0044  0.0052
                                           -0.0006  0.1027  0.0053 -0.0070  0.0256
                                            0.0316 -0.0072 -0.0031 -0.0000 -0.0000
                                           -0.0000 -0.0000 -0.8754 -0.0228  0.0047
                                           -0.0000 -0.0000 -0.0000 -0.0000 -0.0000
                                           -0.0000 -0.2801 -0.0061  0.0027  0.1188
                                            0.0157  0.0119 -0.0000 -0.0000 -0.0096
                                            0.0109  0.0261 -0.0166 -0.0000 -0.0000
                                           -0.0000 -0.0000 -0.0818  0.0307 -0.0295
                                            0.0119
    20. (0.00588) RY*( 6) O   1           s(  0.00%)p 1.00(  1.52%)d64.12( 97.65%)
                                                  f 0.54(  0.83%)
                                            0.0000  0.0000  0.0000  0.0000  0.0000
                                            0.0000  0.0000  0.0000  0.0000  0.0000
                                            0.0000  0.0000  0.0000 -0.0392 -0.1167
                                           -0.0067 -0.0054  0.0000  0.0000  0.0000
                                            0.8213  0.0541  0.0125 -0.5456 -0.0348
                                            0.0012  0.0000  0.0000  0.0000  0.0000
                                            0.0000  0.0000 -0.0679  0.0352  0.0000
                                            0.0000  0.0000  0.0000  0.0227 -0.0124
                                           -0.0380  0.0177  0.0000  0.0000  0.0000
                                            0.0000
    21. (0.00567) RY*( 7) O   1           s(  8.53%)p 0.58(  4.91%)d10.09( 86.00%)
                                                  f 0.07(  0.56%)
                                           -0.0000  0.0226  0.2909 -0.0085  0.0053
                                            0.0315  0.1344  0.0068 -0.0049 -0.0392
                                           -0.1674 -0.0185 -0.0094  0.0000  0.0000
                                            0.0000  0.0000  0.2246  0.0146  0.0020
                                            0.0000  0.0000  0.0000  0.0000  0.0000
                                            0.0000  0.0576  0.0071 -0.0023  0.8948
                                            0.0731  0.0064  0.0000  0.0000  0.0476
                                           -0.0222 -0.0480  0.0238  0.0000  0.0000
                                            0.0000  0.0000 -0.0006 -0.0007 -0.0009
                                            0.0018
    22. (0.00301) RY*( 8) O   1           s( 11.84%)p 2.10( 24.91%)d 5.27( 62.46%)
                                                  f 0.07(  0.79%)
                                            0.0000 -0.0048  0.3441 -0.0015  0.0029
                                            0.0282 -0.2437 -0.0120 -0.0137  0.0262
                                           -0.4271 -0.0518 -0.0521 -0.0000 -0.0000
                                           -0.0000 -0.0000  0.2913  0.0366 -0.0093
                                           -0.0000 -0.0000 -0.0000 -0.0000 -0.0000
                                           -0.0000 -0.7042 -0.0651  0.0661 -0.1813
                                           -0.0244  0.0179 -0.0000 -0.0000  0.0186
                                           -0.0133  0.0284 -0.0267 -0.0000 -0.0000
                                           -0.0000 -0.0000 -0.0109 -0.0099  0.0692
                                           -0.0287
    23. (0.00225) RY*( 9) O   1           s( 44.41%)p 0.50( 22.02%)d 0.74( 33.07%)
                                                  f 0.01(  0.50%)
                                            0.0000 -0.0053  0.6643 -0.0120 -0.0505
                                           -0.0164  0.4375  0.0350 -0.0097 -0.0054
                                           -0.1460 -0.0655 -0.0405  0.0000  0.0000
                                            0.0000  0.0000  0.1230  0.0294  0.0192
                                            0.0000  0.0000  0.0000  0.0000  0.0000
                                            0.0000  0.4028  0.0990 -0.0435 -0.3578
                                           -0.1070  0.0297  0.0000  0.0000 -0.0112
                                            0.0358  0.0120 -0.0100  0.0000  0.0000
                                            0.0000  0.0000  0.0356 -0.0446 -0.0103
                                           -0.0044
    24. (0.00073) RY*(10) O   1           s( 44.70%)p 1.07( 47.86%)d 0.15(  6.48%)
                                                  f 0.02(  0.96%)
                                            0.0000 -0.0053 -0.0441  0.6605 -0.0935
                                            0.0010 -0.0388  0.0879 -0.1109 -0.0010
                                            0.0175 -0.6755 -0.0195 -0.0000 -0.0000
                                           -0.0000 -0.0000 -0.0163  0.1051  0.1383
                                           -0.0000 -0.0000 -0.0000 -0.0000 -0.0000
                                           -0.0000  0.0151 -0.0065 -0.0546  0.0228
                                           -0.0660 -0.1621 -0.0000 -0.0000  0.0152
                                           -0.0052  0.0393  0.0273 -0.0000 -0.0000
                                           -0.0000 -0.0000  0.0013  0.0504  0.0160
                                            0.0651
    25. (0.00055) RY*(11) O   1           s(  0.00%)p 1.00( 63.34%)d 0.54( 34.11%)
                                                  f 0.04(  2.54%)
                                            0.0000  0.0000  0.0000  0.0000  0.0000
                                            0.0000  0.0000  0.0000  0.0000  0.0000
                                            0.0000  0.0000  0.0000  0.0027 -0.0401
                                            0.7948  0.0065  0.0000  0.0000  0.0000
                                            0.0171 -0.2342 -0.0677 -0.0139  0.5181
                                            0.1130  0.0000  0.0000  0.0000  0.0000
                                            0.0000  0.0000 -0.1388  0.0364  0.0000
                                            0.0000  0.0000  0.0000 -0.0588  0.0055
                                           -0.0365 -0.0067  0.0000  0.0000  0.0000
                                            0.0000
    26. (0.00047) RY*(12) O   1           s(  5.50%)p 3.41( 18.74%)d10.12( 55.68%)
                                                  f 3.65( 20.08%)
                                           -0.0000  0.0041  0.0029  0.2177  0.0872
                                            0.0061  0.0136 -0.3564 -0.0361 -0.0041
                                           -0.0292  0.2406 -0.0088 -0.0000 -0.0000
                                           -0.0000 -0.0000 -0.0376 -0.3054  0.0364
                                           -0.0000 -0.0000 -0.0000 -0.0000 -0.0000
                                           -0.0000 -0.0024 -0.1525 -0.0082  0.0590
                                           -0.6333 -0.1813 -0.0000 -0.0000  0.1991
                                           -0.0132  0.0225  0.0105 -0.0000 -0.0000
                                           -0.0000 -0.0000  0.3858  0.0051  0.1063
                                            0.0159
    27. (0.00045) RY*(13) O   1           s(  0.00%)p 1.00(  6.86%)d 0.77(  5.25%)
                                                  f12.82( 87.89%)
                                            0.0000  0.0000  0.0000  0.0000  0.0000
                                            0.0000  0.0000  0.0000  0.0000  0.0000
                                            0.0000  0.0000  0.0000  0.0018 -0.0028
                                            0.2535  0.0656  0.0000  0.0000  0.0000
                                            0.0217  0.1373  0.0014 -0.0311 -0.1788
                                            0.0158  0.0000  0.0000  0.0000  0.0000
                                            0.0000  0.0000  0.2625  0.0060  0.0000
                                            0.0000  0.0000  0.0000  0.1962  0.0001
                                            0.8783 -0.0089  0.0000  0.0000  0.0000
                                            0.0000
    28. (0.00044) RY*(14) O   1           s(  0.24%)p 5.32(  1.28%)d26.98(  6.50%)
                                                  f99.99( 91.98%)
                                           -0.0000  0.0011 -0.0020  0.0481  0.0096
                                           -0.0022 -0.0019 -0.0548 -0.0188 -0.0004
                                           -0.0125  0.0962  0.0053 -0.0000 -0.0000
                                           -0.0000 -0.0000  0.0540 -0.0361 -0.0561
                                           -0.0000 -0.0000 -0.0000 -0.0000 -0.0000
                                           -0.0000  0.0260 -0.0439 -0.0272  0.0719
                                           -0.2097 -0.0716 -0.0000 -0.0000 -0.5458
                                           -0.0008  0.7202  0.0125 -0.0000 -0.0000
                                           -0.0000 -0.0000 -0.3193  0.0070 -0.0328
                                            0.0074
    29. (0.00044) RY*(15) O   1           s(  0.00%)p 1.00(  1.26%)d11.53( 14.53%)
                                                  f66.82( 84.21%)
                                            0.0000  0.0000  0.0000  0.0000  0.0000
                                            0.0000  0.0000  0.0000  0.0000  0.0000
                                            0.0000  0.0000  0.0000  0.0041 -0.0031
                                           -0.1105 -0.0188  0.0000  0.0000  0.0000
                                            0.0146 -0.1944 -0.0223 -0.0831  0.2972
                                            0.1079  0.0000  0.0000  0.0000  0.0000
                                            0.0000  0.0000  0.7999  0.0012  0.0000
                                            0.0000  0.0000  0.0000  0.3982  0.0067
                                           -0.2090  0.0015  0.0000  0.0000  0.0000
                                            0.0000
    30. (0.00042) RY*(16) O   1           s(  0.00%)p 1.00(  6.00%)d 4.05( 24.30%)
                                                  f11.62( 69.70%)
                                            0.0000  0.0000  0.0000  0.0000  0.0000
                                            0.0000  0.0000  0.0000  0.0000  0.0000
                                            0.0000  0.0000  0.0000  0.0048  0.0116
                                            0.2333  0.0735  0.0000  0.0000  0.0000
                                           -0.0962  0.4353  0.1414 -0.0160 -0.1493
                                            0.0412  0.0000  0.0000  0.0000  0.0000
                                            0.0000  0.0000 -0.2493 -0.0031  0.0000
                                            0.0000  0.0000  0.0000  0.7510  0.0334
                                           -0.2638 -0.0097  0.0000  0.0000  0.0000
                                            0.0000
    31. (0.00040) RY*(17) O   1           s(  0.00%)p 1.00( 22.97%)d 1.52( 34.90%)
                                                  f 1.83( 42.12%)
                                            0.0000  0.0000  0.0000  0.0000  0.0000
                                            0.0000  0.0000  0.0000  0.0000  0.0000
                                            0.0000  0.0000  0.0000 -0.0096 -0.0002
                                           -0.4442 -0.1799  0.0000  0.0000  0.0000
                                           -0.0197 -0.2405  0.0510 -0.0362  0.5356
                                           -0.0004  0.0000  0.0000  0.0000  0.0000
                                            0.0000  0.0000 -0.4200 -0.0292  0.0000
                                            0.0000  0.0000  0.0000  0.3647  0.0272
                                            0.3318  0.0157  0.0000  0.0000  0.0000
                                            0.0000
    32. (0.00040) RY*(18) O   1           s(  0.01%)p 1.00( 14.29%)d 1.00( 14.34%)
                                                  f 4.99( 71.36%)
                                            0.0000 -0.0013  0.0071  0.0019  0.0037
                                           -0.0031 -0.0264  0.3500  0.0642  0.0004
                                           -0.0103  0.1084  0.0616  0.0000  0.0000
                                            0.0000  0.0000 -0.0171  0.2188  0.0047
                                            0.0000  0.0000  0.0000  0.0000  0.0000
                                            0.0000  0.0644 -0.2989  0.0096 -0.0098
                                            0.0298  0.0247  0.0000  0.0000  0.6567
                                            0.0533  0.5232  0.0395  0.0000  0.0000
                                            0.0000  0.0000  0.0250 -0.0010 -0.0580
                                           -0.0177
    33. (0.00040) RY*(19) O   1           s(  2.35%)p12.28( 28.88%)d 2.40(  5.64%)
                                                  f26.83( 63.12%)
                                            0.0000 -0.0008 -0.0014  0.1202  0.0952
                                           -0.0110 -0.0390  0.4745 -0.0294 -0.0084
                                           -0.0185  0.2399 -0.0562  0.0000  0.0000
                                            0.0000  0.0000 -0.0292  0.0666  0.0624
                                            0.0000  0.0000  0.0000  0.0000  0.0000
                                            0.0000  0.0512 -0.0270 -0.0825  0.0169
                                           -0.1885 -0.0358  0.0000  0.0000 -0.0824
                                            0.0157 -0.2019 -0.0004  0.0000  0.0000
                                            0.0000  0.0000 -0.2471 -0.0247  0.7205
                                            0.0514
    34. (0.00036) RY*(20) O   1           s(  0.00%)p 1.00(  1.04%)d86.92( 90.81%)
                                                  f 7.79(  8.14%)
                                            0.0000  0.0000  0.0000  0.0000  0.0000
                                            0.0000  0.0000  0.0000  0.0000  0.0000
                                            0.0000  0.0000  0.0000  0.0014  0.0095
                                           -0.1018 -0.0003  0.0000  0.0000  0.0000
                                           -0.0225  0.7888 -0.0743 -0.0181  0.5245
                                           -0.0661  0.0000  0.0000  0.0000  0.0000
                                            0.0000  0.0000  0.1231  0.0123  0.0000
                                            0.0000  0.0000  0.0000 -0.2529 -0.0310
                                            0.0338  0.0091  0.0000  0.0000  0.0000
                                            0.0000
    35. (0.00033) RY*(21) O   1           s(  0.58%)p26.76( 15.51%)d99.99( 79.35%)
                                                  f 7.88(  4.57%)
                                           -0.0000  0.0025 -0.0088  0.0636 -0.0409
                                           -0.0015 -0.0042 -0.3083 -0.1061  0.0057
                                            0.0152  0.1829  0.1226  0.0000  0.0000
                                            0.0000  0.0000 -0.0409  0.8641 -0.0771
                                            0.0000  0.0000  0.0000  0.0000  0.0000
                                            0.0000 -0.0153  0.1722 -0.0211  0.0207
                                           -0.0902 -0.0153  0.0000  0.0000 -0.0630
                                           -0.0147 -0.0035 -0.0002  0.0000  0.0000
                                            0.0000  0.0000  0.1688  0.0522  0.0976
                                            0.0265
    36. (0.00033) RY*(22) O   1           s(  0.61%)p62.97( 38.52%)d25.73( 15.74%)
                                                  f73.79( 45.13%)
                                            0.0000 -0.0013 -0.0136 -0.0037  0.0769
                                           -0.0029 -0.0261  0.5854  0.1689 -0.0024
                                           -0.0000  0.0389  0.1083  0.0000  0.0000
                                            0.0000  0.0000 -0.0063  0.1376 -0.0039
                                            0.0000  0.0000  0.0000  0.0000  0.0000
                                            0.0000 -0.0665 -0.0232  0.0372  0.0480
                                           -0.3578  0.0418  0.0000  0.0000 -0.3093
                                           -0.0221 -0.1546 -0.0470  0.0000  0.0000
                                            0.0000  0.0000  0.3415  0.0265 -0.4426
                                           -0.1258
    37. (0.00029) RY*(23) O   1           s(  5.40%)p 1.00(  5.40%)d 1.72(  9.29%)
                                                  f14.80( 79.92%)
                                           -0.0000  0.0058  0.0125  0.1750  0.1523
                                            0.0049 -0.0071 -0.1102 -0.0669 -0.0070
                                           -0.0035  0.1311  0.1415 -0.0000 -0.0000
                                           -0.0000 -0.0000  0.0481  0.0985 -0.0324
                                           -0.0000 -0.0000 -0.0000 -0.0000 -0.0000
                                           -0.0000  0.0190 -0.1082  0.0194 -0.0139
                                           -0.2536 -0.0535 -0.0000 -0.0000  0.1869
                                            0.0613 -0.2984 -0.1111 -0.0000 -0.0000
                                           -0.0000 -0.0000 -0.6767 -0.1969 -0.3820
                                           -0.1282
    38. (0.00024) RY*(24) O   1           s( 26.53%)p 1.03( 27.42%)d 1.43( 38.06%)
                                                  f 0.30(  7.99%)
                                           -0.0000  0.0010  0.0614  0.4756  0.1878
                                           -0.0021 -0.0130  0.0962 -0.0689  0.0005
                                           -0.0565  0.5009 -0.0773  0.0000  0.0000
                                            0.0000  0.0000  0.0320 -0.1123  0.1026
                                            0.0000  0.0000  0.0000  0.0000  0.0000
                                            0.0000 -0.0360  0.3201 -0.1773 -0.0554
                                            0.3994 -0.2423  0.0000  0.0000 -0.0046
                                            0.0130  0.0372  0.1195  0.0000  0.0000
                                            0.0000  0.0000  0.0848  0.1093 -0.2119
                                            0.0002
    39. (0.00021) RY*(25) O   1           s( 28.29%)p 0.33(  9.41%)d 1.85( 52.36%)
                                                  f 0.35(  9.95%)
                                           -0.0000 -0.0000 -0.0748 -0.1554  0.5031
                                            0.0099 -0.0231  0.0423 -0.0226  0.0042
                                            0.0249 -0.2276 -0.1969  0.0000  0.0000
                                            0.0000  0.0000 -0.0060 -0.0112 -0.0711
                                            0.0000  0.0000  0.0000  0.0000  0.0000
                                            0.0000 -0.0621  0.6557 -0.0623  0.0388
                                           -0.2366  0.1525  0.0000  0.0000  0.2094
                                            0.1236  0.1608  0.0430  0.0000  0.0000
                                            0.0000  0.0000 -0.0329 -0.0897  0.0200
                                           -0.0554
    40. (0.00014) RY*(26) O   1           s( 54.84%)p 0.12(  6.70%)d 0.57( 31.44%)
                                                  f 0.13(  7.01%)
                                            0.0000 -0.0006  0.0464  0.0948  0.7330
                                           -0.0045  0.0646 -0.1042  0.1167 -0.0029
                                            0.0128 -0.0945 -0.1710  0.0000  0.0000
                                            0.0000  0.0000 -0.0091  0.1100 -0.1586
                                            0.0000  0.0000  0.0000  0.0000  0.0000
                                            0.0000  0.0868 -0.4205  0.2175 -0.0433
                                            0.2087  0.0033  0.0000  0.0000 -0.1337
                                           -0.1892 -0.0264 -0.0604  0.0000  0.0000
                                            0.0000  0.0000  0.0894  0.0279  0.0577
                                           -0.0022
    41. (0.00007) RY*(27) O   1           s(  0.00%)p 1.00(  0.22%)d56.53( 12.52%)
                                                  f99.99( 87.26%)
    42. (0.00008) RY*(28) O   1           s(  0.00%)p 1.00(  0.08%)d84.09(  7.10%)
                                                  f99.99( 92.81%)
    43. (0.00007) RY*(29) O   1           s(  0.00%)p 1.00(  0.02%)d99.99(  2.26%)
                                                  f99.99( 97.72%)
    44. (0.00007) RY*(30) O   1           s(  0.08%)p 7.64(  0.63%)d66.99(  5.51%)
                                                  f99.99( 93.78%)
    45. (0.00006) RY*(31) O   1           s(  0.76%)p 4.82(  3.68%)d30.88( 23.60%)
                                                  f94.16( 71.95%)
    46. (0.00006) RY*(32) O   1           s(  0.25%)p 4.11(  1.03%)d39.03(  9.75%)
                                                  f99.99( 88.97%)
    47. (0.00007) RY*(33) O   1           s(  1.08%)p 7.94(  8.57%)d 3.91(  4.22%)
                                                  f79.79( 86.13%)
    48. (0.00005) RY*(34) O   1           s(  0.00%)p 1.00(  1.20%)d78.22( 93.91%)
                                                  f 4.07(  4.89%)
    49. (0.00003) RY*(35) O   1           s(  4.72%)p 3.80( 17.96%)d14.00( 66.10%)
                                                  f 2.38( 11.22%)
    50. (0.00004) RY*(36) O   1           s(  0.00%)p 1.00(  0.27%)d99.99( 79.62%)
                                                  f74.15( 20.10%)
    51. (0.00003) RY*(37) O   1           s(  8.29%)p 2.91( 24.11%)d 5.51( 45.65%)
                                                  f 2.65( 21.95%)
    52. (0.00001) RY*(38) O   1           s(  4.18%)p 0.39(  1.64%)d21.36( 89.34%)
                                                  f 1.15(  4.83%)
    53. (0.00001) RY*(39) O   1           s(  6.40%)p 7.18( 45.94%)d 5.64( 36.09%)
                                                  f 1.81( 11.57%)
    54. (0.00001) RY*(40) O   1           s(  6.47%)p12.77( 82.58%)d 1.07(  6.89%)
                                                  f 0.63(  4.06%)
    55. (-.00003) RY*(41) O   1           s(  0.00%)p 1.00( 96.82%)d 0.03(  2.46%)
                                                  f 0.01(  0.72%)
    56. (0.00525) RY*( 1) H   2           s(  0.00%)p 1.00( 99.15%)d 0.01(  0.85%)
                                            0.0000  0.0000  0.0000  0.0000  0.0000
                                            0.0000  0.0000  0.0000  0.0000  0.0000
                                            0.9953 -0.0307 -0.0006  0.0000  0.0000
                                           -0.0820 -0.0287  0.0228  0.0212  0.0000
                                            0.0000  0.0000  0.0000
    57. (0.00227) RY*( 2) H   2           s(  2.53%)p38.10( 96.29%)d 0.47(  1.19%)
                                            0.0176  0.1127 -0.0365  0.1046 -0.5821
                                           -0.0393 -0.0488  0.7777 -0.1148 -0.0453
                                            0.0000  0.0000  0.0000 -0.0496 -0.0225
                                            0.0000  0.0000  0.0000  0.0000  0.0862
                                            0.0358 -0.0128  0.0039
    58. (0.00183) RY*( 3) H   2           s( 78.86%)p 0.26( 20.13%)d 0.01(  1.01%)
[...]
   120. (0.00374) RY*( 2) H   4           s( 10.19%)p 8.77( 89.32%)d 0.05(  0.49%)
                                           -0.0160  0.2748  0.1593  0.0273  0.5490
                                            0.0297 -0.0122 -0.7583  0.1239 -0.0210
                                           -0.0000 -0.0000 -0.0000 -0.0468  0.0060
                                           -0.0000 -0.0000 -0.0000 -0.0000  0.0213
                                            0.0287 -0.0331  0.0161
   121. (0.00374) RY*( 3) H   4           s(  0.00%)p 1.00( 99.77%)d 0.00(  0.23%)
                                            0.0000  0.0000  0.0000  0.0000  0.0000
                                            0.0000  0.0000  0.0000  0.0000  0.0000
                                            0.9824  0.1794 -0.0211  0.0000  0.0000
                                            0.0105  0.0005 -0.0316  0.0352  0.0000
                                            0.0000  0.0000  0.0000
   122. (0.00271) RY*( 4) H   4           s( 17.73%)p 4.58( 81.27%)d 0.06(  1.00%)
                                           -0.0001  0.3908  0.1550  0.0249 -0.7978
                                            0.0316 -0.0088 -0.3742  0.1873  0.0062
                                           -0.0000 -0.0000 -0.0000  0.0592 -0.0458
                                           -0.0000 -0.0000 -0.0000 -0.0000  0.0228
                                            0.0394  0.0452  0.0168
   123. (0.00044) RY*( 5) H   4           s( 10.15%)p 8.32( 84.51%)d 0.53(  5.34%)
                                           -0.0002  0.0101 -0.2015  0.2466 -0.0043
                                           -0.8968  0.1192 -0.0524  0.1457 -0.0517
                                           -0.0000 -0.0000 -0.0000  0.0349 -0.0782
                                           -0.0000 -0.0000 -0.0000 -0.0000 -0.2099
                                            0.0245 -0.0163 -0.0334
   124. (0.00034) RY*( 6) H   4           s(  0.00%)p 1.00( 95.87%)d 0.04(  4.13%)
                                            0.0000  0.0000  0.0000  0.0000  0.0000
                                            0.0000  0.0000  0.0000  0.0000  0.0000
                                           -0.1737  0.9636  0.0067  0.0000  0.0000
                                           -0.0001  0.0254  0.1762  0.0979  0.0000
                                            0.0000  0.0000  0.0000
   125. (0.00031) RY*( 7) H   4           s(  1.56%)p34.93( 54.64%)d27.99( 43.79%)
                                            0.0025  0.0893 -0.0727 -0.0489 -0.0429
                                            0.0025  0.1597 -0.1217 -0.3643  0.6095
                                            0.0000  0.0000  0.0000  0.1758  0.2241
                                            0.0000  0.0000  0.0000  0.0000 -0.3096
                                           -0.3620 -0.2358 -0.2727
   126. (0.00019) RY*( 8) H   4           s( 14.29%)p 5.23( 74.82%)d 0.76( 10.89%)
                                           -0.0195 -0.0927  0.3613 -0.0589  0.0780
                                            0.0332 -0.0753  0.2067  0.7211  0.4155
                                            0.0000  0.0000  0.0000 -0.1509  0.0160
                                            0.0000  0.0000  0.0000  0.0000 -0.2916
                                           -0.0243 -0.0132 -0.0088
   127. (0.00018) RY*( 9) H   4           s(  0.00%)p 1.00( 13.03%)d 6.67( 86.97%)
                                            0.0000  0.0000  0.0000  0.0000  0.0000
                                            0.0000  0.0000  0.0000  0.0000  0.0000
                                            0.0689 -0.1357  0.3274  0.0000  0.0000
                                           -0.1469 -0.0223  0.9023 -0.1827  0.0000
                                            0.0000  0.0000  0.0000
   128. (0.00016) RY*(10) H   4           s(  1.81%)p14.10( 25.47%)d40.28( 72.73%)
                                            0.0062  0.0273  0.0599  0.1170 -0.0922
                                           -0.0935 -0.3954 -0.0371 -0.2790  0.0429
                                           -0.0000 -0.0000 -0.0000 -0.8401  0.0786
                                           -0.0000 -0.0000 -0.0000 -0.0000 -0.1022
                                           -0.0455 -0.0102 -0.0526
   129. (0.00016) RY*(11) H   4           s( 18.22%)p 0.50(  9.11%)d 3.99( 72.66%)
                                            0.0029 -0.0337  0.3764 -0.1985  0.0342
                                           -0.2136  0.0910  0.0006 -0.1750  0.0740
                                            0.0000  0.0000  0.0000  0.0372  0.0884
                                            0.0000  0.0000  0.0000  0.0000  0.1215
                                           -0.2287  0.8039 -0.0638
   130. (0.00015) RY*(12) H   4           s(  0.00%)p 1.00(  0.02%)d99.99( 99.98%)
                                            0.0000  0.0000  0.0000  0.0000  0.0000
                                            0.0000  0.0000  0.0000  0.0000  0.0000
                                            0.0009 -0.0149 -0.0021  0.0000  0.0000
                                            0.9783  0.0989  0.1357 -0.1207  0.0000
                                            0.0000  0.0000  0.0000
   131. (0.00011) RY*(13) H   4           s( 12.98%)p 0.81( 10.47%)d 5.90( 76.55%)
                                           -0.0034 -0.0497  0.2614 -0.2430 -0.0257
                                           -0.2673  0.1477  0.0433  0.0660  0.0671
                                            0.0000  0.0000  0.0000 -0.1294  0.0650
                                            0.0000  0.0000  0.0000  0.0000  0.7102
                                           -0.1337 -0.4255 -0.2027
   132. (0.00011) RY*(14) H   4           s(  0.00%)p 1.00( 46.94%)d 1.13( 53.06%)
                                            0.0000  0.0000  0.0000  0.0000  0.0000
                                            0.0000  0.0000  0.0000  0.0000  0.0000
                                           -0.0026 -0.0620  0.6823  0.0000  0.0000
                                            0.0759  0.2243 -0.1008  0.6815  0.0000
                                            0.0000  0.0000  0.0000
   133. (0.00009) RY*(15) H   4           s(  1.80%)p17.44( 31.32%)d37.23( 66.88%)
   134. (0.00006) RY*(16) H   4           s( 68.62%)p 0.19( 13.03%)d 0.27( 18.35%)
   135. (0.00005) RY*(17) H   4           s(  0.00%)p 1.00(  0.72%)d99.99( 99.28%)
   136. (0.00005) RY*(18) H   4           s(  0.62%)p 2.04(  1.26%)d99.99( 98.12%)
   137. (0.00003) RY*(19) H   4           s( 21.37%)p 1.88( 40.10%)d 1.80( 38.53%)
   138. (0.00003) RY*(20) H   4           s(  6.78%)p 4.64( 31.45%)d 9.11( 61.77%)
   139. (0.00003) RY*(21) H   4           s( 38.88%)p 0.74( 28.63%)d 0.84( 32.50%)
   140. (0.00004) RY*(22) H   4           s(  0.00%)p 1.00( 43.64%)d 1.29( 56.36%)
   141. (0.02142) BD*( 1) O   1 - H   2  
                ( 27.27%)   0.5222* O   1 s( 20.84%)p 3.78( 78.70%)d 0.02(  0.45%)
                                                  f 0.00(  0.01%)
                                           -0.0002 -0.4564  0.0047  0.0019  0.0021
                                           -0.8844  0.0313 -0.0094  0.0031 -0.0602
                                            0.0153 -0.0010  0.0032 -0.0000 -0.0000
                                           -0.0000 -0.0000  0.0196 -0.0031 -0.0006
                                           -0.0000 -0.0000 -0.0000 -0.0000 -0.0000
                                           -0.0000 -0.0533  0.0037  0.0040  0.0349
                                           -0.0021  0.0003 -0.0000 -0.0000  0.0099
                                           -0.0002  0.0000  0.0001 -0.0000 -0.0000
                                           -0.0000 -0.0000 -0.0034 -0.0038 -0.0023
                                            0.0008
                ( 72.73%)  -0.8528* H   2 s( 99.88%)p 0.00(  0.12%)d 0.00(  0.00%)
                                           -0.9994 -0.0033  0.0002 -0.0002 -0.0181
                                           -0.0265  0.0051  0.0092  0.0040  0.0024
                                           -0.0000 -0.0000 -0.0000  0.0005 -0.0024
                                           -0.0000 -0.0000 -0.0000 -0.0000  0.0019
                                           -0.0011  0.0007  0.0008
   142. (0.05679) BD*( 1) O   1 - H   4  
                ( 22.65%)   0.4759* O   1 s( 28.60%)p 2.48( 70.98%)d 0.01(  0.41%)
                                                  f 0.00(  0.01%)
                                            0.0003  0.5348 -0.0039 -0.0022 -0.0013
                                           -0.2179  0.0188 -0.0018  0.0014 -0.8134
                                            0.0177 -0.0067  0.0019 -0.0000 -0.0000
                                           -0.0000 -0.0000 -0.0019  0.0027  0.0014
                                           -0.0000 -0.0000 -0.0000 -0.0000 -0.0000
                                           -0.0000 -0.0529  0.0031  0.0009 -0.0358
                                            0.0018 -0.0014 -0.0000 -0.0000  0.0018
                                            0.0002  0.0085 -0.0000 -0.0000 -0.0000
                                           -0.0000 -0.0000  0.0027  0.0018  0.0017
                                            0.0023
                ( 77.35%)  -0.8795* H   4 s( 99.91%)p 0.00(  0.09%)d 0.00(  0.00%)
                                            0.9993  0.0242  0.0005 -0.0001  0.0159
                                            0.0023  0.0011  0.0030  0.0231  0.0089
                                           -0.0000 -0.0000 -0.0000 -0.0020 -0.0015
                                           -0.0000 -0.0000 -0.0000 -0.0000  0.0034
                                           -0.0016  0.0003 -0.0019


 NHO Directionality and "Bond Bending" (deviations from line of nuclear centers)

         [Thresholds for printing:  angular deviation  >  1.0 degree]
                                    hybrid p-character > 25.0%
                                    orbital occupancy  >  0.10e

                                Line of Centers        Hybrid 1              Hybrid 2
                                ---------------  -------------------   ------------------
                NBO               Theta   Phi    Theta   Phi    Dev    Theta   Phi    Dev
 ========================================================================================
     1. BD (   1) O   1 - H   2    90.0    0.0    90.0    2.8   2.8      --     --    --
     2. BD (   1) O   1 - H   4    90.0  258.3    90.0  256.0   2.3      --     --    --
     9. LP (   1) O   1             --     --     90.0  125.1   --       --     --    --
    10. LP (   2) O   1             --     --      0.0    0.0   --       --     --    --
    12. LP (   2)Cl   3             --     --      0.0    0.0   --       --     --    --
    13. LP (   3)Cl   3             --     --     90.0  347.9   --       --     --    --
    14. LP (   4)Cl   3             --     --     90.0   77.8   --       --     --    --


 Natural Bond Orbitals (Summary):

           NBO                  Occupancy  
 -----------------------------------------------
 Molecular unit  1  (H2O)
     1. BD (   1) O   1 - H   2          1.96604
     2. BD (   1) O   1 - H   4          1.96994
     3. CR (   1) O   1                  1.99966
     9. LP (   1) O   1                  1.96976
    10. LP (   2) O   1                  1.95990
    15. RY*(   1) O   1                  0.01903
    16. RY*(   2) O   1                  0.01486
    17. RY*(   3) O   1                  0.00681
    18. RY*(   4) O   1                  0.00613
    19. RY*(   5) O   1                  0.00611
    20. RY*(   6) O   1                  0.00588
    21. RY*(   7) O   1                  0.00567
    22. RY*(   8) O   1                  0.00301
    23. RY*(   9) O   1                  0.00225
    24. RY*(  10) O   1                  0.00073
    25. RY*(  11) O   1                  0.00055
    26. RY*(  12) O   1                  0.00047
    27. RY*(  13) O   1                  0.00045
    28. RY*(  14) O   1                  0.00044
    29. RY*(  15) O   1                  0.00044
    30. RY*(  16) O   1                  0.00042
    31. RY*(  17) O   1                  0.00040
    32. RY*(  18) O   1                  0.00040
    33. RY*(  19) O   1                  0.00040
    34. RY*(  20) O   1                  0.00036
    35. RY*(  21) O   1                  0.00033
    36. RY*(  22) O   1                  0.00033
    37. RY*(  23) O   1                  0.00029
    38. RY*(  24) O   1                  0.00024
    39. RY*(  25) O   1                  0.00021
    40. RY*(  26) O   1                  0.00014
    41. RY*(  27) O   1                  0.00007
    42. RY*(  28) O   1                  0.00008
    43. RY*(  29) O   1                  0.00007
    44. RY*(  30) O   1                  0.00007
    45. RY*(  31) O   1                  0.00006
    46. RY*(  32) O   1                  0.00006
    47. RY*(  33) O   1                  0.00007
    48. RY*(  34) O   1                  0.00005
    49. RY*(  35) O   1                  0.00003
    50. RY*(  36) O   1                  0.00004
    51. RY*(  37) O   1                  0.00003
    52. RY*(  38) O   1                  0.00001
    53. RY*(  39) O   1                  0.00001
    54. RY*(  40) O   1                  0.00001
    55. RY*(  41) O   1                 -0.00003
    56. RY*(   1) H   2                  0.00525
    57. RY*(   2) H   2                  0.00227
    58. RY*(   3) H   2                  0.00183
    59. RY*(   4) H   2                  0.00080
    60. RY*(   5) H   2                  0.00029
    61. RY*(   6) H   2                  0.00021
    62. RY*(   7) H   2                  0.00017
    63. RY*(   8) H   2                  0.00010
    64. RY*(   9) H   2                  0.00011
    65. RY*(  10) H   2                  0.00009
    66. RY*(  11) H   2                  0.00010
    67. RY*(  12) H   2                  0.00007
    68. RY*(  13) H   2                  0.00007
    69. RY*(  14) H   2                  0.00004
    70. RY*(  15) H   2                  0.00003
    71. RY*(  16) H   2                  0.00003
    72. RY*(  17) H   2                  0.00004
    73. RY*(  18) H   2                  0.00002
    74. RY*(  19) H   2                  0.00003
    75. RY*(  20) H   2                  0.00001
    76. RY*(  21) H   2                  0.00001
    77. RY*(  22) H   2                  0.00002
   119. RY*(   1) H   4                  0.00861
   120. RY*(   2) H   4                  0.00374
   121. RY*(   3) H   4                  0.00374
   122. RY*(   4) H   4                  0.00271
   123. RY*(   5) H   4                  0.00044
   124. RY*(   6) H   4                  0.00034
   125. RY*(   7) H   4                  0.00031
   126. RY*(   8) H   4                  0.00019
   127. RY*(   9) H   4                  0.00018
   128. RY*(  10) H   4                  0.00016
   129. RY*(  11) H   4                  0.00016
   130. RY*(  12) H   4                  0.00015
   131. RY*(  13) H   4                  0.00011
   132. RY*(  14) H   4                  0.00011
   133. RY*(  15) H   4                  0.00009
   134. RY*(  16) H   4                  0.00006
   135. RY*(  17) H   4                  0.00005
   136. RY*(  18) H   4                  0.00005
   137. RY*(  19) H   4                  0.00003
   138. RY*(  20) H   4                  0.00003
   139. RY*(  21) H   4                  0.00003
   140. RY*(  22) H   4                  0.00004
   141. BD*(   1) O   1 - H   2          0.02142
   142. BD*(   1) O   1 - H   4          0.05679
       -------------------------------
              Total Lewis    9.86529  ( 98.1289%)
        Valence non-Lewis    0.07821  (  0.7779%)
        Rydberg non-Lewis    0.10990  (  1.0932%)
       -------------------------------
            Total unit  1   10.05340  (100.0000%)
           Charge unit  1   -0.05340

 Molecular unit  2  (Cl)
     4. CR (   1)Cl   3                  2.00001
     5. CR (   2)Cl   3                  2.00000
     6. CR (   3)Cl   3                  2.00003
     7. CR (   4)Cl   3                  2.00002
     8. CR (   5)Cl   3                  2.00003
    11. LP (   1)Cl   3                  1.97936
    12. LP (   2)Cl   3                  1.95277
    13. LP (   3)Cl   3                  1.95254
    14. LP (   4)Cl   3                  1.91394
    78. RY*(   1)Cl   3                  0.01837
    79. RY*(   2)Cl   3                  0.01834
    80. RY*(   3)Cl   3                  0.01827
    81. RY*(   4)Cl   3                  0.01826
    82. RY*(   5)Cl   3                  0.01791
    83. RY*(   6)Cl   3                  0.01329
    84. RY*(   7)Cl   3                  0.01326
    85. RY*(   8)Cl   3                  0.01109
    86. RY*(   9)Cl   3                  0.00256
    87. RY*(  10)Cl   3                  0.00130
    88. RY*(  11)Cl   3                  0.00129
    89. RY*(  12)Cl   3                  0.00130
    90. RY*(  13)Cl   3                  0.00129
    91. RY*(  14)Cl   3                  0.00129
    92. RY*(  15)Cl   3                  0.00128
    93. RY*(  16)Cl   3                  0.00126
    94. RY*(  17)Cl   3                  0.00099
    95. RY*(  18)Cl   3                  0.00099
    96. RY*(  19)Cl   3                  0.00076
    97. RY*(  20)Cl   3                  0.00075
    98. RY*(  21)Cl   3                  0.00071
    99. RY*(  22)Cl   3                  0.00055
   100. RY*(  23)Cl   3                  0.00054
   101. RY*(  24)Cl   3                  0.00052
   102. RY*(  25)Cl   3                  0.00021
   103. RY*(  26)Cl   3                  0.00014
   104. RY*(  27)Cl   3                  0.00014
   105. RY*(  28)Cl   3                  0.00015
   106. RY*(  29)Cl   3                  0.00015
   107. RY*(  30)Cl   3                  0.00014
   108. RY*(  31)Cl   3                  0.00014
   109. RY*(  32)Cl   3                  0.00014
   110. RY*(  33)Cl   3                  0.00010
   111. RY*(  34)Cl   3                  0.00010
   112. RY*(  35)Cl   3                  0.00008
   113. RY*(  36)Cl   3                  0.00008
   114. RY*(  37)Cl   3                  0.00008
   115. RY*(  38)Cl   3                  0.00005
   116. RY*(  39)Cl   3                  0.00002
   117. RY*(  40)Cl   3                  0.00002
   118. RY*(  41)Cl   3                  0.00001
       -------------------------------
              Total Lewis   17.79869  ( 99.1759%)
        Valence non-Lewis    0.00000  (  0.0000%)
        Rydberg non-Lewis    0.14791  (  0.8241%)
       -------------------------------
            Total unit  2   17.94660  (100.0000%)
           Charge unit  2   -0.94660
 Leave Link  607 at Fri Oct  8 13:07:46 2021, MaxMem= 16106127360 cpu:              68.4 elap:               2.5
 (Enter /sw/contrib/gaussian/g16/B01/g16/l9999.exe)
 1\1\GINC-N2218\SP\RMP2-FC\Aug-CC-pVTZ\Cl1H2O1(1-)\CGAVINH\08-Oct-2021\
 0\\#p pop=NBO SP NoSymm mp2/aug-cc-pvtz density=current\\title\\-1,1\O
 \X,1,10.\H,1,0.96061628,2,90.\Cl,1,3.08954942,2,90.,3,101.71720655,0\H
 ,1,0.95,2,90.,3,101.71720655,0\\Version=ES64L-G16RevB.01\HF=-535.65117
 55\MP2=-536.1325677\RMSD=5.500e-09\Dipole=0.7880465,0.9472996,0.\Quadr
 upole=9.9910978,-19.2543136,9.2632158,-5.6427593,0.,0.\PG=CS [SG(Cl1H2
 O1)]\\@


 SEEN ON A WALL AT THE UNIVERSITY OF ILLINOIS AT CHICAGO CIRCLE:

 TO DO IS TO BE  -- SOCRATES
 TO BE IS TO DO  -- SARTRE
 OO BE DO BE DO  -- SINATRA
 Job cpu time:       0 days  0 hours  3 minutes 13.7 seconds.
 Elapsed time:       0 days  0 hours  0 minutes  9.1 seconds.
 File lengths (MBytes):  RWF=     10 Int=      0 D2E=      0 Chk=      8 Scr=      1
 Normal termination of Gaussian 16 at Fri Oct  8 13:07:46 2021.
