title                                                                   
Scan      RMP2-FC                                                     Aug-CC-pVTZ         
Number of atoms                            I                4
Info1-9                                    I   N=           9
          19          19           0           0           0         100
           8           2           1
Full Title                                 C   N=           1
title       
Route                                      C   N=           5
#p opt=(z-matrix) mp2/aug-cc-pvtz density=current           
Charge                                     I               -1
Multiplicity                               I                1
Number of electrons                        I               28
Number of alpha electrons                  I               14
Number of beta electrons                   I               14
Number of basis functions                  I              142
Number of independent functions            I              142
Number of point charges in /Mol/           I                0
Number of translation vectors              I                0
Atomic numbers                             I   N=           4
           8           1          17           1
Nuclear charges                            R   N=           4
  8.00000000E+00  1.00000000E+00  1.70000000E+01  1.00000000E+00
Current cartesian coordinates              R   N=          12
  6.58323771E-02  3.80235691E+00  0.00000000E+00 -1.71164181E+00  4.17101084E+00
  0.00000000E+00  6.58323771E-02 -2.03604534E+00  4.93038066E-32  6.58323771E-02
  2.29046622E-02  7.70371978E-34
Number of symbols in /Mol/                 I                0
Force Field                                I                0
Atom Types                                 C   N=           4
                                                
Int Atom Types                             I   N=           4
           0           0           0           0
MM charges                                 R   N=           4
  0.00000000E+00  0.00000000E+00  0.00000000E+00  0.00000000E+00
Integer atomic weights                     I   N=           4
          16           2          35           1
Real atomic weights                        R   N=           4
  1.59949146E+01  2.01410179E+00  3.49688527E+01  1.00782504E+00
Atom fragment info                         I   N=           4
           0           0           0           0
Atom residue num                           I   N=           4
           0           0           0           0
Nuclear spins                              I   N=           4
           0           2           3           1
Nuclear ZEff                               R   N=           4
 -5.60000000E+00 -1.00000000E+00 -1.42400000E+01 -1.00000000E+00
Nuclear ZNuc                               R   N=           4
  8.00000000E+00  1.00000000E+00  1.70000000E+01  1.00000000E+00
Nuclear QMom                               R   N=           4
  0.00000000E+00  2.86000000E-01 -8.16500000E+00  0.00000000E+00
Nuclear GFac                               R   N=           4
  0.00000000E+00  8.57438000E-01  8.21874000E-01  2.79284600E+00
MicOpt                                     I   N=           4
          -1          -1          -1          -1
Number of residues                         I                0
Number of secondary structures             I                0
SymInf integers                            I   N=          26
           1           2           1           1           1           1
           1          -1           0           0           0           0
           0           0           0           0           0           0
           0           0           0           0           0           0
           0           0
RotTr to input orientation                 R   N=          12
 -9.79161867E-01  2.03081358E-01  4.51928706E-18  2.03081358E-01  9.79161867E-01
 -1.22381264E-16 -2.92784669E-17 -1.18913284E-16 -1.00000000E+00 -7.07727250E-01
 -3.73649222E+00  0.00000000E+00
Number of contracted shells                I               48
Number of primitive shells                 I              100
Pure/Cartesian d shells                    I                0
Pure/Cartesian f shells                    I                0
Highest angular momentum                   I                3
Largest degree of contraction              I               11
Shell types                                I   N=          48
           0           0           0           0           0           1
           1           1           1          -2          -2          -2
          -3          -3           0           0           0           0
           1           1           1          -2          -2           0
           0           0           0           0           0           1
           1           1           1           1          -2          -2
          -2          -3          -3           0           0           0
           0           1           1           1          -2          -2
Number of primitives per shell             I   N=          48
           7           6           1           1           1           3
           1           1           1           1           1           1
           1           1           3           1           1           1
           1           1           1           1           1          11
           9           8           1           1           1           6
           6           1           1           1           1           1
           1           1           1           3           1           1
           1           1           1           1           1           1
Shell to atom map                          I   N=          48
           1           1           1           1           1           1
           1           1           1           1           1           1
           1           1           2           2           2           2
           2           2           2           2           2           3
           3           3           3           3           3           3
           3           3           3           3           3           3
           3           3           3           4           4           4
           4           4           4           4           4           4
Primitive exponents                        R   N=         100
  1.53300000E+04  2.29900000E+03  5.22400000E+02  1.47300000E+02  4.75500000E+01
  1.67600000E+01  6.20700000E+00  5.22400000E+02  1.47300000E+02  4.75500000E+01
  1.67600000E+01  6.20700000E+00  6.88200000E-01  1.75200000E+00  2.38400000E-01
  7.37600000E-02  3.44600000E+01  7.74900000E+00  2.28000000E+00  7.15600000E-01
  2.14000000E-01  5.97400000E-02  2.31400000E+00  6.45000000E-01  2.14000000E-01
  1.42800000E+00  5.00000000E-01  3.38700000E+01  5.09500000E+00  1.15900000E+00
  3.25800000E-01  1.02700000E-01  2.52600000E-02  1.40700000E+00  3.88000000E-01
  1.02000000E-01  1.05700000E+00  2.47000000E-01  4.56100000E+05  6.83300000E+04
  1.55500000E+04  4.40500000E+03  1.43900000E+03  5.20400000E+02  2.03100000E+02
  8.39600000E+01  3.62000000E+01  1.58300000E+01  6.33400000E+00  4.40500000E+03
  1.43900000E+03  5.20400000E+02  2.03100000E+02  8.39600000E+01  3.62000000E+01
  1.58300000E+01  6.33400000E+00  2.69400000E+00  1.43900000E+03  2.03100000E+02
  8.39600000E+01  3.62000000E+01  1.58300000E+01  6.33400000E+00  2.69400000E+00
  4.31300000E-01  9.76800000E-01  1.62500000E-01  5.91000000E-02  6.63300000E+02
  1.56800000E+02  4.99800000E+01  1.84200000E+01  7.24000000E+00  2.92200000E+00
  1.56800000E+02  4.99800000E+01  1.84200000E+01  7.24000000E+00  2.92200000E+00
  3.81800000E-01  1.02200000E+00  1.30100000E-01  4.19000000E-02  1.04600000E+00
  3.44000000E-01  1.35000000E-01  7.06000000E-01  3.12000000E-01  3.38700000E+01
  5.09500000E+00  1.15900000E+00  3.25800000E-01  1.02700000E-01  2.52600000E-02
  1.40700000E+00  3.88000000E-01  1.02000000E-01  1.05700000E+00  2.47000000E-01
Contraction coefficients                   R   N=         100
  5.19808943E-04  4.02025621E-03  2.07128267E-02  8.10105536E-02  2.35962985E-01
  4.42653446E-01  3.57064423E-01 -4.42115008E-05 -1.22591041E-03 -1.05517725E-02
 -6.74452633E-02 -1.71198607E-01  1.07329856E+00  1.00000000E+00  1.00000000E+00
  1.00000000E+00  4.11634896E-02  2.57762836E-01  8.02419274E-01  1.00000000E+00
  1.00000000E+00  1.00000000E+00  1.00000000E+00  1.00000000E+00  1.00000000E+00
  1.00000000E+00  1.00000000E+00  2.54948632E-02  1.90362766E-01  8.52162022E-01
  1.00000000E+00  1.00000000E+00  1.00000000E+00  1.00000000E+00  1.00000000E+00
  1.00000000E+00  1.00000000E+00  1.00000000E+00  4.93229477E-05  3.83207967E-04
  2.00947816E-03  8.38950124E-03  2.94843950E-02  8.78759948E-02  2.11589759E-01
  3.65611554E-01  3.41246350E-01  1.02162570E-01  2.14249949E-03 -2.21747925E-06
 -1.71189708E-04 -1.27922846E-03 -9.32956265E-03 -3.98910062E-02 -1.05536085E-01
  9.36202446E-03  5.10511140E-01  5.73150737E-01  4.03949245E-06  2.12481765E-04
  8.59484452E-04  4.63248159E-03  4.47343490E-04 -7.38438245E-02 -3.62271994E-01
  1.16620337E+00  1.00000000E+00  1.00000000E+00  1.00000000E+00  2.47206402E-03
  1.97550234E-02  9.09917355E-02  2.63187834E-01  4.49078073E-01  3.60183072E-01
  3.03427809E-05 -1.22475826E-03 -6.01429772E-03 -2.76401323E-02  4.35105612E-04
  1.00307272E+00  1.00000000E+00  1.00000000E+00  1.00000000E+00  1.00000000E+00
  1.00000000E+00  1.00000000E+00  1.00000000E+00  1.00000000E+00  2.54948632E-02
  1.90362766E-01  8.52162022E-01  1.00000000E+00  1.00000000E+00  1.00000000E+00
  1.00000000E+00  1.00000000E+00  1.00000000E+00  1.00000000E+00  1.00000000E+00
Coordinates of each shell                  R   N=         144
  6.58323771E-02  3.80235691E+00 -3.80365639E-34  6.58323771E-02  3.80235691E+00
 -3.80365639E-34  6.58323771E-02  3.80235691E+00 -3.80365639E-34  6.58323771E-02
  3.80235691E+00 -3.80365639E-34  6.58323771E-02  3.80235691E+00 -3.80365639E-34
  6.58323771E-02  3.80235691E+00 -3.80365639E-34  6.58323771E-02  3.80235691E+00
 -3.80365639E-34  6.58323771E-02  3.80235691E+00 -3.80365639E-34  6.58323771E-02
  3.80235691E+00 -3.80365639E-34  6.58323771E-02  3.80235691E+00 -3.80365639E-34
  6.58323771E-02  3.80235691E+00 -3.80365639E-34  6.58323771E-02  3.80235691E+00
 -3.80365639E-34  6.58323771E-02  3.80235691E+00 -3.80365639E-34  6.58323771E-02
  3.80235691E+00 -3.80365639E-34 -1.71164181E+00  4.17101084E+00  9.88950662E-33
 -1.71164181E+00  4.17101084E+00  9.88950662E-33 -1.71164181E+00  4.17101084E+00
  9.88950662E-33 -1.71164181E+00  4.17101084E+00  9.88950662E-33 -1.71164181E+00
  4.17101084E+00  9.88950662E-33 -1.71164181E+00  4.17101084E+00  9.88950662E-33
 -1.71164181E+00  4.17101084E+00  9.88950662E-33 -1.71164181E+00  4.17101084E+00
  9.88950662E-33 -1.71164181E+00  4.17101084E+00  9.88950662E-33  6.58323771E-02
 -2.03604534E+00 -3.80365639E-34  6.58323771E-02 -2.03604534E+00 -3.80365639E-34
  6.58323771E-02 -2.03604534E+00 -3.80365639E-34  6.58323771E-02 -2.03604534E+00
 -3.80365639E-34  6.58323771E-02 -2.03604534E+00 -3.80365639E-34  6.58323771E-02
 -2.03604534E+00 -3.80365639E-34  6.58323771E-02 -2.03604534E+00 -3.80365639E-34
  6.58323771E-02 -2.03604534E+00 -3.80365639E-34  6.58323771E-02 -2.03604534E+00
 -3.80365639E-34  6.58323771E-02 -2.03604534E+00 -3.80365639E-34  6.58323771E-02
 -2.03604534E+00 -3.80365639E-34  6.58323771E-02 -2.03604534E+00 -3.80365639E-34
  6.58323771E-02 -2.03604534E+00 -3.80365639E-34  6.58323771E-02 -2.03604534E+00
 -3.80365639E-34  6.58323771E-02 -2.03604534E+00 -3.80365639E-34  6.58323771E-02
 -2.03604534E+00 -3.80365639E-34  6.58323771E-02  2.29046622E-02 -3.80365639E-34
  6.58323771E-02  2.29046622E-02 -3.80365639E-34  6.58323771E-02  2.29046622E-02
 -3.80365639E-34  6.58323771E-02  2.29046622E-02 -3.80365639E-34  6.58323771E-02
  2.29046622E-02 -3.80365639E-34  6.58323771E-02  2.29046622E-02 -3.80365639E-34
  6.58323771E-02  2.29046622E-02 -3.80365639E-34  6.58323771E-02  2.29046622E-02
 -3.80365639E-34  6.58323771E-02  2.29046622E-02 -3.80365639E-34
Num ILSW                                   I              100
ILSW                                       I   N=         100
           0           0           0           0           2           0
           0           0           0           0           0          -1
           5           0           0           0           2           0
           0           0           0           0           1           0
           1           0           0           0           0           0
           0           0      100000           0          -1           0
           0           0           0           0           0           0
           0           0           0           1           0           0
           0 -2000000000           1           0           0           0
           0           0           4          52           0           0
           0           0           0           0           0           0
           0           0           0           4           0           1
           0           0           0           0           0           0
           0           0           0           0           0           0
           0           0           0           0           0           0
           0           0           0           0           0           0
           0           0           0           0
Num RLSW                                   I               52
RLSW                                       R   N=          52
  1.00000000E+00  1.00000000E+00  1.00000000E+00  1.00000000E+00  1.00000000E+00
  0.00000000E+00  0.00000000E+00  1.00000000E+00  0.00000000E+00  0.00000000E+00
  0.00000000E+00  0.00000000E+00  1.00000000E+00  0.00000000E+00  0.00000000E+00
  0.00000000E+00  0.00000000E+00  1.00000000E+00  0.00000000E+00  0.00000000E+00
  0.00000000E+00  0.00000000E+00  1.00000000E+00  0.00000000E+00  0.00000000E+00
  0.00000000E+00  0.00000000E+00  1.00000000E+00  0.00000000E+00  0.00000000E+00
  0.00000000E+00  0.00000000E+00  1.00000000E+00  0.00000000E+00  0.00000000E+00
  0.00000000E+00  0.00000000E+00  0.00000000E+00  1.00000000E+00  1.00000000E+00
  0.00000000E+00  1.00000000E+00  0.00000000E+00  0.00000000E+00  0.00000000E+00
  0.00000000E+00  0.00000000E+00  0.00000000E+00  0.00000000E+00  0.00000000E+00
  0.00000000E+00  0.00000000E+00
MxBond                                     I                2
NBond                                      I   N=           4
           2           1           0           1
IBond                                      I   N=           8
           2           4           1           0           0           0
           1           0
RBond                                      R   N=           8
  1.00000000E+00  3.00000000E+00  1.00000000E+00  0.00000000E+00  0.00000000E+00
  0.00000000E+00  3.00000000E+00  0.00000000E+00
Virial Ratio                               R      1.999302204987998E+00
SCF Energy                                 R     -5.355209321028885E+02
MP2 Energy                                 R     -5.360194319703182E+02
Total Energy                               R     -5.360194319703182E+02
Post-SCF wavefunction norm                 R      1.074524055180870E+00
RMS Force                                  R      9.627984218242190E-02
RMS Density                                R      2.049535917666026E-09
Job Status                                 I                1
Nuclear derivative order                   I                1
External E-field                           R   N=          35
  0.00000000E+00  0.00000000E+00  0.00000000E+00  0.00000000E+00  0.00000000E+00
  0.00000000E+00  0.00000000E+00  0.00000000E+00  0.00000000E+00  0.00000000E+00
  0.00000000E+00  0.00000000E+00  0.00000000E+00  0.00000000E+00  0.00000000E+00
  0.00000000E+00  0.00000000E+00  0.00000000E+00  0.00000000E+00  0.00000000E+00
  0.00000000E+00  0.00000000E+00  0.00000000E+00  0.00000000E+00  0.00000000E+00
  0.00000000E+00  0.00000000E+00  0.00000000E+00  0.00000000E+00  0.00000000E+00
  0.00000000E+00  0.00000000E+00  0.00000000E+00  0.00000000E+00  0.00000000E+00
IOpCl                                      I                0
IROHF                                      I                0
Alpha Orbital Energies                     R   N=         142
 -1.04648529E+02 -2.02139592E+01 -1.03820368E+01 -7.85001570E+00 -7.84672080E+00
 -7.84671744E+00 -9.73429852E-01 -9.35851356E-01 -4.75738560E-01 -3.03168327E-01
 -3.01897790E-01 -2.83450679E-01 -1.45566188E-01 -1.41843277E-01  1.57608612E-01
  1.69714363E-01  2.38180692E-01  2.40782216E-01  2.44712820E-01  3.12119514E-01
  3.34030357E-01  3.61856482E-01  3.64250416E-01  4.02832891E-01  4.55303499E-01
  4.68052835E-01  4.74192652E-01  4.86792189E-01  5.02340845E-01  5.20422965E-01
  5.21114130E-01  5.72945925E-01  6.13013798E-01  6.26269757E-01  6.32748746E-01
  6.83678475E-01  7.25994478E-01  8.20485486E-01  8.51246459E-01  8.95444774E-01
  9.30689139E-01  9.58087097E-01  9.73003532E-01  9.78655735E-01  1.02099176E+00
  1.03970691E+00  1.05565142E+00  1.06110636E+00  1.07560450E+00  1.09699758E+00
  1.12535927E+00  1.14137953E+00  1.17990248E+00  1.19243951E+00  1.22564398E+00
  1.24158778E+00  1.24232577E+00  1.26066278E+00  1.28960270E+00  1.31877171E+00
  1.34685682E+00  1.35501064E+00  1.36352223E+00  1.39016588E+00  1.39203671E+00
  1.48743655E+00  1.64535830E+00  1.67072516E+00  1.67617954E+00  1.78111088E+00
  1.78157972E+00  1.83196136E+00  1.87222087E+00  1.89630772E+00  1.92253559E+00
  2.06593997E+00  2.14398737E+00  2.20340920E+00  2.34908838E+00  2.43493647E+00
  2.58988445E+00  2.61327280E+00  2.61444493E+00  2.64382981E+00  2.67593293E+00
  2.69737630E+00  2.70020531E+00  2.72975155E+00  2.73386425E+00  2.74920457E+00
  2.78102499E+00  2.83139888E+00  2.88401240E+00  2.92063420E+00  3.06715934E+00
  3.07874546E+00  3.10274747E+00  3.12484173E+00  3.22922292E+00  3.22936442E+00
  3.23038421E+00  3.23434470E+00  3.23892226E+00  3.30593683E+00  3.65492564E+00
  3.71002840E+00  3.79903251E+00  4.00593933E+00  4.24743316E+00  4.26711102E+00
  4.32537098E+00  4.44462102E+00  4.52494734E+00  4.56773099E+00  4.66445748E+00
  4.75267644E+00  4.81233970E+00  4.83477069E+00  4.88211396E+00  5.03994901E+00
  5.04469650E+00  5.12491193E+00  5.33287210E+00  5.56678684E+00  5.68895236E+00
  5.71057028E+00  6.08734827E+00  6.58115031E+00  7.01662664E+00  7.09915686E+00
  7.10316385E+00  7.17981863E+00  7.50183052E+00  7.53640603E+00  7.56927118E+00
  7.61215046E+00  7.63346259E+00  7.71177307E+00  7.84641574E+00  8.23923355E+00
  1.07990806E+01  1.39561848E+01
Alpha MO coefficients                      R   N=       20164
 -2.62210792E-07 -1.49511706E-06 -3.33623201E-07  5.53966484E-06  5.47161186E-08
 -1.28028028E-07  4.87036099E-07  0.00000000E+00  1.47269869E-06 -3.42775582E-06
  0.00000000E+00  1.26464543E-05 -2.70371819E-05  0.00000000E+00  2.45366043E-06
 -5.37569119E-06  0.00000000E+00 -2.74245873E-07  0.00000000E+00  0.00000000E+00
 -3.27943920E-07 -2.93826065E-07  3.83224147E-07  0.00000000E+00  0.00000000E+00
 -1.39766806E-06  2.08183052E-06  8.82751217E-07  0.00000000E+00  0.00000000E+00
 -4.82654846E-06  3.44218017E-06  0.00000000E+00  1.56721164E-07  9.71513303E-07
  0.00000000E+00  0.00000000E+00  4.67333095E-08  1.25399834E-06  0.00000000E+00
 -7.90474649E-07 -2.18006854E-06  0.00000000E+00  0.00000000E+00 -8.37574521E-07
 -5.28812068E-06 -2.60818798E-07  1.68366228E-05  2.13476734E-05  2.91961917E-06
  4.36380283E-07  1.07675003E-06  0.00000000E+00  6.09052074E-06  3.01019375E-06
  0.00000000E+00  5.85113718E-06 -1.88663212E-06  0.00000000E+00 -3.93329389E-07
  0.00000000E+00  0.00000000E+00  7.23754473E-07  6.50364171E-07 -6.92534451E-07
  0.00000000E+00  0.00000000E+00 -1.00025263E-06  1.80969172E-06  9.99531545E-01
  2.06723279E-03  3.63860812E-04 -4.89826192E-04  9.11146580E-05  9.72037152E-06
 -2.28008429E-07  5.02439386E-05  0.00000000E+00  5.31129613E-07  2.41009913E-04
  0.00000000E+00 -4.92785414E-08 -6.09761016E-05  0.00000000E+00 -3.46196609E-06
  2.88290539E-05  0.00000000E+00 -4.16539987E-07 -1.23005201E-06  0.00000000E+00
 -1.63114853E-06  0.00000000E+00  0.00000000E+00 -2.89708565E-06 -2.85217862E-08
 -4.75541000E-05  0.00000000E+00  0.00000000E+00 -8.18971130E-05  3.55776099E-08
  1.00014602E-06  0.00000000E+00  0.00000000E+00  1.77796371E-06 -1.71972329E-06
  0.00000000E+00 -1.60284100E-09 -2.53431993E-06  0.00000000E+00  0.00000000E+00
 -5.51717500E-08 -3.40681104E-06  0.00000000E+00  6.76485432E-08 -1.43891493E-05
  0.00000000E+00  0.00000000E+00  3.44538238E-07 -1.81680040E-05 -4.75183144E-06
 -3.12038405E-04 -7.97294124E-05 -3.34741660E-06 -6.62137027E-08 -2.46570652E-06
  0.00000000E+00  4.41074043E-07  1.80060395E-04  0.00000000E+00  4.93033487E-06
 -3.03634014E-06  0.00000000E+00  2.02618253E-07  0.00000000E+00  0.00000000E+00
  5.03298984E-07 -7.14640672E-08  3.19933683E-05  0.00000000E+00  0.00000000E+00
  5.43803599E-05  4.64517917E-08  9.76834149E-01 -9.14164345E-03  4.32910915E-02
  3.47607459E-03  1.00711952E-03 -1.43720297E-03  1.74696221E-04  0.00000000E+00
  1.33798416E-03 -8.81179673E-05  0.00000000E+00 -7.85315345E-04 -6.27848418E-04
  0.00000000E+00 -2.40899710E-04 -1.49580705E-04  0.00000000E+00 -2.87191970E-05
  0.00000000E+00  0.00000000E+00  5.22253960E-05 -2.71544329E-05  2.50754280E-04
  0.00000000E+00  0.00000000E+00 -3.99884484E-04  2.02834385E-04 -3.39378134E-04
  0.00000000E+00  0.00000000E+00  9.89125914E-05 -1.16636008E-04  0.00000000E+00
 -2.83598331E-05 -1.22293875E-05  0.00000000E+00  0.00000000E+00  2.60589624E-05
 -3.55967644E-05  0.00000000E+00 -1.52628173E-05  6.52758245E-05  0.00000000E+00
  0.00000000E+00  3.37273773E-05  4.55306353E-05  5.40789417E-04  3.57002312E-04
 -1.00742425E-03 -2.71238694E-05  2.47159641E-04 -7.15340013E-05  0.00000000E+00
  8.61152780E-04 -9.75040969E-05  0.00000000E+00 -1.32605135E-06  1.22940778E-04
  0.00000000E+00  4.99192136E-05  0.00000000E+00  0.00000000E+00 -8.13221035E-05
  3.23788555E-05 -2.68336315E-04  0.00000000E+00  0.00000000E+00  5.11898923E-04
 -1.43452742E-04  3.99402070E-06  5.87620335E-05  1.59965793E-04 -8.73058540E-06
 -7.60166762E-04 -1.69117496E-04 -3.79789731E-07 -8.92898170E-06  0.00000000E+00
  1.14745338E-05 -1.72977898E-04  0.00000000E+00  2.29859197E-06  3.27731811E-05
  0.00000000E+00  3.23501367E-04  4.35267231E-05  0.00000000E+00  6.84331461E-05
  6.72661976E-05  0.00000000E+00 -3.63435743E-06  0.00000000E+00  0.00000000E+00
  9.15740577E-07  2.81940488E-06  3.84253963E-05  0.00000000E+00  0.00000000E+00
  4.13422113E-05  2.55779457E-05 -9.37309516E-05  0.00000000E+00  0.00000000E+00
 -1.39572885E-04  1.71813631E-04  0.00000000E+00 -1.19798605E-06  5.89172099E-06
  0.00000000E+00  0.00000000E+00  2.00008872E-06  5.90003402E-06  0.00000000E+00
 -5.96703136E-06 -3.81118104E-05  0.00000000E+00  0.00000000E+00 -3.49346793E-05
 -4.95813945E-05  5.75940984E-05 -3.24505603E-05 -3.05863967E-04  9.25107786E-05
  6.37481246E-06  5.19731994E-05  0.00000000E+00 -7.25794626E-05 -3.31056203E-04
  0.00000000E+00 -4.28869067E-04 -1.03353420E-03  0.00000000E+00  1.24935228E-05
  0.00000000E+00  0.00000000E+00  1.52018604E-05  4.97074347E-06  1.29562505E-04
  0.00000000E+00  0.00000000E+00  2.51449632E-04  7.59955559E-05  5.74280961E-06
  1.05308421E-05 -1.06936356E-05  1.60352473E-04 -2.82262676E-04  5.72936868E-07
  1.41409759E-05  0.00000000E+00 -9.69149232E-06 -2.97450559E-05  0.00000000E+00
 -2.92232990E-04  3.50930339E-04  0.00000000E+00 -7.10588078E-05  2.07102033E-04
  0.00000000E+00  2.01061129E-06  0.00000000E+00  0.00000000E+00 -1.26307242E-07
  4.87184378E-06 -1.51706114E-05  0.00000000E+00  0.00000000E+00  9.52490746E-06
 -3.57736772E-05 -4.25962809E-05  0.00000000E+00  0.00000000E+00  8.01496026E-05
 -5.20464975E-05  0.00000000E+00 -1.84524357E-06 -6.64764407E-07  0.00000000E+00
  0.00000000E+00  1.38246574E-06 -1.70774393E-06  0.00000000E+00  1.40544173E-05
 -6.12380984E-06  0.00000000E+00  0.00000000E+00 -2.74831760E-06  2.58760844E-05
 -1.82054479E-06 -3.47296196E-04 -4.92424444E-04 -6.49932165E-05 -4.00799313E-06
  4.26007763E-06  0.00000000E+00 -9.66276502E-05 -5.92158747E-05  0.00000000E+00
 -1.25595528E-04  4.84211983E-05  0.00000000E+00  2.02241521E-06  0.00000000E+00
  0.00000000E+00 -7.72548553E-06 -9.36955643E-06 -1.08005467E-05  0.00000000E+00
  0.00000000E+00 -1.02164299E-05 -4.88230661E-05 -2.81188771E-01  9.77442120E-01
 -8.86969348E-03  8.07570308E-02  7.79620155E-03  1.81002964E-03 -1.46475873E-05
  2.56247650E-03  0.00000000E+00  2.44457474E-05 -4.49959559E-04  0.00000000E+00
 -8.20230757E-06  1.14703119E-03  0.00000000E+00  1.13593262E-04  1.55002638E-03
  0.00000000E+00  9.95008310E-06  3.36589763E-04  0.00000000E+00 -3.41806616E-04
  0.00000000E+00  0.00000000E+00 -5.85990924E-04 -1.33231915E-06  2.24514788E-04
  0.00000000E+00  0.00000000E+00  3.82242601E-04  2.47237632E-05 -2.63347438E-05
  0.00000000E+00  0.00000000E+00 -3.75827449E-05  5.33044246E-05  0.00000000E+00
 -7.66509121E-08 -2.01470814E-04  0.00000000E+00  0.00000000E+00  2.67318041E-07
 -2.60046453E-04  0.00000000E+00 -3.91711937E-06  1.78291463E-04  0.00000000E+00
  0.00000000E+00 -1.63465074E-05  2.32023793E-04  4.22587622E-04  3.28755422E-04
 -5.12863157E-03 -8.84248168E-05  4.42770163E-06  7.20631232E-05  0.00000000E+00
 -4.60066527E-05  4.62271019E-05  0.00000000E+00 -1.30761112E-04  2.91543007E-03
  0.00000000E+00  7.14415243E-05  0.00000000E+00  0.00000000E+00  1.23082635E-04
  6.16773027E-07  3.37377313E-05  0.00000000E+00  0.00000000E+00  5.80067043E-05
  5.04731047E-05 -6.51157175E-05 -3.94184129E-04  4.85845059E-06  2.03831196E-03
  2.48594663E-03  2.19891153E-05 -4.36649608E-06  0.00000000E+00 -1.76645486E-04
  1.99860745E-04  0.00000000E+00 -2.48899225E-04 -1.45812177E-03  0.00000000E+00
 -1.10486794E-04 -7.77452084E-04  0.00000000E+00  2.73097518E-05  0.00000000E+00
  0.00000000E+00  4.89314930E-05  3.98159112E-06 -1.30897019E-04  0.00000000E+00
  0.00000000E+00 -1.38346787E-04 -6.01960227E-05 -2.92065088E-04  0.00000000E+00
  0.00000000E+00 -4.54213186E-04 -4.46203953E-05  0.00000000E+00  5.13300611E-06
 -2.18202702E-05  0.00000000E+00  0.00000000E+00 -2.13121029E-07 -1.97927655E-05
  0.00000000E+00 -7.27512530E-06  1.31869404E-04  0.00000000E+00  0.00000000E+00
  2.28745070E-05  2.14694181E-04  1.16979722E-05 -5.54757627E-04 -4.11226303E-04
 -3.56868972E-05 -2.74393607E-06 -2.74849374E-05  0.00000000E+00 -3.98676184E-04
  1.66833452E-05  0.00000000E+00 -8.91029972E-05 -8.63074521E-05  0.00000000E+00
  2.68184858E-05  0.00000000E+00  0.00000000E+00 -3.79304711E-05 -2.40155701E-05
  3.23841412E-05  0.00000000E+00  0.00000000E+00 -1.09205026E-04  4.28515549E-05
  9.35554129E-04 -4.06645905E-03  9.55896808E-05  1.81590177E-03 -2.83571249E-02
 -6.71056863E-03 -7.15470176E-04  9.71543353E-01  0.00000000E+00  2.07005898E-05
 -1.83122176E-02  0.00000000E+00 -4.84996815E-05  6.21269735E-02  0.00000000E+00
 -1.66361399E-04 -1.05696434E-02  0.00000000E+00 -1.22290905E-05 -9.03636971E-04
  0.00000000E+00 -4.89247745E-04  0.00000000E+00  0.00000000E+00 -8.49868546E-04
 -2.30249975E-06  3.63086096E-03  0.00000000E+00  0.00000000E+00  6.30115207E-03
 -5.92775337E-06  1.32274757E-03  0.00000000E+00  0.00000000E+00  2.29128755E-03
 -8.15827744E-05  0.00000000E+00 -1.05430388E-06 -2.07587497E-04  0.00000000E+00
  0.00000000E+00 -5.38243265E-06 -2.67869905E-04  0.00000000E+00  5.39042296E-06
  1.60031664E-03  0.00000000E+00  0.00000000E+00  2.32690721E-05  2.07286388E-03
  6.18421287E-04  2.44154133E-02  1.48020097E-02  6.43597162E-04 -3.34117920E-06
 -1.00201135E-05  0.00000000E+00  2.93671315E-05 -8.62854217E-03  0.00000000E+00
  2.19194390E-04 -6.84503260E-03  0.00000000E+00 -2.23032971E-04  0.00000000E+00
  0.00000000E+00 -3.83211801E-04  1.11417061E-06  5.99812343E-04  0.00000000E+00
  0.00000000E+00  1.01500713E-03 -1.43286059E-05 -1.44708835E-06  6.14563757E-06
  4.33855129E-05 -2.21296497E-03  8.43511488E-05 -1.50585993E-05  6.64924647E-06
  0.00000000E+00  1.78614719E-04 -6.41421639E-05  0.00000000E+00  2.54430857E-03
  8.52792751E-05  0.00000000E+00  1.94998982E-04 -8.28773557E-06  0.00000000E+00
 -1.35469948E-05  0.00000000E+00  0.00000000E+00  4.60090923E-06 -1.45119372E-05
  1.62056214E-04  0.00000000E+00  0.00000000E+00 -1.71459646E-04  1.48688801E-04
  1.15740114E-04  0.00000000E+00  0.00000000E+00 -8.55491833E-04 -1.09117854E-03
  0.00000000E+00  9.64004359E-06  9.28007449E-06  0.00000000E+00  0.00000000E+00
  5.75270745E-05 -2.93914572E-05  0.00000000E+00 -1.48423121E-04 -2.80448496E-05
  0.00000000E+00  0.00000000E+00 -1.25701547E-04  8.42705225E-05 -9.63414360E-05
  3.11480600E-03 -6.95531092E-04 -1.16069914E-04  1.02202077E-04  1.24874953E-05
  0.00000000E+00  6.25343621E-04 -7.09639647E-04  0.00000000E+00 -3.29137130E-04
  3.55303683E-04  0.00000000E+00 -1.15536663E-04  0.00000000E+00  0.00000000E+00
 -4.21499897E-06 -2.22740774E-05  3.37101320E-04  0.00000000E+00  0.00000000E+00
  2.74224252E-04 -7.07471223E-05 -8.44176079E-06 -2.76374390E-05 -1.38886048E-04
  6.80015583E-06 -2.80715940E-04 -2.52490864E-04  9.72823226E-01  7.08999348E-04
  0.00000000E+00 -9.21415614E-03 -1.92190322E-04  0.00000000E+00  5.91135628E-02
  5.28919308E-05  0.00000000E+00  1.65221413E-03 -4.92874670E-04  0.00000000E+00
 -3.70534941E-04 -3.82474356E-05  0.00000000E+00 -1.46023284E-05  0.00000000E+00
  0.00000000E+00  2.34702621E-06  7.33180854E-04  1.14456114E-04  0.00000000E+00
  0.00000000E+00  6.66392076E-05 -2.85797990E-03  1.12748135E-04  0.00000000E+00
  0.00000000E+00  1.46428435E-04  3.53811961E-04  0.00000000E+00 -1.66256140E-05
 -2.03066850E-05  0.00000000E+00  0.00000000E+00 -5.55175276E-05  2.99545994E-06
  0.00000000E+00  1.97637479E-04  9.92058771E-05  0.00000000E+00  0.00000000E+00
  7.55598259E-04  4.23122015E-06  2.77939699E-06  2.75106174E-04  9.97813070E-04