 Entering Gaussian System, Link 0=g16
 Input=clhod_rOH_s_05-20.gjf
 Output=clhod_rOH_s_05-20.log
 Initial command:
 /sw/contrib/gaussian/g16/B01/g16/l1.exe "/scr/Gau-24134.inp" -scrdir="/scr/"
 Entering Link 1 = /sw/contrib/gaussian/g16/B01/g16/l1.exe PID=     24135.
  
 Copyright (c) 1988-2017, Gaussian, Inc.  All Rights Reserved.
  
 This is part of the Gaussian(R) 16 program.  It is based on
 the Gaussian(R) 09 system (copyright 2009, Gaussian, Inc.),
 the Gaussian(R) 03 system (copyright 2003, Gaussian, Inc.),
 the Gaussian(R) 98 system (copyright 1998, Gaussian, Inc.),
 the Gaussian(R) 94 system (copyright 1995, Gaussian, Inc.),
 the Gaussian 92(TM) system (copyright 1992, Gaussian, Inc.),
 the Gaussian 90(TM) system (copyright 1990, Gaussian, Inc.),
 the Gaussian 88(TM) system (copyright 1988, Gaussian, Inc.),
 the Gaussian 86(TM) system (copyright 1986, Carnegie Mellon
 University), and the Gaussian 82(TM) system (copyright 1983,
 Carnegie Mellon University). Gaussian is a federally registered
 trademark of Gaussian, Inc.
  
 This software contains proprietary and confidential information,
 including trade secrets, belonging to Gaussian, Inc.
  
 This software is provided under written license and may be
 used, copied, transmitted, or stored only in accord with that
 written license.
  
 The following legend is applicable only to US Government
 contracts under FAR:
  
                    RESTRICTED RIGHTS LEGEND
  
 Use, reproduction and disclosure by the US Government is
 subject to restrictions as set forth in subparagraphs (a)
 and (c) of the Commercial Computer Software - Restricted
 Rights clause in FAR 52.227-19.
  
 Gaussian, Inc.
 340 Quinnipiac St., Bldg. 40, Wallingford CT 06492
  
  
 ---------------------------------------------------------------
 Warning -- This program may not be used in any manner that
 competes with the business of Gaussian, Inc. or will provide
 assistance to any competitor of Gaussian, Inc.  The licensee
 of this program is prohibited from giving any competitor of
 Gaussian, Inc. access to this program.  By using this program,
 the user acknowledges that Gaussian, Inc. is engaged in the
 business of creating and licensing software in the field of
 computational chemistry and represents and warrants to the
 licensee that it is not a competitor of Gaussian, Inc. and that
 it will not use this program in any manner prohibited above.
 ---------------------------------------------------------------
  

 Cite this work as:
 Gaussian 16, Revision B.01,
 M. J. Frisch, G. W. Trucks, H. B. Schlegel, G. E. Scuseria, 
 M. A. Robb, J. R. Cheeseman, G. Scalmani, V. Barone, 
 G. A. Petersson, H. Nakatsuji, X. Li, M. Caricato, A. V. Marenich, 
 J. Bloino, B. G. Janesko, R. Gomperts, B. Mennucci, H. P. Hratchian, 
 J. V. Ortiz, A. F. Izmaylov, J. L. Sonnenberg, D. Williams-Young, 
 F. Ding, F. Lipparini, F. Egidi, J. Goings, B. Peng, A. Petrone, 
 T. Henderson, D. Ranasinghe, V. G. Zakrzewski, J. Gao, N. Rega, 
 G. Zheng, W. Liang, M. Hada, M. Ehara, K. Toyota, R. Fukuda, 
 J. Hasegawa, M. Ishida, T. Nakajima, Y. Honda, O. Kitao, H. Nakai, 
 T. Vreven, K. Throssell, J. A. Montgomery, Jr., J. E. Peralta, 
 F. Ogliaro, M. J. Bearpark, J. J. Heyd, E. N. Brothers, K. N. Kudin, 
 V. N. Staroverov, T. A. Keith, R. Kobayashi, J. Normand, 
 K. Raghavachari, A. P. Rendell, J. C. Burant, S. S. Iyengar, 
 J. Tomasi, M. Cossi, J. M. Millam, M. Klene, C. Adamo, R. Cammi, 
 J. W. Ochterski, R. L. Martin, K. Morokuma, O. Farkas, 
 J. B. Foresman, and D. J. Fox, Gaussian, Inc., Wallingford CT, 2016.
 
 ******************************************
 Gaussian 16:  ES64L-G16RevB.01 20-Dec-2017
                15-Nov-2021 
 ******************************************
 %nproc=28
 Will use up to   28 processors via shared memory.
 %mem=120GB
 %chk=/gscratch/ilahie/mccoygrp/coire_hocl/rOH_s_oop_0/clhod/clhod_rOH_s_05-20.ch
 k
 -------------------------------------------------
 #p opt=(z-matrix) mp2/aug-cc-pvtz density=current
 -------------------------------------------------
 1/10=7,18=40,38=1/1,3;
 2/12=2,17=6,18=5,29=3,40=1/2;
 3/5=16,6=1,7=10,11=9,25=1,30=1,71=1/1,2,3;
 4//1;
 5/5=2,38=5/2;
 8/6=4,10=1/1;
 9/15=2,16=-3/6;
 10/5=1/2;
 6/7=2,8=2,9=2,10=2,22=-1/1;
 7/12=2,29=1/1,2,3,16;
 1/10=7,18=40/3(2);
 2/29=3/2;
 99//99;
 2/29=3/2;
 3/5=16,6=1,7=10,11=9,25=1,30=1,71=1/1,2,3;
 4/5=5,16=3,69=1/1;
 5/5=2,38=5/2;
 8/6=4,10=1/1;
 9/15=2,16=-3/6;
 10/5=1/2;
 7/12=2/1,2,3,16;
 1/18=40/3(-8);
 2/29=3/2;
 6/7=2,8=2,9=2,10=2,22=-1/1;
 99/9=10/99;
 Leave Link    1 at Mon Nov 15 15:00:24 2021, MaxMem= 16106127360 cpu:               4.7 elap:               0.2
 (Enter /sw/contrib/gaussian/g16/B01/g16/l101.exe)
 -----
 title
 -----
 Symbolic Z-matrix:
 Charge = -1 Multiplicity = 1
 O
 X                    1     10. 
 H(iso=2)             1    r1       2     90. 
 Cl                   1    r2       2     90.      3    a1       0
 H                    1    r3       2    oop      3    a1       0
       Variables:
  r1                    0.96062 -1        0.     
  r2                    3.08955 -1        0.     
  r3                    0.5    Scan 30    0.05   
  a1                  101.71721 -1        0.     
  OOP                  90.      -1        0.     
 
 ITRead=  0  0  0  0
 MicOpt= -1 -1 -1 -1
 NAtoms=      4 NQM=        4 NQMF=       0 NMMI=      0 NMMIF=      0
                NMic=       0 NMicF=      0.
                    Isotopes and Nuclear Properties:
 (Nuclear quadrupole moments (NQMom) in fm**2, nuclear magnetic moments (NMagM)
  in nuclear magnetons)

  Atom         1           2           3           4
 IAtWgt=          16           2          35           1
 AtmWgt=  15.9949146   2.0141018  34.9688527   1.0078250
 NucSpn=           0           2           3           1
 AtZEff=  -0.0000000  -0.0000000  -0.0000000  -0.0000000
 NQMom=    0.0000000   0.2860000  -8.1650000   0.0000000
 NMagM=    0.0000000   0.8574380   0.8218740   2.7928460
 AtZNuc=   8.0000000   1.0000000  17.0000000   1.0000000
 Leave Link  101 at Mon Nov 15 15:00:24 2021, MaxMem= 16106127360 cpu:               3.8 elap:               0.2
 (Enter /sw/contrib/gaussian/g16/B01/g16/l103.exe)

 GradGradGradGradGradGradGradGradGradGradGradGradGradGradGradGradGradGrad
 Berny optimization.
 Initialization pass.
                       ----------------------------
                       !    Initial Parameters    !
                       ! (Angstroms and Degrees)  !
 ----------------------                            ----------------------
 !      Name          Value   Derivative information (Atomic Units)     !
 ------------------------------------------------------------------------
 !       r1          0.9606   Frozen                                    !
 !       r2          3.0895   Frozen                                    !
 !       r3          0.5      Scan                                      !
 !       a1        101.7172   Frozen                                    !
 !       OOP        90.0      Frozen                                    !
 ------------------------------------------------------------------------
 Trust Radius=3.00D-01 FncErr=1.00D-07 GrdErr=1.00D-07 EigMax=2.50D+02 EigMin=1.00D-04
 Number of optimizations in scan=  31
 Number of steps in this run=     20 maximum allowed number of steps=    100.
 GradGradGradGradGradGradGradGradGradGradGradGradGradGradGradGradGradGrad

 Leave Link  103 at Mon Nov 15 15:00:24 2021, MaxMem= 16106127360 cpu:               1.9 elap:               0.1
 (Enter /sw/contrib/gaussian/g16/B01/g16/l202.exe)
 ---------------------------------------------------------------------------------------------------
                            Z-MATRIX (ANGSTROMS AND DEGREES)
   CD    Cent   Atom    N1       Length/X        N2       Alpha/Y        N3        Beta/Z          J
 ---------------------------------------------------------------------------------------------------
      1      1  O 
      2         X        1  10.000000(     1)
      3      2  H        1   0.960616(     2)      2   90.000(     5)
      4      3  Cl       1   3.089549(     3)      2   90.000(     6)      3  101.717(     8)      0
      5      4  H        1   0.500000(     4)      2   90.000(     7)      3  101.717(     9)      0
 ---------------------------------------------------------------------------------------------------
                         Z-Matrix orientation:                         
 ---------------------------------------------------------------------
 Center     Atomic      Atomic             Coordinates (Angstroms)
 Number     Number       Type             X           Y           Z
 ---------------------------------------------------------------------
      1          8           0        0.000000    0.000000    0.000000
      2         -1           0        0.000000    0.000000   10.000000
      3          1           0        0.960616    0.000000    0.000000
      4         17           0       -0.627430   -3.025169    0.000000
      5          1           0       -0.101541   -0.489581    0.000000
 ---------------------------------------------------------------------
                    Distance matrix (angstroms):
                    1          2          3          4          5
     1  O    0.000000
     2  X   10.000000   0.000000
     3  H    0.960616  10.046033   0.000000
     4  Cl   3.089549  10.466390   3.416656   0.000000
     5  H    0.500000  10.012492   1.169558   2.589549   0.000000
 Stoichiometry    ClH2O(1-)
 Framework group  CS[SG(ClH2O)]
 Deg. of freedom     5
 Full point group                 CS      NOp   2
 Largest Abelian subgroup         CS      NOp   2
 Largest concise Abelian subgroup C1      NOp   1
                         Standard orientation:                         
 ---------------------------------------------------------------------
 Center     Atomic      Atomic             Coordinates (Angstroms)
 Number     Number       Type             X           Y           Z
 ---------------------------------------------------------------------
      1          8           0        0.034837    1.956565   -0.000000
      2          1           0       -0.905762    2.151648    0.000000
      3         17           0        0.034837   -1.132984   -0.000000
      4          1           0        0.034837    1.456565   -0.000000
 ---------------------------------------------------------------------
 Rotational constants (GHZ):         322.7628715           4.2969575           4.2405035
 Leave Link  202 at Mon Nov 15 15:00:25 2021, MaxMem= 16106127360 cpu:               2.6 elap:               0.1
 (Enter /sw/contrib/gaussian/g16/B01/g16/l301.exe)
 Standard basis: Aug-CC-pVTZ (5D, 7F)
 Ernie: Thresh=  0.10000D-02 Tol=  0.10000D-05 Strict=F.
 Ernie:  16 primitive shells out of 116 were deleted.
 There are   113 symmetry adapted cartesian basis functions of A'  symmetry.
 There are    51 symmetry adapted cartesian basis functions of A"  symmetry.
 There are    95 symmetry adapted basis functions of A'  symmetry.
 There are    47 symmetry adapted basis functions of A"  symmetry.
   142 basis functions,   240 primitive gaussians,   164 cartesian basis functions
    14 alpha electrons       14 beta electrons
       nuclear repulsion energy        42.7272753641 Hartrees.
 IExCor=    0 DFT=F Ex=HF Corr=None ExCW=0 ScaHFX=  1.000000
 ScaDFX=  1.000000  1.000000  1.000000  1.000000 ScalE2=  1.000000  1.000000
 IRadAn=      5 IRanWt=     -1 IRanGd=            0 ICorTp=0 IEmpDi=  4
 NAtoms=    4 NActive=    4 NUniq=    4 SFac= 1.00D+00 NAtFMM=   60 NAOKFM=F Big=F
 Integral buffers will be    131072 words long.
 Raffenetti 1 integral format.
 Two-electron integral symmetry is turned on.
 Leave Link  301 at Mon Nov 15 15:00:25 2021, MaxMem= 16106127360 cpu:               3.5 elap:               0.2
 (Enter /sw/contrib/gaussian/g16/B01/g16/l302.exe)
 NPDir=0 NMtPBC=     1 NCelOv=     1 NCel=       1 NClECP=     1 NCelD=      1
         NCelK=      1 NCelE2=     1 NClLst=     1 CellRange=     0.0.
 One-electron integrals computed using PRISM.
 One-electron integral symmetry used in STVInt
 NBasis=   142 RedAO= T EigKep=  1.26D-04  NBF=    95    47
 NBsUse=   142 1.00D-06 EigRej= -1.00D+00 NBFU=    95    47
 Leave Link  302 at Mon Nov 15 15:00:26 2021, MaxMem= 16106127360 cpu:               9.3 elap:               0.5
 (Enter /sw/contrib/gaussian/g16/B01/g16/l303.exe)
 DipDrv:  MaxL=1.
 Leave Link  303 at Mon Nov 15 15:00:26 2021, MaxMem= 16106127360 cpu:               4.8 elap:               0.2
 (Enter /sw/contrib/gaussian/g16/B01/g16/l401.exe)
 ExpMin= 2.53D-02 ExpMax= 4.56D+05 ExpMxC= 1.44D+03 IAcc=3 IRadAn=         5 AccDes= 0.00D+00
 Harris functional with IExCor=  205 and IRadAn=       5 diagonalized for initial guess.
 HarFok:  IExCor=  205 AccDes= 0.00D+00 IRadAn=         5 IDoV= 1 UseB2=F ITyADJ=14
 ICtDFT=  3500011 ScaDFX=  1.000000  1.000000  1.000000  1.000000
 FoFCou: FMM=F IPFlag=           0 FMFlag=      100000 FMFlg1=           0
         NFxFlg=           0 DoJE=T BraDBF=F KetDBF=T FulRan=T
         wScrn=  0.000000 ICntrl=       500 IOpCl=  0 I1Cent=   200000004 NGrid=           0
         NMat0=    1 NMatS0=      1 NMatT0=    0 NMatD0=    1 NMtDS0=    0 NMtDT0=    0
 Petite list used in FoFCou.
 Harris En= -534.818590481602    
 JPrj=0 DoOrth=F DoCkMO=F.
 Initial guess orbital symmetries:
       Occupied  (A') (A') (A') (A') (A') (A") (A') (A') (A') (A')
                 (A") (A') (A') (A")
       Virtual   (A') (A') (A') (A") (A') (A') (A") (A') (A') (A')
                 (A') (A') (A") (A") (A') (A") (A') (A') (A') (A")
                 (A') (A') (A') (A') (A') (A") (A") (A') (A') (A")
                 (A') (A") (A') (A") (A') (A') (A') (A") (A') (A")
                 (A') (A") (A') (A') (A') (A") (A") (A') (A') (A")
                 (A') (A') (A') (A') (A") (A') (A") (A") (A') (A')
                 (A') (A") (A') (A') (A') (A") (A') (A") (A') (A")
                 (A') (A') (A") (A") (A') (A') (A") (A') (A') (A')
                 (A") (A') (A") (A') (A') (A") (A') (A") (A') (A")
                 (A') (A') (A') (A') (A') (A") (A") (A') (A") (A')
                 (A') (A') (A") (A") (A') (A') (A") (A') (A') (A")
                 (A') (A') (A') (A') (A") (A') (A") (A') (A") (A")
                 (A') (A') (A') (A") (A') (A') (A') (A')
 The electronic state of the initial guess is 1-A'.
 Leave Link  401 at Mon Nov 15 15:00:27 2021, MaxMem= 16106127360 cpu:              11.3 elap:               0.5
 (Enter /sw/contrib/gaussian/g16/B01/g16/l502.exe)
 Keep R1 ints in memory in symmetry-blocked form, NReq=77720007.
 FoFCou: FMM=F IPFlag=           0 FMFlag=           0 FMFlg1=           0
         NFxFlg=           0 DoJE=F BraDBF=F KetDBF=F FulRan=T
         wScrn=  0.000000 ICntrl=       600 IOpCl=  0 I1Cent=           0 NGrid=           0
         NMat0=    1 NMatS0=  10153 NMatT0=    0 NMatD0=    1 NMtDS0=    0 NMtDT0=    0
 Petite list used in FoFCou.
 Closed shell SCF:
 Using DIIS extrapolation, IDIIS=  1040.
 NGot= 16106127360 LenX= 16079895157 LenY= 16079867820
 Requested convergence on RMS density matrix=1.00D-08 within 128 cycles.
 Requested convergence on MAX density matrix=1.00D-06.
 Requested convergence on             energy=1.00D-06.
 No special actions if energy rises.

 Cycle   1  Pass 1  IDiag  1:
 E= -534.563332401042    
 DIIS: error= 7.20D-02 at cycle   1 NSaved=   1.
 NSaved= 1 IEnMin= 1 EnMin= -534.563332401042     IErMin= 1 ErrMin= 7.20D-02
 ErrMax= 7.20D-02  0.00D+00 EMaxC= 1.00D-01 BMatC= 6.73D-01 BMatP= 6.73D-01
 IDIUse=3 WtCom= 2.80D-01 WtEn= 7.20D-01
 Coeff-Com:  0.100D+01
 Coeff-En:   0.100D+01
 Coeff:      0.100D+01
 Gap=     0.373 Goal=   None    Shift=    0.000
 GapD=    0.373 DampG=1.000 DampE=0.500 DampFc=0.5000 IDamp=-1.
 Damping current iteration by 5.00D-01
 RMSDP=3.26D-03 MaxDP=9.02D-02              OVMax= 2.22D-01

 Cycle   2  Pass 1  IDiag  1:
 E= -534.736635234545     Delta-E=       -0.173302833503 Rises=F Damp=T
 DIIS: error= 1.86D-02 at cycle   2 NSaved=   2.
 NSaved= 2 IEnMin= 2 EnMin= -534.736635234545     IErMin= 2 ErrMin= 1.86D-02
 ErrMax= 1.86D-02  0.00D+00 EMaxC= 1.00D-01 BMatC= 8.45D-02 BMatP= 6.73D-01
 IDIUse=3 WtCom= 8.14D-01 WtEn= 1.86D-01
 Coeff-Com: -0.379D+00 0.138D+01
 Coeff-En:   0.000D+00 0.100D+01
 Coeff:     -0.308D+00 0.131D+01
 Gap=     0.287 Goal=   None    Shift=    0.000
 RMSDP=8.32D-04 MaxDP=3.31D-02 DE=-1.73D-01 OVMax= 9.36D-02

 Cycle   3  Pass 1  IDiag  1:
 E= -534.883556419782     Delta-E=       -0.146921185237 Rises=F Damp=F
 DIIS: error= 2.75D-03 at cycle   3 NSaved=   3.
 NSaved= 3 IEnMin= 3 EnMin= -534.883556419782     IErMin= 3 ErrMin= 2.75D-03
 ErrMax= 2.75D-03  0.00D+00 EMaxC= 1.00D-01 BMatC= 7.33D-04 BMatP= 8.45D-02
 IDIUse=3 WtCom= 9.72D-01 WtEn= 2.75D-02
 Coeff-Com: -0.399D-01 0.538D-01 0.986D+00
 Coeff-En:   0.000D+00 0.000D+00 0.100D+01
 Coeff:     -0.388D-01 0.524D-01 0.986D+00
 Gap=     0.297 Goal=   None    Shift=    0.000
 RMSDP=1.33D-04 MaxDP=3.82D-03 DE=-1.47D-01 OVMax= 8.40D-03

 Cycle   4  Pass 1  IDiag  1:
 E= -534.884147013913     Delta-E=       -0.000590594132 Rises=F Damp=F
 DIIS: error= 5.63D-04 at cycle   4 NSaved=   4.
 NSaved= 4 IEnMin= 4 EnMin= -534.884147013913     IErMin= 4 ErrMin= 5.63D-04
 ErrMax= 5.63D-04  0.00D+00 EMaxC= 1.00D-01 BMatC= 3.85D-05 BMatP= 7.33D-04
 IDIUse=3 WtCom= 9.94D-01 WtEn= 5.63D-03
 Coeff-Com:  0.200D-02-0.704D-02 0.448D-01 0.960D+00
 Coeff-En:   0.000D+00 0.000D+00 0.000D+00 0.100D+01
 Coeff:      0.199D-02-0.700D-02 0.445D-01 0.960D+00
 Gap=     0.292 Goal=   None    Shift=    0.000
 RMSDP=4.36D-05 MaxDP=8.45D-04 DE=-5.91D-04 OVMax= 2.66D-03

 Cycle   5  Pass 1  IDiag  1:
 E= -534.884201670870     Delta-E=       -0.000054656956 Rises=F Damp=F
 DIIS: error= 2.65D-04 at cycle   5 NSaved=   5.
 NSaved= 5 IEnMin= 5 EnMin= -534.884201670870     IErMin= 5 ErrMin= 2.65D-04
 ErrMax= 2.65D-04  0.00D+00 EMaxC= 1.00D-01 BMatC= 5.89D-06 BMatP= 3.85D-05
 IDIUse=3 WtCom= 9.97D-01 WtEn= 2.65D-03
 Coeff-Com:  0.484D-02-0.842D-02-0.970D-01 0.754D-01 0.103D+01
 Coeff-En:   0.000D+00 0.000D+00 0.000D+00 0.000D+00 0.100D+01
 Coeff:      0.483D-02-0.840D-02-0.968D-01 0.752D-01 0.103D+01
 Gap=     0.294 Goal=   None    Shift=    0.000
 RMSDP=2.09D-05 MaxDP=4.91D-04 DE=-5.47D-05 OVMax= 1.63D-03

 Cycle   6  Pass 1  IDiag  1:
 E= -534.884213052577     Delta-E=       -0.000011381708 Rises=F Damp=F
 DIIS: error= 7.52D-05 at cycle   6 NSaved=   6.
 NSaved= 6 IEnMin= 6 EnMin= -534.884213052577     IErMin= 6 ErrMin= 7.52D-05
 ErrMax= 7.52D-05  0.00D+00 EMaxC= 1.00D-01 BMatC= 3.56D-07 BMatP= 5.89D-06
 IDIUse=1 WtCom= 1.00D+00 WtEn= 0.00D+00
 Coeff-Com: -0.471D-03 0.156D-02-0.420D-04-0.718D-01-0.149D+00 0.122D+01
 Coeff:     -0.471D-03 0.156D-02-0.420D-04-0.718D-01-0.149D+00 0.122D+01
 Gap=     0.294 Goal=   None    Shift=    0.000
 RMSDP=7.55D-06 MaxDP=2.16D-04 DE=-1.14D-05 OVMax= 6.66D-04

 Cycle   7  Pass 1  IDiag  1:
 E= -534.884214099860     Delta-E=       -0.000001047283 Rises=F Damp=F
 DIIS: error= 1.25D-05 at cycle   7 NSaved=   7.
 NSaved= 7 IEnMin= 7 EnMin= -534.884214099860     IErMin= 7 ErrMin= 1.25D-05
 ErrMax= 1.25D-05  0.00D+00 EMaxC= 1.00D-01 BMatC= 1.17D-08 BMatP= 3.56D-07
 IDIUse=1 WtCom= 1.00D+00 WtEn= 0.00D+00
 Coeff-Com: -0.420D-04-0.101D-03 0.275D-02 0.155D-01-0.303D-02-0.282D+00
 Coeff-Com:  0.127D+01
 Coeff:     -0.420D-04-0.101D-03 0.275D-02 0.155D-01-0.303D-02-0.282D+00
 Coeff:      0.127D+01
 Gap=     0.294 Goal=   None    Shift=    0.000
 RMSDP=1.47D-06 MaxDP=3.51D-05 DE=-1.05D-06 OVMax= 1.18D-04

 Cycle   8  Pass 1  IDiag  1:
 E= -534.884214133252     Delta-E=       -0.000000033391 Rises=F Damp=F
 DIIS: error= 3.10D-06 at cycle   8 NSaved=   8.
 NSaved= 8 IEnMin= 8 EnMin= -534.884214133252     IErMin= 8 ErrMin= 3.10D-06
 ErrMax= 3.10D-06  0.00D+00 EMaxC= 1.00D-01 BMatC= 5.02D-10 BMatP= 1.17D-08
 IDIUse=1 WtCom= 1.00D+00 WtEn= 0.00D+00
 Coeff-Com:  0.306D-04-0.687D-04-0.358D-03 0.115D-02 0.959D-02-0.336D-01
 Coeff-Com: -0.114D+00 0.114D+01
 Coeff:      0.306D-04-0.687D-04-0.358D-03 0.115D-02 0.959D-02-0.336D-01
 Coeff:     -0.114D+00 0.114D+01
 Gap=     0.294 Goal=   None    Shift=    0.000
 RMSDP=3.42D-07 MaxDP=1.23D-05 DE=-3.34D-08 OVMax= 1.77D-05

 Cycle   9  Pass 1  IDiag  1:
 E= -534.884214134401     Delta-E=       -0.000000001150 Rises=F Damp=F
 DIIS: error= 5.09D-07 at cycle   9 NSaved=   9.
 NSaved= 9 IEnMin= 9 EnMin= -534.884214134401     IErMin= 9 ErrMin= 5.09D-07
 ErrMax= 5.09D-07  0.00D+00 EMaxC= 1.00D-01 BMatC= 2.55D-11 BMatP= 5.02D-10
 IDIUse=1 WtCom= 1.00D+00 WtEn= 0.00D+00
 Coeff-Com: -0.379D-05 0.175D-04-0.665D-04-0.921D-03-0.142D-02 0.201D-01
 Coeff-Com: -0.502D-01-0.160D+00 0.119D+01
 Coeff:     -0.379D-05 0.175D-04-0.665D-04-0.921D-03-0.142D-02 0.201D-01
 Coeff:     -0.502D-01-0.160D+00 0.119D+01
 Gap=     0.294 Goal=   None    Shift=    0.000
 RMSDP=8.66D-08 MaxDP=3.38D-06 DE=-1.15D-09 OVMax= 3.60D-06

 Cycle  10  Pass 1  IDiag  1:
 E= -534.884214134461     Delta-E=       -0.000000000060 Rises=F Damp=F
 DIIS: error= 8.36D-08 at cycle  10 NSaved=  10.
 NSaved=10 IEnMin=10 EnMin= -534.884214134461     IErMin=10 ErrMin= 8.36D-08
 ErrMax= 8.36D-08  0.00D+00 EMaxC= 1.00D-01 BMatC= 1.25D-12 BMatP= 2.55D-11
 IDIUse=1 WtCom= 1.00D+00 WtEn= 0.00D+00
 Coeff-Com: -0.251D-05 0.607D-05 0.169D-04-0.136D-03-0.700D-03 0.365D-02
 Coeff-Com:  0.218D-02-0.683D-01 0.632D-01 0.100D+01
 Coeff:     -0.251D-05 0.607D-05 0.169D-04-0.136D-03-0.700D-03 0.365D-02
 Coeff:      0.218D-02-0.683D-01 0.632D-01 0.100D+01
 Gap=     0.294 Goal=   None    Shift=    0.000
 RMSDP=1.06D-08 MaxDP=1.91D-07 DE=-5.99D-11 OVMax= 7.32D-07

 Cycle  11  Pass 1  IDiag  1:
 E= -534.884214134464     Delta-E=       -0.000000000002 Rises=F Damp=F
 DIIS: error= 2.41D-08 at cycle  11 NSaved=  11.
 NSaved=11 IEnMin=11 EnMin= -534.884214134464     IErMin=11 ErrMin= 2.41D-08
 ErrMax= 2.41D-08  0.00D+00 EMaxC= 1.00D-01 BMatC= 4.77D-14 BMatP= 1.25D-12
 IDIUse=1 WtCom= 1.00D+00 WtEn= 0.00D+00
 Coeff-Com:  0.545D-06-0.158D-05-0.712D-06 0.498D-04 0.174D-03-0.134D-02
 Coeff-Com:  0.128D-02 0.188D-01-0.655D-01-0.164D+00 0.121D+01
 Coeff:      0.545D-06-0.158D-05-0.712D-06 0.498D-04 0.174D-03-0.134D-02
 Coeff:      0.128D-02 0.188D-01-0.655D-01-0.164D+00 0.121D+01
 Gap=     0.294 Goal=   None    Shift=    0.000
 RMSDP=5.70D-09 MaxDP=2.33D-07 DE=-2.39D-12 OVMax= 1.85D-07

 SCF Done:  E(RHF) =  -534.884214134     A.U. after   11 cycles
            NFock= 11  Conv=0.57D-08     -V/T= 1.9944
 KE= 5.378822904028D+02 PE=-1.368335347627D+03 EE= 2.528415677259D+02
 Leave Link  502 at Mon Nov 15 15:00:29 2021, MaxMem= 16106127360 cpu:              29.9 elap:               1.4
 (Enter /sw/contrib/gaussian/g16/B01/g16/l801.exe)
 ExpMin= 2.53D-02 ExpMax= 4.56D+05 ExpMxC= 1.44D+03 IAcc=3 IRadAn=         5 AccDes= 0.00D+00
 HarFok:  IExCor=  205 AccDes= 0.00D+00 IRadAn=         5 IDoV=-2 UseB2=F ITyADJ=14
 ICtDFT= 12500011 ScaDFX=  1.000000  1.000000  1.000000  1.000000
 Largest valence mixing into a core orbital is  4.54D-04
 Largest core mixing into a valence orbital is  1.84D-04
 Range of M.O.s used for correlation:     7   142
 NBasis=   142 NAE=    14 NBE=    14 NFC=     6 NFV=     0
 NROrb=    136 NOA=     8 NOB=     8 NVA=   128 NVB=   128

 **** Warning!!: The largest alpha MO coefficient is  0.25945994D+02

 Leave Link  801 at Mon Nov 15 15:00:29 2021, MaxMem= 16106127360 cpu:               4.4 elap:               0.3
 (Enter /sw/contrib/gaussian/g16/B01/g16/l906.exe)
 Frozen-core derivative calculation, NFC=   6 NFV=   0.
 FulOut=F Deriv=T AODrv=T NAtomX=     4
   MMem=         252  MDisk=           8 MDiskD=           8
  W3Min=      326032 MinDsk=      657538 NBas6D=         164
 NBas2D=       13905    NTT=       13530    LW2=     3500000
    MDV= 16105837423 MDiskM=      490970 NBas2p=       13825
 Fully direct method using O(ONN) memory.
 IMap=   1   2   3   4   5   6   7   8   9  10  11  12  13  14
 JobTyp=1 Pass  1:  I=   7 to  14 NPSUse= 28 ParTrn=T ParDer=T DoDerP=T.
 Spin components of T(2) and E(2):
     alpha-alpha T2 =       0.1762717017D-01 E2=     -0.5733674079D-01
     alpha-beta  T2 =       0.9766620101D-01 E2=     -0.3499430980D+00
     beta-beta   T2 =       0.1762717017D-01 E2=     -0.5733674079D-01
 The integrals were generated   1 times.
 ANorm=    0.1064387402D+01
 E2 =    -0.4646165796D+00 EUMP2 =    -0.53534883071403D+03
 Leave Link  906 at Mon Nov 15 15:00:34 2021, MaxMem= 16106127360 cpu:             123.5 elap:               4.6
 (Enter /sw/contrib/gaussian/g16/B01/g16/l1002.exe)
 Minotr:  Closed shell wavefunction.
          Computing MP2/KS-MP2 derivatives.
          Using Z-Vector for PSCF gradient.
          Skipping F1 and S1 gradient terms here.
          IDoAtm=1111
          Frozen-core window.
          Direct CPHF calculation.
          Differentiating once with respect to electric field.
                with respect to dipole field.
          Differentiating once with respect to nuclear coordinates.
          Using symmetry in CPHF.
          Requested convergence is 1.0D-10 RMS, and 1.0D-09 maximum.
          NewPWx=F KeepS1=T KeepF1=T KeepIn=T MapXYZ=F SortEE=F KeepMc=T.
 Keep R1 ints in memory in symmetry-blocked form, NReq=77720971.
 FoFCou: FMM=F IPFlag=           0 FMFlag=           0 FMFlg1=           0
         NFxFlg=           0 DoJE=F BraDBF=F KetDBF=F FulRan=T
         wScrn=  0.000000 ICntrl=       600 IOpCl=  0 I1Cent=           0 NGrid=           0
         NMat0=    1 NMatS0=  10153 NMatT0=    0 NMatD0=    1 NMtDS0=    0 NMtDT0=    0
 Petite list used in FoFCou.
          MDV=   16106127360 using IRadAn=       5.
          Solving linear equations separately, MaxMat=       0.
          There are     1 degrees of freedom in the 1st order CPHF.  IDoFFX=0 NUNeed=     1.
 LinEq1:  Iter=  0 NonCon=     1 RMS=2.47D-03 Max=3.46D-02 NDo=     1
 AX will form     1 AO Fock derivatives at one time.
 LinEq1:  Iter=  1 NonCon=     1 RMS=3.13D-04 Max=2.94D-03 NDo=     1
 LinEq1:  Iter=  2 NonCon=     1 RMS=8.87D-05 Max=1.08D-03 NDo=     1
 LinEq1:  Iter=  3 NonCon=     1 RMS=2.12D-05 Max=2.30D-04 NDo=     1
 LinEq1:  Iter=  4 NonCon=     1 RMS=3.69D-06 Max=3.40D-05 NDo=     1
 LinEq1:  Iter=  5 NonCon=     1 RMS=7.08D-07 Max=5.16D-06 NDo=     1
 LinEq1:  Iter=  6 NonCon=     1 RMS=1.45D-07 Max=1.61D-06 NDo=     1
 LinEq1:  Iter=  7 NonCon=     1 RMS=4.01D-08 Max=3.79D-07 NDo=     1
 LinEq1:  Iter=  8 NonCon=     1 RMS=1.08D-08 Max=1.15D-07 NDo=     1
 LinEq1:  Iter=  9 NonCon=     1 RMS=3.18D-09 Max=3.68D-08 NDo=     1
 LinEq1:  Iter= 10 NonCon=     1 RMS=5.31D-10 Max=4.59D-09 NDo=     1
 LinEq1:  Iter= 11 NonCon=     0 RMS=7.90D-11 Max=7.67D-10 NDo=     1
 Linear equations converged to 1.000D-10 1.000D-09 after    11 iterations.
 End of Minotr F.D. properties file   721 does not exist.
 End of Minotr F.D. properties file   722 does not exist.
 End of Minotr F.D. properties file   788 does not exist.
 Leave Link 1002 at Mon Nov 15 15:00:36 2021, MaxMem= 16106127360 cpu:              27.5 elap:               1.3
 (Enter /sw/contrib/gaussian/g16/B01/g16/l601.exe)
 Copying SCF densities to generalized density rwf, IOpCl= 0 IROHF=0.

 **********************************************************************

            Population analysis using the MP2 Density.

 **********************************************************************

 Orbital symmetries:
       Occupied  (A') (A') (A') (A') (A") (A') (A') (A') (A') (A')
                 (A") (A') (A') (A")
       Virtual   (A') (A') (A') (A") (A') (A') (A') (A") (A') (A')
                 (A") (A') (A') (A") (A') (A') (A") (A') (A') (A")
                 (A') (A') (A') (A') (A') (A") (A") (A') (A") (A')
                 (A') (A') (A") (A") (A') (A") (A') (A') (A') (A')
                 (A") (A') (A') (A") (A') (A") (A') (A") (A') (A")
                 (A') (A') (A') (A') (A") (A') (A") (A") (A') (A')
                 (A') (A") (A') (A') (A') (A") (A') (A') (A") (A")
                 (A') (A') (A') (A") (A') (A") (A') (A") (A') (A')
                 (A") (A') (A") (A') (A') (A") (A') (A") (A') (A")
                 (A') (A') (A') (A') (A') (A") (A") (A') (A') (A")
                 (A') (A") (A') (A') (A") (A') (A') (A") (A') (A')
                 (A") (A') (A') (A') (A") (A') (A") (A') (A") (A")
                 (A') (A') (A') (A") (A') (A') (A') (A')
 The electronic state is 1-A'.
 Alpha  occ. eigenvalues -- -104.51452 -20.36588 -10.23857  -7.70465  -7.70463
 Alpha  occ. eigenvalues --   -7.70462  -1.40435  -0.74511  -0.68127  -0.46141
 Alpha  occ. eigenvalues --   -0.37466  -0.16410  -0.16073  -0.16045
 Alpha virt. eigenvalues --    0.13328   0.17683   0.25633   0.25736   0.27609
 Alpha virt. eigenvalues --    0.28613   0.29657   0.30098   0.34004   0.39271
 Alpha virt. eigenvalues --    0.40740   0.42067   0.43210   0.51043   0.53320
 Alpha virt. eigenvalues --    0.56875   0.59085   0.59460   0.61575   0.66321
 Alpha virt. eigenvalues --    0.67329   0.68589   0.70220   0.82133   0.85277
 Alpha virt. eigenvalues --    0.87221   0.88118   0.89266   0.90821   0.91160
 Alpha virt. eigenvalues --    1.03982   1.06303   1.06551   1.07327   1.08227
 Alpha virt. eigenvalues --    1.09774   1.10096   1.14254   1.16375   1.21382
 Alpha virt. eigenvalues --    1.22067   1.22164   1.24937   1.26286   1.28076
 Alpha virt. eigenvalues --    1.32462   1.34762   1.35173   1.37655   1.45901
 Alpha virt. eigenvalues --    1.45980   1.46715   1.54378   1.55577   1.57947
 Alpha virt. eigenvalues --    1.66508   1.66717   1.72595   1.77923   1.82303
 Alpha virt. eigenvalues --    1.87484   2.09919   2.11485   2.24149   2.30895
 Alpha virt. eigenvalues --    2.45004   2.48603   2.54390   2.54843   2.69234
 Alpha virt. eigenvalues --    2.73401   2.80565   2.82119   2.82129   2.83486
 Alpha virt. eigenvalues --    2.84663   2.89741   2.93091   2.98146   2.98678
 Alpha virt. eigenvalues --    2.99242   2.99533   3.04994   3.16948   3.32690
 Alpha virt. eigenvalues --    3.36020   3.36072   3.39501   3.39751   3.50941
 Alpha virt. eigenvalues --    3.52561   3.58278   3.85331   4.14498   4.30519
 Alpha virt. eigenvalues --    4.33299   4.47133   4.63603   4.69794   4.70905
 Alpha virt. eigenvalues --    4.82371   5.01077   5.04171   5.05785   5.12336
 Alpha virt. eigenvalues --    5.27848   5.61054   5.64468   5.80107   6.05560
 Alpha virt. eigenvalues --    6.09078   6.35829   6.66129   6.88047   7.14861
 Alpha virt. eigenvalues --    7.16759   7.21195   7.22127   7.41226   7.50998
 Alpha virt. eigenvalues --    7.84726   8.05126   8.55040  10.24070  10.30923
 Alpha virt. eigenvalues --   10.69574  13.11481  25.13479
          Condensed to atoms (all electrons):
               1          2          3          4
     1  O    7.827067   0.288830  -0.028153   0.196467
     2  H    0.288830   0.590200   0.013503  -0.050707
     3  Cl  -0.028153   0.013503  18.006112   0.001621
     4  H    0.196467  -0.050707   0.001621   0.733498
 Mulliken charges:
               1
     1  O   -0.284211
     2  H    0.158174
     3  Cl  -0.993083
     4  H    0.119120
 Sum of Mulliken charges =  -1.00000
 Mulliken charges with hydrogens summed into heavy atoms:
               1
     1  O   -0.006917
     3  Cl  -0.993083
 Electronic spatial extent (au):  <R**2>=            274.3287
 Charge=             -1.0000 electrons
 Dipole moment (field-independent basis, Debye):
    X=             -1.6425    Y=              4.0989    Z=              0.0000  Tot=              4.4157
 Quadrupole moment (field-independent basis, Debye-Ang):
   XX=            -22.3926   YY=            -33.5130   ZZ=            -24.6415
   XY=             -3.6913   XZ=              0.0000   YZ=             -0.0000
 Traceless Quadrupole moment (field-independent basis, Debye-Ang):
   XX=              4.4564   YY=             -6.6639   ZZ=              2.2075
   XY=             -3.6913   XZ=              0.0000   YZ=             -0.0000
 Octapole moment (field-independent basis, Debye-Ang**2):
  XXX=             -2.3174  YYY=             17.9125  ZZZ=             -0.0000  XYY=             -9.0538
  XXY=             10.1679  XXZ=              0.0000  XZZ=             -0.2120  YZZ=              5.3251
  YYZ=              0.0000  XYZ=             -0.0000
 Hexadecapole moment (field-independent basis, Debye-Ang**3):
 XXXX=            -37.2274 YYYY=           -348.4719 ZZZZ=            -37.7577 XXXY=             -0.2890
 XXXZ=              0.0000 YYYX=            -16.5094 YYYZ=             -0.0000 ZZZX=              0.0000
 ZZZY=             -0.0000 XXYY=            -53.0543 XXZZ=            -12.8037 YYZZ=            -63.1957
 XXYZ=             -0.0000 YYXZ=              0.0000 ZZXY=              1.1462
 N-N= 4.272727536410D+01 E-N=-1.368215619995D+03  KE= 5.382951394610D+02
 Symmetry A'   KE= 4.883001694319D+02
 Symmetry A"   KE= 4.999497002906D+01
 No NMR shielding tensors so no spin-rotation constants.
 Leave Link  601 at Mon Nov 15 15:00:36 2021, MaxMem= 16106127360 cpu:               5.5 elap:               0.2
 (Enter /sw/contrib/gaussian/g16/B01/g16/l701.exe)
 ... and contract with generalized density number  2.
 Compute integral first derivatives.
 Leave Link  701 at Mon Nov 15 15:00:36 2021, MaxMem= 16106127360 cpu:               6.0 elap:               0.3
 (Enter /sw/contrib/gaussian/g16/B01/g16/l702.exe)
 L702 exits ... SP integral derivatives will be done elsewhere.
 Leave Link  702 at Mon Nov 15 15:00:37 2021, MaxMem= 16106127360 cpu:               1.2 elap:               0.1
 (Enter /sw/contrib/gaussian/g16/B01/g16/l703.exe)
 Integral derivatives from FoFJK, PRISM(SPDF).
 Compute integral first derivatives, UseDBF=F ICtDFT=           0.
 Calling FoFJK, ICntrl=  10002127 FMM=F ISym2X=1 I1Cent= 0 IOpClX= 0 NMat=1 NMatS=1 NMatT=0.
 FoFJK:  IHMeth= 1 ICntrl=10002127 DoSepK=F KAlg= 0 I1Cent=           0 FoldK=F
 IRaf=         0 NMat=       1 IRICut=       1 DoRegI=T DoRafI=F ISym2E= 1 IDoP0=0 IntGTp=1.
 FoFCou: FMM=F IPFlag=           0 FMFlag=      100000 FMFlg1=         800
         NFxFlg=           0 DoJE=F BraDBF=F KetDBF=F FulRan=T
         wScrn=  0.000000 ICntrl=  10002127 IOpCl=  0 I1Cent=           0 NGrid=           0
         NMat0=    1 NMatS0=      1 NMatT0=    0 NMatD0=    1 NMtDS0=    0 NMtDT0=    0
 Petite list used in FoFCou.
 Leave Link  703 at Mon Nov 15 15:00:38 2021, MaxMem= 16106127360 cpu:              26.0 elap:               1.0
 (Enter /sw/contrib/gaussian/g16/B01/g16/l716.exe)
 Dipole        =-6.46197457D-01 1.61261835D+00 3.88868923D-33
 ***** Axes restored to original set *****
 -------------------------------------------------------------------
 Center     Atomic                   Forces (Hartrees/Bohr)
 Number     Number              X              Y              Z
 -------------------------------------------------------------------
      1        8           0.703398786    3.191862705   -0.000000000
      2        1          -0.008588442    0.010671069   -0.000000000
      3       17           0.001834281   -0.000145772   -0.000000000
      4        1          -0.696644625   -3.202388002    0.000000000
 -------------------------------------------------------------------
 Cartesian Forces:  Max     3.202388002 RMS     1.336149663
 -----------------------------------------------------------------------------------------------
                       Internal Coordinate Forces (Hartree/Bohr or radian)
  Cent   Atom   N1       Length/X         N2         Alpha/Y        N3         Beta/Z          J
 -----------------------------------------------------------------------------------------------
      1  O 
         X        1   0.000000(     1)
      2  H        1  -0.008588(     2)      2   0.000000(     5)
      3  Cl       1  -0.000230(     3)      2   0.000000(     6)      3  -0.010659(     8)     0
      4  H        1   3.277132(     4)      2  -0.000000(     7)      3   0.030030(     9)     0
 -----------------------------------------------------------------------------------------------
 Internal  Forces:  Max     3.277131752 RMS     1.092432645
 Force constants in Cartesian coordinates: 
                1             2             3             4             5 
      1  0.119452D+01
      2  0.149123D+01  0.815259D+01
      3  0.000000D+00  0.000000D+00  0.125904D+00
      4 -0.553411D+00  0.000000D+00  0.000000D+00  0.553411D+00
      5  0.106121D+00 -0.119117D+00  0.000000D+00  0.000000D+00  0.971074D-01
      6  0.000000D+00  0.000000D+00  0.000000D+00  0.000000D+00  0.000000D+00
      7  0.179179D-01  0.659374D-02  0.000000D+00  0.000000D+00 -0.147819D-01
      8 -0.818821D-02 -0.229293D-01  0.000000D+00  0.000000D+00  0.306582D-02
      9  0.000000D+00  0.000000D+00  0.243101D-01  0.000000D+00  0.000000D+00
     10 -0.659029D+00 -0.149782D+01  0.000000D+00  0.000000D+00 -0.913391D-01
     11 -0.158916D+01 -0.801055D+01  0.000000D+00  0.000000D+00  0.189440D-01
     12  0.000000D+00  0.000000D+00 -0.150214D+00  0.000000D+00  0.000000D+00
                6             7             8             9            10 
      6  0.100000D+01
      7  0.000000D+00  0.988984D-02
      8  0.000000D+00  0.242079D-02  0.210596D-01
      9  0.000000D+00  0.000000D+00  0.000000D+00  0.469388D-02
     10  0.000000D+00 -0.278078D-01  0.576742D-02  0.000000D+00  0.686837D+00
     11  0.000000D+00  0.576742D-02 -0.119618D-02  0.000000D+00  0.158339D+01
     12  0.000000D+00  0.000000D+00  0.000000D+00 -0.290039D-01  0.000000D+00
               11            12 
     11  0.799280D+01
     12  0.000000D+00  0.179218D+00
 Force constants in internal coordinates: 
                1             2             3             4             5 
      1  0.000000D+00
      2  0.000000D+00  0.553411D+00
      3  0.000000D+00  0.000000D+00  0.215617D-01
      4  0.000000D+00  0.000000D+00  0.000000D+00  0.832120D+01
      5  0.000000D+00  0.000000D+00  0.000000D+00  0.000000D+00  0.329532D+01
      6  0.000000D+00  0.000000D+00  0.000000D+00  0.000000D+00  0.000000D+00
      7  0.000000D+00  0.000000D+00  0.000000D+00  0.000000D+00  0.000000D+00
      8  0.000000D+00  0.000000D+00  0.000000D+00  0.000000D+00  0.000000D+00
      9  0.000000D+00  0.000000D+00  0.000000D+00  0.000000D+00  0.000000D+00
                6             7             8             9 
      6  0.160000D+00
      7 -0.160000D+00  0.160000D+00
      8  0.000000D+00  0.000000D+00  0.320000D+00
      9  0.000000D+00  0.000000D+00 -0.160000D+00  0.320000D+00
 Leave Link  716 at Mon Nov 15 15:00:38 2021, MaxMem= 16106127360 cpu:               1.1 elap:               0.1
 (Enter /sw/contrib/gaussian/g16/B01/g16/l103.exe)

 GradGradGradGradGradGradGradGradGradGradGradGradGradGradGradGradGradGrad
 Berny optimization.
 Search for a local minimum.
 Step number   1 out of a maximum of   20 on scan point     1 out of    31
 All quantities printed in internal units (Hartrees-Bohrs-Radians)
 Second derivative matrix not updated -- first step.
 The second derivative matrix:
                          r1        r2        r3        a1        OOP
           r1           0.55341
           r2           0.00000   0.02156
           r3           0.00000   0.00000   8.32120
           a1          -0.00000   0.00000   0.00000   0.32000
           OOP          0.00000  -0.00000  -0.00000  -0.00000   0.16000
 ITU=  0
     Eigenvalues --- 1000.000001000.000001000.000001000.000001000.00000
 RFO step:  Lambda= 0.00000000D+00 EMin= 1.00000000D+03
 Linear search not attempted -- first point.
 Variable       Old X    -DE/DX   Delta X   Delta X   Delta X     New X
                                 (Linear)    (Quad)   (Total)
    r1        1.81530  -0.00859   0.00000   0.00000   0.00000   1.81530
    r2        5.83840  -0.00023   0.00000   0.00000   0.00000   5.83840
    r3        0.94486   3.27713   0.00000   0.00000   0.00000   0.94486
    a1        1.77530   0.01937   0.00000   0.00000   0.00000   1.77530
   OOP        1.57080  -0.00000   0.00000   0.00000   0.00000   1.57080
         Item               Value     Threshold  Converged?
 Maximum Force            0.000000     0.000450     YES
 RMS     Force            0.000000     0.000300     YES
 Maximum Displacement     0.000000     0.001800     YES
 RMS     Displacement     0.000000     0.001200     YES
 Predicted change in Energy=-0.000000D+00
 Optimization completed.
    -- Stationary point found.
                       ----------------------------
                       !   Optimized Parameters   !
                       ! (Angstroms and Degrees)  !
 ----------------------                            ----------------------
 !      Name          Value   Derivative information (Atomic Units)     !
 ------------------------------------------------------------------------
 !       r1          0.9606   -DE/DX =   -0.0086                        !
 !       r2          3.0895   -DE/DX =   -0.0002                        !
 !       r3          0.5      -DE/DX =    3.2771                        !
 !       a1        101.7172   -DE/DX =    0.0194                        !
 !       OOP        90.0      -DE/DX =    0.0                           !
 ------------------------------------------------------------------------
 Lowest energy point so far.  Saving SCF results.
 GradGradGradGradGradGradGradGradGradGradGradGradGradGradGradGradGradGrad

 Leave Link  103 at Mon Nov 15 15:00:38 2021, MaxMem= 16106127360 cpu:               3.9 elap:               0.2
 (Enter /sw/contrib/gaussian/g16/B01/g16/l202.exe)
 ---------------------------------------------------------------------------------------------------
                            Z-MATRIX (ANGSTROMS AND DEGREES)
   CD    Cent   Atom    N1       Length/X        N2       Alpha/Y        N3        Beta/Z          J
 ---------------------------------------------------------------------------------------------------
      1      1  O 
      2         X        1  10.000000(     1)
      3      2  H        1   0.960616(     2)      2   90.000(     5)
      4      3  Cl       1   3.089549(     3)      2   90.000(     6)      3  101.717(     8)      0
      5      4  H        1   0.550000(     4)      2   90.000(     7)      3  101.717(     9)      0
 ---------------------------------------------------------------------------------------------------
                         Z-Matrix orientation:                         
 ---------------------------------------------------------------------
 Center     Atomic      Atomic             Coordinates (Angstroms)
 Number     Number       Type             X           Y           Z
 ---------------------------------------------------------------------
      1          8           0        0.000000    0.000000    0.000000
      2         -1           0        0.000000    0.000000   10.000000
      3          1           0        0.960616    0.000000    0.000000
      4         17           0       -0.627430   -3.025169    0.000000
      5          1           0       -0.111695   -0.538539    0.000000
 ---------------------------------------------------------------------
                    Distance matrix (angstroms):
                    1          2          3          4          5
     1  O    0.000000
     2  X   10.000000   0.000000
     3  H    0.960616  10.046033   0.000000
     4  Cl   3.089549  10.466390   3.416656   0.000000
     5  H    0.550000  10.015114   1.199948   2.539549   0.000000
 Stoichiometry    ClH2O(1-)
 Framework group  CS[SG(ClH2O)]
 Deg. of freedom     5
 Full point group                 CS      NOp   2
 RotChk:  IX=0 Diff= 2.48D-16
 Largest Abelian subgroup         CS      NOp   2
 Largest concise Abelian subgroup C1      NOp   1
                         Standard orientation:                         
 ---------------------------------------------------------------------
 Center     Atomic      Atomic             Coordinates (Angstroms)
 Number     Number       Type             X           Y           Z
 ---------------------------------------------------------------------
      1          8           0        0.034837    1.958417    0.000000
      2          1           0       -0.905762    2.153500    0.000000
      3         17           0        0.034837   -1.131132   -0.000000
      4          1           0        0.034837    1.408417    0.000000
 ---------------------------------------------------------------------
 Rotational constants (GHZ):         322.8287565           4.3023976           4.2458129
 Leave Link  202 at Mon Nov 15 15:00:38 2021, MaxMem= 16106127360 cpu:               0.4 elap:               0.0
 (Enter /sw/contrib/gaussian/g16/B01/g16/l301.exe)
 Standard basis: Aug-CC-pVTZ (5D, 7F)
 Ernie: Thresh=  0.10000D-02 Tol=  0.10000D-05 Strict=F.
 Ernie:  16 primitive shells out of 116 were deleted.
 There are   113 symmetry adapted cartesian basis functions of A'  symmetry.
 There are    51 symmetry adapted cartesian basis functions of A"  symmetry.
 There are    95 symmetry adapted basis functions of A'  symmetry.
 There are    47 symmetry adapted basis functions of A"  symmetry.
   142 basis functions,   240 primitive gaussians,   164 cartesian basis functions
    14 alpha electrons       14 beta electrons
       nuclear repulsion energy        42.0145015281 Hartrees.
 IExCor=    0 DFT=F Ex=HF Corr=None ExCW=0 ScaHFX=  1.000000
 ScaDFX=  1.000000  1.000000  1.000000  1.000000 ScalE2=  1.000000  1.000000
 IRadAn=      5 IRanWt=     -1 IRanGd=            0 ICorTp=0 IEmpDi=  4
 NAtoms=    4 NActive=    4 NUniq=    4 SFac= 1.00D+00 NAtFMM=   60 NAOKFM=F Big=F
 Integral buffers will be    131072 words long.
 Raffenetti 1 integral format.
 Two-electron integral symmetry is turned on.
 Leave Link  301 at Mon Nov 15 15:00:38 2021, MaxMem= 16106127360 cpu:               2.5 elap:               0.1
 (Enter /sw/contrib/gaussian/g16/B01/g16/l302.exe)
 NPDir=0 NMtPBC=     1 NCelOv=     1 NCel=       1 NClECP=     1 NCelD=      1
         NCelK=      1 NCelE2=     1 NClLst=     1 CellRange=     0.0.
 One-electron integrals computed using PRISM.
 One-electron integral symmetry used in STVInt
 NBasis=   142 RedAO= T EigKep=  1.34D-04  NBF=    95    47
 NBsUse=   142 1.00D-06 EigRej= -1.00D+00 NBFU=    95    47
 Leave Link  302 at Mon Nov 15 15:00:39 2021, MaxMem= 16106127360 cpu:               4.1 elap:               0.2
 (Enter /sw/contrib/gaussian/g16/B01/g16/l303.exe)
 DipDrv:  MaxL=1.
 Leave Link  303 at Mon Nov 15 15:00:39 2021, MaxMem= 16106127360 cpu:               0.8 elap:               0.1
 (Enter /sw/contrib/gaussian/g16/B01/g16/l401.exe)
 Initial guess from the checkpoint file:  "/gscratch/ilahie/mccoygrp/coire_hocl/rOH_s_oop_0/clhod/clhod_rOH_s_05-20.chk"
 B after Tr=     0.000000    0.000000    0.000000
         Rot=    1.000000   -0.000000    0.000000    0.000015 Ang=   0.00 deg.
 Guess basis will be translated and rotated to current coordinates.
 JPrj=2 DoOrth=T DoCkMO=T.
 Initial guess orbital symmetries:
       Occupied  (A') (A') (A') (A') (A") (A') (A') (A') (A') (A')
                 (A") (A') (A') (A")
       Virtual   (A') (A') (A') (A") (A') (A') (A') (A") (A') (A')
                 (A") (A') (A') (A") (A') (A') (A") (A') (A') (A")
                 (A') (A') (A') (A') (A') (A") (A") (A') (A") (A')
                 (A') (A') (A") (A") (A') (A") (A') (A') (A') (A')
                 (A") (A') (A') (A") (A') (A") (A') (A") (A') (A")
                 (A') (A') (A') (A') (A") (A') (A") (A") (A') (A')
                 (A') (A") (A') (A') (A') (A") (A') (A') (A") (A")
                 (A') (A') (A') (A") (A') (A") (A') (A") (A') (A')
                 (A") (A') (A") (A') (A') (A") (A') (A") (A') (A")
                 (A') (A') (A') (A') (A') (A") (A") (A') (A') (A")
                 (A') (A") (A') (A') (A") (A') (A') (A") (A') (A')
                 (A") (A') (A') (A') (A") (A') (A") (A') (A") (A")
                 (A') (A') (A') (A") (A') (A') (A') (A')
 The electronic state of the initial guess is 1-A'.
 Generating alternative initial guess.
 ExpMin= 2.53D-02 ExpMax= 4.56D+05 ExpMxC= 1.44D+03 IAcc=3 IRadAn=         5 AccDes= 0.00D+00
 Harris functional with IExCor=  205 and IRadAn=       5 diagonalized for initial guess.
 HarFok:  IExCor=  205 AccDes= 0.00D+00 IRadAn=         5 IDoV= 1 UseB2=F ITyADJ=14
 ICtDFT=  3500011 ScaDFX=  1.000000  1.000000  1.000000  1.000000
 FoFCou: FMM=F IPFlag=           0 FMFlag=      100000 FMFlg1=           0
         NFxFlg=           0 DoJE=T BraDBF=F KetDBF=T FulRan=T
         wScrn=  0.000000 ICntrl=       500 IOpCl=  0 I1Cent=   200000004 NGrid=           0
         NMat0=    1 NMatS0=      1 NMatT0=    0 NMatD0=    1 NMtDS0=    0 NMtDT0=    0
 Petite list used in FoFCou.
 Harris En= -535.035502831275    
 Leave Link  401 at Mon Nov 15 15:00:39 2021, MaxMem= 16106127360 cpu:               8.7 elap:               0.4
 (Enter /sw/contrib/gaussian/g16/B01/g16/l502.exe)
 Keep R1 ints in memory in symmetry-blocked form, NReq=77720007.
 FoFCou: FMM=F IPFlag=           0 FMFlag=           0 FMFlg1=           0
         NFxFlg=           0 DoJE=F BraDBF=F KetDBF=F FulRan=T
         wScrn=  0.000000 ICntrl=       600 IOpCl=  0 I1Cent=           0 NGrid=           0
         NMat0=    1 NMatS0=  10153 NMatT0=    0 NMatD0=    1 NMtDS0=    0 NMtDT0=    0
 Petite list used in FoFCou.
 Closed shell SCF:
 Using DIIS extrapolation, IDIIS=  1040.
 NGot= 16106127360 LenX= 16079895157 LenY= 16079867820
 Requested convergence on RMS density matrix=1.00D-08 within 128 cycles.
 Requested convergence on MAX density matrix=1.00D-06.
 Requested convergence on             energy=1.00D-06.
 No special actions if energy rises.

 Cycle   1  Pass 1  IDiag  1:
 E= -535.136092998942    
 DIIS: error= 9.50D-03 at cycle   1 NSaved=   1.
 NSaved= 1 IEnMin= 1 EnMin= -535.136092998942     IErMin= 1 ErrMin= 9.50D-03
 ErrMax= 9.50D-03  0.00D+00 EMaxC= 1.00D-01 BMatC= 1.45D-02 BMatP= 1.45D-02
 IDIUse=3 WtCom= 9.05D-01 WtEn= 9.50D-02
 Coeff-Com:  0.100D+01
 Coeff-En:   0.100D+01
 Coeff:      0.100D+01
 Gap=     0.309 Goal=   None    Shift=    0.000
 GapD=    0.309 DampG=1.000 DampE=1.000 DampFc=1.0000 IDamp=-1.
 RMSDP=1.09D-03 MaxDP=2.80D-02              OVMax= 1.97D-02

 Cycle   2  Pass 1  IDiag  1:
 E= -535.141704876001     Delta-E=       -0.005611877059 Rises=F Damp=F
 DIIS: error= 2.43D-03 at cycle   2 NSaved=   2.
 NSaved= 2 IEnMin= 2 EnMin= -535.141704876001     IErMin= 2 ErrMin= 2.43D-03
 ErrMax= 2.43D-03  0.00D+00 EMaxC= 1.00D-01 BMatC= 6.76D-04 BMatP= 1.45D-02
 IDIUse=3 WtCom= 9.76D-01 WtEn= 2.43D-02
 Coeff-Com:  0.531D-01 0.947D+00
 Coeff-En:   0.000D+00 0.100D+01
 Coeff:      0.518D-01 0.948D+00
 Gap=     0.295 Goal=   None    Shift=    0.000
 RMSDP=9.20D-05 MaxDP=3.06D-03 DE=-5.61D-03 OVMax= 7.48D-03

 Cycle   3  Pass 1  IDiag  1:
 E= -535.142041137082     Delta-E=       -0.000336261081 Rises=F Damp=F
 DIIS: error= 1.00D-03 at cycle   3 NSaved=   3.
 NSaved= 3 IEnMin= 3 EnMin= -535.142041137082     IErMin= 3 ErrMin= 1.00D-03
 ErrMax= 1.00D-03  0.00D+00 EMaxC= 1.00D-01 BMatC= 1.28D-04 BMatP= 6.76D-04
 IDIUse=3 WtCom= 9.90D-01 WtEn= 1.00D-02
 Coeff-Com: -0.312D-01 0.255D+00 0.776D+00
 Coeff-En:   0.000D+00 0.000D+00 0.100D+01
 Coeff:     -0.309D-01 0.252D+00 0.779D+00
 Gap=     0.295 Goal=   None    Shift=    0.000
 RMSDP=3.67D-05 MaxDP=1.15D-03 DE=-3.36D-04 OVMax= 2.28D-03

 Cycle   4  Pass 1  IDiag  1:
 E= -535.142112692666     Delta-E=       -0.000071555584 Rises=F Damp=F
 DIIS: error= 1.30D-04 at cycle   4 NSaved=   4.
 NSaved= 4 IEnMin= 4 EnMin= -535.142112692666     IErMin= 4 ErrMin= 1.30D-04
 ErrMax= 1.30D-04  0.00D+00 EMaxC= 1.00D-01 BMatC= 1.92D-06 BMatP= 1.28D-04
 IDIUse=3 WtCom= 9.99D-01 WtEn= 1.30D-03
 Coeff-Com: -0.221D-02-0.346D-01 0.120D-01 0.102D+01
 Coeff-En:   0.000D+00 0.000D+00 0.000D+00 0.100D+01
 Coeff:     -0.221D-02-0.346D-01 0.120D-01 0.102D+01
 Gap=     0.295 Goal=   None    Shift=    0.000
 RMSDP=6.92D-06 MaxDP=2.88D-04 DE=-7.16D-05 OVMax= 4.95D-04

 Cycle   5  Pass 1  IDiag  1:
 E= -535.142114840769     Delta-E=       -0.000002148103 Rises=F Damp=F
 DIIS: error= 4.36D-05 at cycle   5 NSaved=   5.
 NSaved= 5 IEnMin= 5 EnMin= -535.142114840769     IErMin= 5 ErrMin= 4.36D-05
 ErrMax= 4.36D-05  0.00D+00 EMaxC= 1.00D-01 BMatC= 9.01D-08 BMatP= 1.92D-06
 IDIUse=1 WtCom= 1.00D+00 WtEn= 0.00D+00
 Coeff-Com:  0.142D-02-0.664D-02-0.367D-01-0.110D+00 0.115D+01
 Coeff:      0.142D-02-0.664D-02-0.367D-01-0.110D+00 0.115D+01
 Gap=     0.295 Goal=   None    Shift=    0.000
 RMSDP=2.35D-06 MaxDP=6.42D-05 DE=-2.15D-06 OVMax= 1.57D-04

 Cycle   6  Pass 1  IDiag  1:
 E= -535.142114980376     Delta-E=       -0.000000139606 Rises=F Damp=F
 DIIS: error= 6.63D-06 at cycle   6 NSaved=   6.
 NSaved= 6 IEnMin= 6 EnMin= -535.142114980376     IErMin= 6 ErrMin= 6.63D-06
 ErrMax= 6.63D-06  0.00D+00 EMaxC= 1.00D-01 BMatC= 2.65D-09 BMatP= 9.01D-08
 IDIUse=1 WtCom= 1.00D+00 WtEn= 0.00D+00
 Coeff-Com: -0.139D-03 0.221D-02 0.329D-02-0.207D-01-0.126D+00 0.114D+01
 Coeff:     -0.139D-03 0.221D-02 0.329D-02-0.207D-01-0.126D+00 0.114D+01
 Gap=     0.295 Goal=   None    Shift=    0.000
 RMSDP=5.95D-07 MaxDP=1.47D-05 DE=-1.40D-07 OVMax= 3.49D-05

 Cycle   7  Pass 1  IDiag  1:
 E= -535.142114985301     Delta-E=       -0.000000004925 Rises=F Damp=F
 DIIS: error= 1.09D-06 at cycle   7 NSaved=   7.
 NSaved= 7 IEnMin= 7 EnMin= -535.142114985301     IErMin= 7 ErrMin= 1.09D-06
 ErrMax= 1.09D-06  0.00D+00 EMaxC= 1.00D-01 BMatC= 1.52D-10 BMatP= 2.65D-09
 IDIUse=1 WtCom= 1.00D+00 WtEn= 0.00D+00
 Coeff-Com: -0.886D-04 0.703D-03 0.216D-02 0.141D-02-0.679D-01 0.108D+00
 Coeff-Com:  0.956D+00
 Coeff:     -0.886D-04 0.703D-03 0.216D-02 0.141D-02-0.679D-01 0.108D+00
 Coeff:      0.956D+00
 Gap=     0.295 Goal=   None    Shift=    0.000
 RMSDP=1.32D-07 MaxDP=3.14D-06 DE=-4.93D-09 OVMax= 8.08D-06

 Cycle   8  Pass 1  IDiag  1:
 E= -535.142114985543     Delta-E=       -0.000000000242 Rises=F Damp=F
 DIIS: error= 2.45D-07 at cycle   8 NSaved=   8.
 NSaved= 8 IEnMin= 8 EnMin= -535.142114985543     IErMin= 8 ErrMin= 2.45D-07
 ErrMax= 2.45D-07  0.00D+00 EMaxC= 1.00D-01 BMatC= 7.95D-12 BMatP= 1.52D-10
 IDIUse=1 WtCom= 1.00D+00 WtEn= 0.00D+00
 Coeff-Com:  0.202D-04-0.177D-03-0.539D-03-0.105D-03 0.203D-01-0.769D-01
 Coeff-Com: -0.163D+00 0.122D+01
 Coeff:      0.202D-04-0.177D-03-0.539D-03-0.105D-03 0.203D-01-0.769D-01
 Coeff:     -0.163D+00 0.122D+01
 Gap=     0.295 Goal=   None    Shift=    0.000
 RMSDP=3.41D-08 MaxDP=8.33D-07 DE=-2.42D-10 OVMax= 2.81D-06

 Cycle   9  Pass 1  IDiag  1:
 E= -535.142114985562     Delta-E=       -0.000000000019 Rises=F Damp=F
 DIIS: error= 5.01D-08 at cycle   9 NSaved=   9.
 NSaved= 9 IEnMin= 9 EnMin= -535.142114985562     IErMin= 9 ErrMin= 5.01D-08
 ErrMax= 5.01D-08  0.00D+00 EMaxC= 1.00D-01 BMatC= 3.98D-13 BMatP= 7.95D-12
 IDIUse=1 WtCom= 1.00D+00 WtEn= 0.00D+00
 Coeff-Com:  0.571D-05-0.442D-04-0.148D-03-0.142D-03 0.528D-02-0.127D-01
 Coeff-Com: -0.590D-01 0.111D+00 0.955D+00
 Coeff:      0.571D-05-0.442D-04-0.148D-03-0.142D-03 0.528D-02-0.127D-01
 Coeff:     -0.590D-01 0.111D+00 0.955D+00
 Gap=     0.295 Goal=   None    Shift=    0.000
 RMSDP=5.47D-09 MaxDP=1.21D-07 DE=-1.93D-11 OVMax= 5.15D-07

 SCF Done:  E(RHF) =  -535.142114986     A.U. after    9 cycles
            NFock=  9  Conv=0.55D-08     -V/T= 1.9958
 KE= 5.374082293572D+02 PE=-1.367059159324D+03 EE= 2.524943134526D+02
 Leave Link  502 at Mon Nov 15 15:00:40 2021, MaxMem= 16106127360 cpu:              26.4 elap:               1.2
 (Enter /sw/contrib/gaussian/g16/B01/g16/l801.exe)
 ExpMin= 2.53D-02 ExpMax= 4.56D+05 ExpMxC= 1.44D+03 IAcc=3 IRadAn=         5 AccDes= 0.00D+00
 HarFok:  IExCor=  205 AccDes= 0.00D+00 IRadAn=         5 IDoV=-2 UseB2=F ITyADJ=14
 ICtDFT= 12500011 ScaDFX=  1.000000  1.000000  1.000000  1.000000
 Largest valence mixing into a core orbital is  4.54D-04
 Largest core mixing into a valence orbital is  1.84D-04
 Range of M.O.s used for correlation:     7   142
 NBasis=   142 NAE=    14 NBE=    14 NFC=     6 NFV=     0
 NROrb=    136 NOA=     8 NOB=     8 NVA=   128 NVB=   128

 **** Warning!!: The largest alpha MO coefficient is  0.25406104D+02

 Leave Link  801 at Mon Nov 15 15:00:40 2021, MaxMem= 16106127360 cpu:               1.9 elap:               0.1
 (Enter /sw/contrib/gaussian/g16/B01/g16/l906.exe)
 Frozen-core derivative calculation, NFC=   6 NFV=   0.
 FulOut=F Deriv=T AODrv=T NAtomX=     4
   MMem=         252  MDisk=           8 MDiskD=           8
  W3Min=      326032 MinDsk=      657538 NBas6D=         164
 NBas2D=       13905    NTT=       13530    LW2=     3500000
    MDV= 16105837451 MDiskM=      490970 NBas2p=       13825
 Fully direct method using O(ONN) memory.
 IMap=   1   2   3   4   5   6   7   8   9  10  11  12  13  14
 JobTyp=1 Pass  1:  I=   7 to  14 NPSUse= 28 ParTrn=T ParDer=T DoDerP=T.
 Spin components of T(2) and E(2):
     alpha-alpha T2 =       0.1776314551D-01 E2=     -0.5746538566D-01
     alpha-beta  T2 =       0.9831617398D-01 E2=     -0.3506741155D+00
     beta-beta   T2 =       0.1776314551D-01 E2=     -0.5746538566D-01
 The integrals were generated   1 times.
 ANorm=    0.1064820391D+01
 E2 =    -0.4656048869D+00 EUMP2 =    -0.53560771987243D+03
 Leave Link  906 at Mon Nov 15 15:00:45 2021, MaxMem= 16106127360 cpu:             127.7 elap:               4.6
 (Enter /sw/contrib/gaussian/g16/B01/g16/l1002.exe)
 Minotr:  Closed shell wavefunction.
          Computing MP2/KS-MP2 derivatives.
          Using Z-Vector for PSCF gradient.
          Skipping F1 and S1 gradient terms here.
          IDoAtm=1111
          Frozen-core window.
          Direct CPHF calculation.
          Differentiating once with respect to electric field.
                with respect to dipole field.
          Differentiating once with respect to nuclear coordinates.
          Using symmetry in CPHF.
          Requested convergence is 1.0D-10 RMS, and 1.0D-09 maximum.
          NewPWx=F KeepS1=T KeepF1=T KeepIn=T MapXYZ=F SortEE=F KeepMc=T.
 Keep R1 ints in memory in symmetry-blocked form, NReq=77720971.
 FoFCou: FMM=F IPFlag=           0 FMFlag=           0 FMFlg1=           0
         NFxFlg=           0 DoJE=F BraDBF=F KetDBF=F FulRan=T
         wScrn=  0.000000 ICntrl=       600 IOpCl=  0 I1Cent=           0 NGrid=           0
         NMat0=    1 NMatS0=  10153 NMatT0=    0 NMatD0=    1 NMtDS0=    0 NMtDT0=    0
 Petite list used in FoFCou.
          MDV=   16106127360 using IRadAn=       5.
          Solving linear equations separately, MaxMat=       0.
          There are     1 degrees of freedom in the 1st order CPHF.  IDoFFX=0 NUNeed=     1.
 LinEq1:  Iter=  0 NonCon=     1 RMS=2.48D-03 Max=3.48D-02 NDo=     1
 AX will form     1 AO Fock derivatives at one time.
 LinEq1:  Iter=  1 NonCon=     1 RMS=3.11D-04 Max=2.91D-03 NDo=     1
 LinEq1:  Iter=  2 NonCon=     1 RMS=8.93D-05 Max=1.07D-03 NDo=     1
 LinEq1:  Iter=  3 NonCon=     1 RMS=2.21D-05 Max=2.27D-04 NDo=     1
 LinEq1:  Iter=  4 NonCon=     1 RMS=4.03D-06 Max=4.23D-05 NDo=     1
 LinEq1:  Iter=  5 NonCon=     1 RMS=1.15D-06 Max=1.21D-05 NDo=     1
 LinEq1:  Iter=  6 NonCon=     1 RMS=3.75D-07 Max=3.50D-06 NDo=     1
 LinEq1:  Iter=  7 NonCon=     1 RMS=8.19D-08 Max=7.36D-07 NDo=     1
 LinEq1:  Iter=  8 NonCon=     1 RMS=1.69D-08 Max=1.75D-07 NDo=     1
 LinEq1:  Iter=  9 NonCon=     1 RMS=3.81D-09 Max=4.72D-08 NDo=     1
 LinEq1:  Iter= 10 NonCon=     1 RMS=5.39D-10 Max=4.69D-09 NDo=     1
 LinEq1:  Iter= 11 NonCon=     0 RMS=7.82D-11 Max=7.85D-10 NDo=     1
 Linear equations converged to 1.000D-10 1.000D-09 after    11 iterations.
 End of Minotr F.D. properties file   721 does not exist.
 End of Minotr F.D. properties file   722 does not exist.
 End of Minotr F.D. properties file   788 does not exist.
 Leave Link 1002 at Mon Nov 15 15:00:47 2021, MaxMem= 16106127360 cpu:              40.3 elap:               1.8
 (Enter /sw/contrib/gaussian/g16/B01/g16/l701.exe)
 ... and contract with generalized density number  2.
 Compute integral first derivatives.
 Leave Link  701 at Mon Nov 15 15:00:47 2021, MaxMem= 16106127360 cpu:               4.6 elap:               0.2
 (Enter /sw/contrib/gaussian/g16/B01/g16/l702.exe)
 L702 exits ... SP integral derivatives will be done elsewhere.
 Leave Link  702 at Mon Nov 15 15:00:47 2021, MaxMem= 16106127360 cpu:               1.3 elap:               0.1
 (Enter /sw/contrib/gaussian/g16/B01/g16/l703.exe)
 Integral derivatives from FoFJK, PRISM(SPDF).
 Compute integral first derivatives, UseDBF=F ICtDFT=           0.
 Calling FoFJK, ICntrl=  10002127 FMM=F ISym2X=1 I1Cent= 0 IOpClX= 0 NMat=1 NMatS=1 NMatT=0.
 FoFJK:  IHMeth= 1 ICntrl=10002127 DoSepK=F KAlg= 0 I1Cent=           0 FoldK=F
 IRaf=         0 NMat=       1 IRICut=       1 DoRegI=T DoRafI=F ISym2E= 1 IDoP0=0 IntGTp=1.
 FoFCou: FMM=F IPFlag=           0 FMFlag=      100000 FMFlg1=         800
         NFxFlg=           0 DoJE=F BraDBF=F KetDBF=F FulRan=T
         wScrn=  0.000000 ICntrl=  10002127 IOpCl=  0 I1Cent=           0 NGrid=           0
         NMat0=    1 NMatS0=      1 NMatT0=    0 NMatD0=    1 NMtDS0=    0 NMtDT0=    0
 Petite list used in FoFCou.
 Leave Link  703 at Mon Nov 15 15:00:48 2021, MaxMem= 16106127360 cpu:              26.2 elap:               1.0
 (Enter /sw/contrib/gaussian/g16/B01/g16/l716.exe)
 Dipole        =-6.37038679D-01 1.57724591D+00 3.95513406D-32
 ***** Axes restored to original set *****
 -------------------------------------------------------------------
 Center     Atomic                   Forces (Hartrees/Bohr)
 Number     Number              X              Y              Z
 -------------------------------------------------------------------
      1        8           0.492240900    2.203567116   -0.000000000
      2        1          -0.006840586    0.010085894   -0.000000000
      3       17           0.001712367   -0.000401085   -0.000000000
      4        1          -0.487112680   -2.213251926    0.000000000
 -------------------------------------------------------------------
 Cartesian Forces:  Max     2.213251926 RMS     0.923486311
 -----------------------------------------------------------------------------------------------
                       Internal Coordinate Forces (Hartree/Bohr or radian)
  Cent   Atom   N1       Length/X         N2         Alpha/Y        N3         Beta/Z          J
 -----------------------------------------------------------------------------------------------
      1  O 
         X        1   0.000000(     1)
      2  H        1  -0.006841(     2)      2   0.000000(     5)
      3  Cl       1   0.000045(     3)      2   0.000000(     6)      3  -0.010265(     8)     0
      4  H        1   2.266055(     4)      2  -0.000000(     7)      3   0.028574(     9)     0
 -----------------------------------------------------------------------------------------------
 Internal  Forces:  Max     2.266055393 RMS     0.755423035
 Leave Link  716 at Mon Nov 15 15:00:48 2021, MaxMem= 16106127360 cpu:               0.9 elap:               0.1
 (Enter /sw/contrib/gaussian/g16/B01/g16/l103.exe)

 GradGradGradGradGradGradGradGradGradGradGradGradGradGradGradGradGradGrad
 Berny optimization.
 Search for a local minimum.
 Step number   1 out of a maximum of   20 on scan point     2 out of    31
 All quantities printed in internal units (Hartrees-Bohrs-Radians)
 Second derivative matrix not updated -- first step.
 The second derivative matrix:
                          r1        r2        r3        a1        OOP
           r1           0.55341
           r2           0.00000   0.02156
           r3           0.00000   0.00000   8.32120
           a1          -0.00000   0.00000   0.00000   0.32000
           OOP          0.00000  -0.00000  -0.00000  -0.00000   0.16000
 ITU=  0
     Eigenvalues --- 1000.000001000.000001000.000001000.000001000.00000
 RFO step:  Lambda= 0.00000000D+00 EMin= 1.00000000D+03
 Linear search not attempted -- first point.
 Variable       Old X    -DE/DX   Delta X   Delta X   Delta X     New X
                                 (Linear)    (Quad)   (Total)
    r1        1.81530  -0.00684   0.00000   0.00000   0.00000   1.81530
    r2        5.83840   0.00004   0.00000   0.00000   0.00000   5.83840
    r3        1.03935   2.26606   0.00000   0.00000   0.00000   1.03935
    a1        1.77530   0.01831   0.00000   0.00000   0.00000   1.77530
   OOP        1.57080  -0.00000   0.00000   0.00000   0.00000   1.57080
         Item               Value     Threshold  Converged?
 Maximum Force            0.000000     0.000450     YES
 RMS     Force            0.000000     0.000300     YES
 Maximum Displacement     0.000000     0.001800     YES
 RMS     Displacement     0.000000     0.001200     YES
 Predicted change in Energy=-0.000000D+00
 Optimization completed.
    -- Stationary point found.
                       ----------------------------
                       !   Optimized Parameters   !
                       ! (Angstroms and Degrees)  !
 ----------------------                            ----------------------
 !      Name          Value   Derivative information (Atomic Units)     !
 ------------------------------------------------------------------------
 !       r1          0.9606   -DE/DX =   -0.0068                        !
 !       r2          3.0895   -DE/DX =    0.0                           !
 !       r3          0.55     -DE/DX =    2.2661                        !
 !       a1        101.7172   -DE/DX =    0.0183                        !
 !       OOP        90.0      -DE/DX =    0.0                           !
 ------------------------------------------------------------------------
 Lowest energy point so far.  Saving SCF results.
 GradGradGradGradGradGradGradGradGradGradGradGradGradGradGradGradGradGrad

 Leave Link  103 at Mon Nov 15 15:00:48 2021, MaxMem= 16106127360 cpu:               1.5 elap:               0.1
 (Enter /sw/contrib/gaussian/g16/B01/g16/l202.exe)
 ---------------------------------------------------------------------------------------------------
                            Z-MATRIX (ANGSTROMS AND DEGREES)
   CD    Cent   Atom    N1       Length/X        N2       Alpha/Y        N3        Beta/Z          J
 ---------------------------------------------------------------------------------------------------
      1      1  O 
      2         X        1  10.000000(     1)
      3      2  H        1   0.960616(     2)      2   90.000(     5)
      4      3  Cl       1   3.089549(     3)      2   90.000(     6)      3  101.717(     8)      0
      5      4  H        1   0.600000(     4)      2   90.000(     7)      3  101.717(     9)      0
 ---------------------------------------------------------------------------------------------------
                         Z-Matrix orientation:                         
 ---------------------------------------------------------------------
 Center     Atomic      Atomic             Coordinates (Angstroms)
 Number     Number       Type             X           Y           Z
 ---------------------------------------------------------------------
      1          8           0        0.000000    0.000000    0.000000
      2         -1           0        0.000000    0.000000   10.000000
      3          1           0        0.960616    0.000000    0.000000
      4         17           0       -0.627430   -3.025169    0.000000
      5          1           0       -0.121849   -0.587497    0.000000
 ---------------------------------------------------------------------
                    Distance matrix (angstroms):
                    1          2          3          4          5
     1  O    0.000000
     2  X   10.000000   0.000000
     3  H    0.960616  10.046033   0.000000
     4  Cl   3.089549  10.466390   3.416656   0.000000
     5  H    0.600000  10.017984   1.231618   2.489549   0.000000
 Stoichiometry    ClH2O(1-)
 Framework group  CS[SG(ClH2O)]
 Deg. of freedom     5
 Full point group                 CS      NOp   2
 RotChk:  IX=0 Diff= 1.26D-16
 Largest Abelian subgroup         CS      NOp   2
 Largest concise Abelian subgroup C1      NOp   1
                         Standard orientation:                         
 ---------------------------------------------------------------------
 Center     Atomic      Atomic             Coordinates (Angstroms)
 Number     Number       Type             X           Y           Z
 ---------------------------------------------------------------------
      1          8           0        0.034837    1.960269    0.000000
      2          1           0       -0.905762    2.155352   -0.000000
      3         17           0        0.034837   -1.129281    0.000000
      4          1           0        0.034837    1.360269    0.000000
 ---------------------------------------------------------------------
 Rotational constants (GHZ):         322.8935245           4.3076701           4.2509587
 Leave Link  202 at Mon Nov 15 15:00:48 2021, MaxMem= 16106127360 cpu:               0.4 elap:               0.0
 (Enter /sw/contrib/gaussian/g16/B01/g16/l301.exe)
 Standard basis: Aug-CC-pVTZ (5D, 7F)
 Ernie: Thresh=  0.10000D-02 Tol=  0.10000D-05 Strict=F.
 Ernie:  16 primitive shells out of 116 were deleted.
 There are   113 symmetry adapted cartesian basis functions of A'  symmetry.
 There are    51 symmetry adapted cartesian basis functions of A"  symmetry.
 There are    95 symmetry adapted basis functions of A'  symmetry.
 There are    47 symmetry adapted basis functions of A"  symmetry.
   142 basis functions,   240 primitive gaussians,   164 cartesian basis functions
    14 alpha electrons       14 beta electrons
       nuclear repulsion energy        41.4328792911 Hartrees.
 IExCor=    0 DFT=F Ex=HF Corr=None ExCW=0 ScaHFX=  1.000000
 ScaDFX=  1.000000  1.000000  1.000000  1.000000 ScalE2=  1.000000  1.000000
 IRadAn=      5 IRanWt=     -1 IRanGd=            0 ICorTp=0 IEmpDi=  4
 NAtoms=    4 NActive=    4 NUniq=    4 SFac= 1.00D+00 NAtFMM=   60 NAOKFM=F Big=F
 Integral buffers will be    131072 words long.
 Raffenetti 1 integral format.
 Two-electron integral symmetry is turned on.
 Leave Link  301 at Mon Nov 15 15:00:48 2021, MaxMem= 16106127360 cpu:               1.4 elap:               0.1
 (Enter /sw/contrib/gaussian/g16/B01/g16/l302.exe)
 NPDir=0 NMtPBC=     1 NCelOv=     1 NCel=       1 NClECP=     1 NCelD=      1
         NCelK=      1 NCelE2=     1 NClLst=     1 CellRange=     0.0.
 One-electron integrals computed using PRISM.
 One-electron integral symmetry used in STVInt
 NBasis=   142 RedAO= T EigKep=  1.44D-04  NBF=    95    47
 NBsUse=   142 1.00D-06 EigRej= -1.00D+00 NBFU=    95    47
 Leave Link  302 at Mon Nov 15 15:00:48 2021, MaxMem= 16106127360 cpu:               4.0 elap:               0.2
 (Enter /sw/contrib/gaussian/g16/B01/g16/l303.exe)
 DipDrv:  MaxL=1.
 Leave Link  303 at Mon Nov 15 15:00:48 2021, MaxMem= 16106127360 cpu:               0.6 elap:               0.0
 (Enter /sw/contrib/gaussian/g16/B01/g16/l401.exe)
 Initial guess from the checkpoint file:  "/gscratch/ilahie/mccoygrp/coire_hocl/rOH_s_oop_0/clhod/clhod_rOH_s_05-20.chk"
 B after Tr=    -0.000000   -0.000000    0.000000
         Rot=    1.000000   -0.000000    0.000000    0.000015 Ang=   0.00 deg.
 Guess basis will be translated and rotated to current coordinates.
 JPrj=2 DoOrth=T DoCkMO=T.
 Initial guess orbital symmetries:
       Occupied  (A') (A') (A') (A') (A") (A') (A') (A') (A') (A')
                 (A") (A') (A') (A")
       Virtual   (A') (A') (A') (A") (A') (A') (A') (A") (A') (A')
                 (A") (A') (A') (A") (A') (A') (A") (A') (A') (A")
                 (A') (A') (A') (A') (A') (A") (A") (A') (A") (A')
                 (A') (A") (A') (A") (A') (A') (A") (A') (A') (A')
                 (A") (A') (A') (A") (A') (A") (A') (A") (A') (A")
                 (A') (A') (A') (A') (A") (A') (A") (A") (A') (A')
                 (A') (A") (A') (A') (A') (A") (A') (A') (A") (A")
                 (A') (A') (A') (A") (A') (A") (A') (A") (A') (A')
                 (A") (A') (A") (A') (A') (A") (A') (A") (A') (A")
                 (A') (A') (A') (A') (A') (A") (A") (A') (A') (A")
                 (A') (A") (A') (A") (A') (A') (A') (A") (A') (A")
                 (A') (A') (A') (A') (A") (A') (A") (A') (A") (A")
                 (A') (A') (A') (A") (A') (A') (A') (A')
 The electronic state of the initial guess is 1-A'.
 Generating alternative initial guess.
 ExpMin= 2.53D-02 ExpMax= 4.56D+05 ExpMxC= 1.44D+03 IAcc=3 IRadAn=         5 AccDes= 0.00D+00
 Harris functional with IExCor=  205 and IRadAn=       5 diagonalized for initial guess.
 HarFok:  IExCor=  205 AccDes= 0.00D+00 IRadAn=         5 IDoV= 1 UseB2=F ITyADJ=14
 ICtDFT=  3500011 ScaDFX=  1.000000  1.000000  1.000000  1.000000
 FoFCou: FMM=F IPFlag=           0 FMFlag=      100000 FMFlg1=           0
         NFxFlg=           0 DoJE=T BraDBF=F KetDBF=T FulRan=T
         wScrn=  0.000000 ICntrl=       500 IOpCl=  0 I1Cent=   200000004 NGrid=           0
         NMat0=    1 NMatS0=      1 NMatT0=    0 NMatD0=    1 NMtDS0=    0 NMtDT0=    0
 Petite list used in FoFCou.
 Harris En= -535.182272777540    
 Leave Link  401 at Mon Nov 15 15:00:49 2021, MaxMem= 16106127360 cpu:               8.2 elap:               0.3
 (Enter /sw/contrib/gaussian/g16/B01/g16/l502.exe)
 Keep R1 ints in memory in symmetry-blocked form, NReq=77720007.
 FoFCou: FMM=F IPFlag=           0 FMFlag=           0 FMFlg1=           0
         NFxFlg=           0 DoJE=F BraDBF=F KetDBF=F FulRan=T
         wScrn=  0.000000 ICntrl=       600 IOpCl=  0 I1Cent=           0 NGrid=           0
         NMat0=    1 NMatS0=  10153 NMatT0=    0 NMatD0=    1 NMtDS0=    0 NMtDT0=    0
 Petite list used in FoFCou.
 Closed shell SCF:
 Using DIIS extrapolation, IDIIS=  1040.
 NGot= 16106127360 LenX= 16079895157 LenY= 16079867820
 Requested convergence on RMS density matrix=1.00D-08 within 128 cycles.
 Requested convergence on MAX density matrix=1.00D-06.
 Requested convergence on             energy=1.00D-06.
 No special actions if energy rises.

 Cycle   1  Pass 1  IDiag  1:
 E= -535.315326969643    
 DIIS: error= 9.58D-03 at cycle   1 NSaved=   1.
 NSaved= 1 IEnMin= 1 EnMin= -535.315326969643     IErMin= 1 ErrMin= 9.58D-03
 ErrMax= 9.58D-03  0.00D+00 EMaxC= 1.00D-01 BMatC= 1.08D-02 BMatP= 1.08D-02
 IDIUse=3 WtCom= 9.04D-01 WtEn= 9.58D-02
 Coeff-Com:  0.100D+01
 Coeff-En:   0.100D+01
 Coeff:      0.100D+01
 Gap=     0.309 Goal=   None    Shift=    0.000
 GapD=    0.309 DampG=1.000 DampE=1.000 DampFc=1.0000 IDamp=-1.
 RMSDP=8.55D-04 MaxDP=2.97D-02              OVMax= 1.67D-02

 Cycle   2  Pass 1  IDiag  1:
 E= -535.319643932649     Delta-E=       -0.004316963007 Rises=F Damp=F
 DIIS: error= 1.96D-03 at cycle   2 NSaved=   2.
 NSaved= 2 IEnMin= 2 EnMin= -535.319643932649     IErMin= 2 ErrMin= 1.96D-03
 ErrMax= 1.96D-03  0.00D+00 EMaxC= 1.00D-01 BMatC= 4.51D-04 BMatP= 1.08D-02
 IDIUse=3 WtCom= 9.80D-01 WtEn= 1.96D-02
 Coeff-Com:  0.398D-01 0.960D+00
 Coeff-En:   0.000D+00 0.100D+01
 Coeff:      0.390D-01 0.961D+00
 Gap=     0.297 Goal=   None    Shift=    0.000
 RMSDP=7.80D-05 MaxDP=2.59D-03 DE=-4.32D-03 OVMax= 6.07D-03

 Cycle   3  Pass 1  IDiag  1:
 E= -535.319871661690     Delta-E=       -0.000227729041 Rises=F Damp=F
 DIIS: error= 8.72D-04 at cycle   3 NSaved=   3.
 NSaved= 3 IEnMin= 3 EnMin= -535.319871661690     IErMin= 3 ErrMin= 8.72D-04
 ErrMax= 8.72D-04  0.00D+00 EMaxC= 1.00D-01 BMatC= 8.80D-05 BMatP= 4.51D-04
 IDIUse=3 WtCom= 9.91D-01 WtEn= 8.72D-03
 Coeff-Com: -0.294D-01 0.260D+00 0.770D+00
 Coeff-En:   0.000D+00 0.000D+00 0.100D+01
 Coeff:     -0.291D-01 0.257D+00 0.772D+00
 Gap=     0.296 Goal=   None    Shift=    0.000
 RMSDP=2.90D-05 MaxDP=1.19D-03 DE=-2.28D-04 OVMax= 1.93D-03

 Cycle   4  Pass 1  IDiag  1:
 E= -535.319921837396     Delta-E=       -0.000050175706 Rises=F Damp=F
 DIIS: error= 1.10D-04 at cycle   4 NSaved=   4.
 NSaved= 4 IEnMin= 4 EnMin= -535.319921837396     IErMin= 4 ErrMin= 1.10D-04
 ErrMax= 1.10D-04  0.00D+00 EMaxC= 1.00D-01 BMatC= 1.61D-06 BMatP= 8.80D-05
 IDIUse=3 WtCom= 9.99D-01 WtEn= 1.10D-03
 Coeff-Com: -0.233D-02-0.356D-01 0.262D-01 0.101D+01
 Coeff-En:   0.000D+00 0.000D+00 0.000D+00 0.100D+01
 Coeff:     -0.233D-02-0.356D-01 0.262D-01 0.101D+01
 Gap=     0.296 Goal=   None    Shift=    0.000
 RMSDP=6.41D-06 MaxDP=2.89D-04 DE=-5.02D-05 OVMax= 4.64D-04

 Cycle   5  Pass 1  IDiag  1:
 E= -535.319923596886     Delta-E=       -0.000001759490 Rises=F Damp=F
 DIIS: error= 3.88D-05 at cycle   5 NSaved=   5.
 NSaved= 5 IEnMin= 5 EnMin= -535.319923596886     IErMin= 5 ErrMin= 3.88D-05
 ErrMax= 3.88D-05  0.00D+00 EMaxC= 1.00D-01 BMatC= 7.31D-08 BMatP= 1.61D-06
 IDIUse=1 WtCom= 1.00D+00 WtEn= 0.00D+00
 Coeff-Com:  0.145D-02-0.814D-02-0.398D-01-0.951D-01 0.114D+01
 Coeff:      0.145D-02-0.814D-02-0.398D-01-0.951D-01 0.114D+01
 Gap=     0.296 Goal=   None    Shift=    0.000
 RMSDP=2.16D-06 MaxDP=6.33D-05 DE=-1.76D-06 OVMax= 1.44D-04

 Cycle   6  Pass 1  IDiag  1:
 E= -535.319923708443     Delta-E=       -0.000000111557 Rises=F Damp=F
 DIIS: error= 5.82D-06 at cycle   6 NSaved=   6.
 NSaved= 6 IEnMin= 6 EnMin= -535.319923708443     IErMin= 6 ErrMin= 5.82D-06
 ErrMax= 5.82D-06  0.00D+00 EMaxC= 1.00D-01 BMatC= 2.04D-09 BMatP= 7.31D-08
 IDIUse=1 WtCom= 1.00D+00 WtEn= 0.00D+00
 Coeff-Com: -0.938D-04 0.199D-02 0.207D-02-0.212D-01-0.101D+00 0.112D+01
 Coeff:     -0.938D-04 0.199D-02 0.207D-02-0.212D-01-0.101D+00 0.112D+01
 Gap=     0.296 Goal=   None    Shift=    0.000
 RMSDP=5.26D-07 MaxDP=1.38D-05 DE=-1.12D-07 OVMax= 2.86D-05

 Cycle   7  Pass 1  IDiag  1:
 E= -535.319923712258     Delta-E=       -0.000000003814 Rises=F Damp=F
 DIIS: error= 1.11D-06 at cycle   7 NSaved=   7.
 NSaved= 7 IEnMin= 7 EnMin= -535.319923712258     IErMin= 7 ErrMin= 1.11D-06
 ErrMax= 1.11D-06  0.00D+00 EMaxC= 1.00D-01 BMatC= 1.30D-10 BMatP= 2.04D-09
 IDIUse=1 WtCom= 1.00D+00 WtEn= 0.00D+00
 Coeff-Com: -0.924D-04 0.771D-03 0.237D-02 0.190D-02-0.717D-01 0.935D-01
 Coeff-Com:  0.973D+00
 Coeff:     -0.924D-04 0.771D-03 0.237D-02 0.190D-02-0.717D-01 0.935D-01
 Coeff:      0.973D+00
 Gap=     0.296 Goal=   None    Shift=    0.000
 RMSDP=1.33D-07 MaxDP=3.41D-06 DE=-3.81D-09 OVMax= 7.06D-06

 Cycle   8  Pass 1  IDiag  1:
 E= -535.319923712464     Delta-E=       -0.000000000207 Rises=F Damp=F
 DIIS: error= 2.03D-07 at cycle   8 NSaved=   8.
 NSaved= 8 IEnMin= 8 EnMin= -535.319923712464     IErMin= 8 ErrMin= 2.03D-07
 ErrMax= 2.03D-07  0.00D+00 EMaxC= 1.00D-01 BMatC= 5.74D-12 BMatP= 1.30D-10
 IDIUse=1 WtCom= 1.00D+00 WtEn= 0.00D+00
 Coeff-Com:  0.176D-04-0.165D-03-0.501D-03-0.119D-03 0.181D-01-0.652D-01
 Coeff-Com: -0.159D+00 0.121D+01
 Coeff:      0.176D-04-0.165D-03-0.501D-03-0.119D-03 0.181D-01-0.652D-01
 Coeff:     -0.159D+00 0.121D+01
 Gap=     0.296 Goal=   None    Shift=    0.000
 RMSDP=3.25D-08 MaxDP=9.14D-07 DE=-2.07D-10 OVMax= 2.14D-06

 Cycle   9  Pass 1  IDiag  1:
 E= -535.319923712476     Delta-E=       -0.000000000012 Rises=F Damp=F
 DIIS: error= 4.35D-08 at cycle   9 NSaved=   9.
 NSaved= 9 IEnMin= 9 EnMin= -535.319923712476     IErMin= 9 ErrMin= 4.35D-08
 ErrMax= 4.35D-08  0.00D+00 EMaxC= 1.00D-01 BMatC= 3.10D-13 BMatP= 5.74D-12
 IDIUse=1 WtCom= 1.00D+00 WtEn= 0.00D+00
 Coeff-Com:  0.609D-05-0.506D-04-0.167D-03-0.152D-03 0.561D-02-0.120D-01
 Coeff-Com: -0.632D-01 0.127D+00 0.943D+00
 Coeff:      0.609D-05-0.506D-04-0.167D-03-0.152D-03 0.561D-02-0.120D-01
 Coeff:     -0.632D-01 0.127D+00 0.943D+00
 Gap=     0.296 Goal=   None    Shift=    0.000
 RMSDP=5.30D-09 MaxDP=1.19D-07 DE=-1.19D-11 OVMax= 4.04D-07

 SCF Done:  E(RHF) =  -535.319923712     A.U. after    9 cycles
            NFock=  9  Conv=0.53D-08     -V/T= 1.9968
 KE= 5.370127965019D+02 PE=-1.365953236201D+03 EE= 2.521876366953D+02
 Leave Link  502 at Mon Nov 15 15:00:50 2021, MaxMem= 16106127360 cpu:              22.1 elap:               1.0
 (Enter /sw/contrib/gaussian/g16/B01/g16/l801.exe)
 ExpMin= 2.53D-02 ExpMax= 4.56D+05 ExpMxC= 1.44D+03 IAcc=3 IRadAn=         5 AccDes= 0.00D+00
 HarFok:  IExCor=  205 AccDes= 0.00D+00 IRadAn=         5 IDoV=-2 UseB2=F ITyADJ=14
 ICtDFT= 12500011 ScaDFX=  1.000000  1.000000  1.000000  1.000000
 Largest valence mixing into a core orbital is  4.54D-04
 Largest core mixing into a valence orbital is  1.84D-04
[...]
 Compute integral first derivatives, UseDBF=F ICtDFT=           0.
 Calling FoFJK, ICntrl=  10002127 FMM=F ISym2X=1 I1Cent= 0 IOpClX= 0 NMat=1 NMatS=1 NMatT=0.
 FoFJK:  IHMeth= 1 ICntrl=10002127 DoSepK=F KAlg= 0 I1Cent=           0 FoldK=F
 IRaf=         0 NMat=       1 IRICut=       1 DoRegI=T DoRafI=F ISym2E= 1 IDoP0=0 IntGTp=1.
 FoFCou: FMM=F IPFlag=           0 FMFlag=      100000 FMFlg1=         800
         NFxFlg=           0 DoJE=F BraDBF=F KetDBF=F FulRan=T
         wScrn=  0.000000 ICntrl=  10002127 IOpCl=  0 I1Cent=           0 NGrid=           0
         NMat0=    1 NMatS0=      1 NMatT0=    0 NMatD0=    1 NMtDS0=    0 NMtDT0=    0
 Petite list used in FoFCou.
 Leave Link  703 at Mon Nov 15 15:05:10 2021, MaxMem= 16106127360 cpu:              21.8 elap:               0.8
 (Enter /sw/contrib/gaussian/g16/B01/g16/l716.exe)
 Dipole        =-3.99629864D-01-2.66168710D+00-9.26092582D-34
 ***** Axes restored to original set *****
 -------------------------------------------------------------------
 Center     Atomic                   Forces (Hartrees/Bohr)
 Number     Number              X              Y              Z
 -------------------------------------------------------------------
      1        8          -0.007062681   -0.009145830    0.000000000
      2        1           0.005735505    0.001065395   -0.000000000
      3       17          -0.047325916   -0.226644226    0.000000000
      4        1           0.048653093    0.234724661   -0.000000000
 -------------------------------------------------------------------
 Cartesian Forces:  Max     0.234724661 RMS     0.096279842
 -----------------------------------------------------------------------------------------------
                       Internal Coordinate Forces (Hartree/Bohr or radian)
  Cent   Atom   N1       Length/X         N2         Alpha/Y        N3         Beta/Z          J
 -----------------------------------------------------------------------------------------------
      1  O 
         X        1   0.000000(     1)
      2  H        1   0.005736(     2)      2   0.000000(     5)
      3  Cl       1   0.231532(     3)      2  -0.000000(     6)      3   0.001825(     8)     0
      4  H        1  -0.239714(     4)      2   0.000000(     7)      3   0.000109(     9)     0
 -----------------------------------------------------------------------------------------------
 Internal  Forces:  Max     0.239713973 RMS     0.111108694
 Leave Link  716 at Mon Nov 15 15:05:10 2021, MaxMem= 16106127360 cpu:               0.8 elap:               0.1
 (Enter /sw/contrib/gaussian/g16/B01/g16/l103.exe)

 GradGradGradGradGradGradGradGradGradGradGradGradGradGradGradGradGradGrad
 Berny optimization.
 Search for a local minimum.
 Step number   1 out of a maximum of   20 on scan point    31 out of    31
 All quantities printed in internal units (Hartrees-Bohrs-Radians)
 Second derivative matrix not updated -- first step.
 The second derivative matrix:
                          r1        r2        r3        a1        OOP
           r1           0.55341
           r2           0.00000   0.02156
           r3           0.00000   0.00000   8.32120
           a1          -0.00000   0.00000   0.00000   0.32000
           OOP          0.00000  -0.00000  -0.00000  -0.00000   0.16000
 ITU=  0
     Eigenvalues --- 1000.000001000.000001000.000001000.000001000.00000
 RFO step:  Lambda= 0.00000000D+00 EMin= 1.00000000D+03
 Linear search not attempted -- first point.
 Variable       Old X    -DE/DX   Delta X   Delta X   Delta X     New X
                                 (Linear)    (Quad)   (Total)
    r1        1.81530   0.00574   0.00000   0.00000   0.00000   1.81530
    r2        5.83840   0.23153   0.00000   0.00000   0.00000   5.83840
    r3        3.77945  -0.23971   0.00000   0.00000   0.00000   3.77945
    a1        1.77530   0.00193   0.00000   0.00000   0.00000   1.77530
   OOP        1.57080   0.00000   0.00000   0.00000   0.00000   1.57080
         Item               Value     Threshold  Converged?
 Maximum Force            0.000000     0.000450     YES
 RMS     Force            0.000000     0.000300     YES
 Maximum Displacement     0.000000     0.001800     YES
 RMS     Displacement     0.000000     0.001200     YES
 Predicted change in Energy=-0.000000D+00
 Optimization completed.
    -- Stationary point found.
                       ----------------------------
                       !   Optimized Parameters   !
                       ! (Angstroms and Degrees)  !
 ----------------------                            ----------------------
 !      Name          Value   Derivative information (Atomic Units)     !
 ------------------------------------------------------------------------
 !       r1          0.9606   -DE/DX =    0.0057                        !
 !       r2          3.0895   -DE/DX =    0.2315                        !
 !       r3          2.0      -DE/DX =   -0.2397                        !
 !       a1        101.7172   -DE/DX =    0.0019                        !
 !       OOP        90.0      -DE/DX =    0.0                           !
 ------------------------------------------------------------------------
 Lowest energy point so far.  Saving SCF results.
 Summary of Optimized Potential Surface Scan (add -536.0 to energies):
                           1         2         3         4         5
     Eigenvalues --     0.65117   0.39228   0.21317   0.08951   0.00483
           r1           0.96062   0.96062   0.96062   0.96062   0.96062
           r2           3.08955   3.08955   3.08955   3.08955   3.08955
           r3           0.50000   0.55000   0.60000   0.65000   0.70000
           a1         101.71721 101.71721 101.71721 101.71721 101.71721
           OOP         90.00000  90.00000  90.00000  90.00000  90.00000
                           6         7         8         9        10
     Eigenvalues --    -0.05223  -0.08961  -0.11294  -0.12628  -0.13257
           r1           0.96062   0.96062   0.96062   0.96062   0.96062
           r2           3.08955   3.08955   3.08955   3.08955   3.08955
           r3           0.75000   0.80000   0.85000   0.90000   0.95000
           a1         101.71721 101.71721 101.71721 101.71721 101.71721
           OOP         90.00000  90.00000  90.00000  90.00000  90.00000
                          11        12        13        14        15
     Eigenvalues --    -0.13396  -0.13203  -0.12797  -0.12265  -0.11675
           r1           0.96062   0.96062   0.96062   0.96062   0.96062
           r2           3.08955   3.08955   3.08955   3.08955   3.08955
           r3           1.00000   1.05000   1.10000   1.15000   1.20000
           a1         101.71721 101.71721 101.71721 101.71721 101.71721
           OOP         90.00000  90.00000  90.00000  90.00000  90.00000
                          16        17        18        19        20
     Eigenvalues --    -0.11073  -0.10494  -0.09960  -0.09483  -0.09067
           r1           0.96062   0.96062   0.96062   0.96062   0.96062
           r2           3.08955   3.08955   3.08955   3.08955   3.08955
           r3           1.25000   1.30000   1.35000   1.40000   1.45000
           a1         101.71721 101.71721 101.71721 101.71721 101.71721
           OOP         90.00000  90.00000  90.00000  90.00000  90.00000
                          21        22        23        24        25
     Eigenvalues --    -0.08711  -0.08405  -0.08136  -0.07880  -0.07606
           r1           0.96062   0.96062   0.96062   0.96062   0.96062
           r2           3.08955   3.08955   3.08955   3.08955   3.08955
           r3           1.50000   1.55000   1.60000   1.65000   1.70000
           a1         101.71721 101.71721 101.71721 101.71721 101.71721
           OOP         90.00000  90.00000  90.00000  90.00000  90.00000
                          26        27        28        29        30
     Eigenvalues --    -0.07269  -0.06813  -0.06162  -0.05219  -0.03864
           r1           0.96062   0.96062   0.96062   0.96062   0.96062
           r2           3.08955   3.08955   3.08955   3.08955   3.08955
           r3           1.75000   1.80000   1.85000   1.90000   1.95000
           a1         101.71721 101.71721 101.71721 101.71721 101.71721
           OOP         90.00000  90.00000  90.00000  90.00000  90.00000
                          31
     Eigenvalues --    -0.01943
           r1           0.96062
           r2           3.08955
           r3           2.00000
           a1         101.71721
           OOP         90.00000
 Largest change from initial coordinates is atom    4       1.444 Angstoms.
 GradGradGradGradGradGradGradGradGradGradGradGradGradGradGradGradGradGrad

 Leave Link  103 at Mon Nov 15 15:05:10 2021, MaxMem= 16106127360 cpu:               0.6 elap:               0.0
 (Enter /sw/contrib/gaussian/g16/B01/g16/l202.exe)
 ---------------------------------------------------------------------------------------------------
                            Z-MATRIX (ANGSTROMS AND DEGREES)
   CD    Cent   Atom    N1       Length/X        N2       Alpha/Y        N3        Beta/Z          J
 ---------------------------------------------------------------------------------------------------
      1      1  O 
      2         X        1  10.000000(     1)
      3      2  H        1   0.960616(     2)      2   90.000(     5)
      4      3  Cl       1   3.089549(     3)      2   90.000(     6)      3  101.717(     8)      0
      5      4  H        1   2.000000(     4)      2   90.000(     7)      3  101.717(     9)      0
 ---------------------------------------------------------------------------------------------------
                         Z-Matrix orientation:                         
 ---------------------------------------------------------------------
 Center     Atomic      Atomic             Coordinates (Angstroms)
 Number     Number       Type             X           Y           Z
 ---------------------------------------------------------------------
      1          8           0        0.000000    0.000000    0.000000
      2         -1           0        0.000000    0.000000   10.000000
      3          1           0        0.960616    0.000000    0.000000
      4         17           0       -0.627430   -3.025169    0.000000
      5          1           0       -0.406163   -1.958324    0.000000
 ---------------------------------------------------------------------
                    Distance matrix (angstroms):
                    1          2          3          4          5
     1  O    0.000000
     2  X   10.000000   0.000000
     3  H    0.960616  10.046033   0.000000
     4  Cl   3.089549  10.466390   3.416656   0.000000
     5  H    2.000000  10.198039   2.388120   1.089549   0.000000
 Stoichiometry    ClH2O(1-)
 Framework group  CS[SG(ClH2O)]
 Deg. of freedom     5
 Full point group                 CS      NOp   2
 RotChk:  IX=0 Diff= 3.14D-16
 Largest Abelian subgroup         CS      NOp   2
 Largest concise Abelian subgroup C1      NOp   1
                         Standard orientation:                         
 ---------------------------------------------------------------------
 Center     Atomic      Atomic             Coordinates (Angstroms)
 Number     Number       Type             X           Y           Z
 ---------------------------------------------------------------------
      1          8           0        0.034837    2.012121   -0.000000
      2          1           0       -0.905762    2.207204    0.000000
      3         17           0        0.034837   -1.077429   -0.000000
      4          1           0        0.034837    0.012121   -0.000000
 ---------------------------------------------------------------------
 Rotational constants (GHZ):         324.2044967           4.3831545           4.3246859
 Leave Link  202 at Mon Nov 15 15:05:11 2021, MaxMem= 16106127360 cpu:               2.4 elap:               0.1
 (Enter /sw/contrib/gaussian/g16/B01/g16/l601.exe)
 Copying SCF densities to generalized density rwf, IOpCl= 0 IROHF=0.

 **********************************************************************

            Population analysis using the MP2 Density.

 **********************************************************************

 Orbital symmetries:
       Occupied  (A') (A') (A') (A') (A') (A") (A') (A') (A') (A')
                 (A") (A') (A') (A")
       Virtual   (A') (A') (A') (A") (A') (A') (A') (A") (A') (A')
                 (A') (A") (A') (A") (A') (A") (A') (A') (A') (A")
                 (A') (A') (A') (A') (A") (A') (A') (A') (A") (A')
                 (A") (A') (A") (A') (A") (A') (A') (A") (A") (A')
                 (A') (A") (A') (A') (A') (A") (A') (A") (A') (A')
                 (A") (A') (A') (A") (A') (A") (A') (A") (A') (A')
                 (A') (A") (A') (A') (A') (A') (A") (A") (A') (A')
                 (A") (A") (A') (A") (A') (A') (A') (A") (A') (A')
                 (A") (A') (A") (A') (A') (A") (A') (A") (A') (A')
                 (A") (A') (A') (A') (A") (A') (A') (A") (A") (A')
                 (A") (A') (A') (A") (A') (A") (A') (A') (A') (A')
                 (A") (A') (A') (A') (A") (A') (A") (A') (A") (A')
                 (A") (A') (A") (A') (A') (A') (A') (A')
 The electronic state is 1-A'.
 Alpha  occ. eigenvalues -- -104.64853 -20.21396 -10.38204  -7.85002  -7.84672
 Alpha  occ. eigenvalues --   -7.84672  -0.97343  -0.93585  -0.47574  -0.30317
 Alpha  occ. eigenvalues --   -0.30190  -0.28345  -0.14557  -0.14184
 Alpha virt. eigenvalues --    0.15761   0.16971   0.23818   0.24078   0.24471
 Alpha virt. eigenvalues --    0.31212   0.33403   0.36186   0.36425   0.40283
 Alpha virt. eigenvalues --    0.45530   0.46805   0.47419   0.48679   0.50234
 Alpha virt. eigenvalues --    0.52042   0.52111   0.57295   0.61301   0.62627
 Alpha virt. eigenvalues --    0.63275   0.68368   0.72599   0.82049   0.85125
 Alpha virt. eigenvalues --    0.89544   0.93069   0.95809   0.97300   0.97866
 Alpha virt. eigenvalues --    1.02099   1.03971   1.05565   1.06111   1.07560
 Alpha virt. eigenvalues --    1.09700   1.12536   1.14138   1.17990   1.19244
 Alpha virt. eigenvalues --    1.22564   1.24159   1.24233   1.26066   1.28960
 Alpha virt. eigenvalues --    1.31877   1.34686   1.35501   1.36352   1.39017
 Alpha virt. eigenvalues --    1.39204   1.48744   1.64536   1.67073   1.67618
 Alpha virt. eigenvalues --    1.78111   1.78158   1.83196   1.87222   1.89631
 Alpha virt. eigenvalues --    1.92254   2.06594   2.14399   2.20341   2.34909
 Alpha virt. eigenvalues --    2.43494   2.58988   2.61327   2.61444   2.64383
 Alpha virt. eigenvalues --    2.67593   2.69738   2.70021   2.72975   2.73386
 Alpha virt. eigenvalues --    2.74920   2.78102   2.83140   2.88401   2.92063
 Alpha virt. eigenvalues --    3.06716   3.07875   3.10275   3.12484   3.22922
 Alpha virt. eigenvalues --    3.22936   3.23038   3.23434   3.23892   3.30594
 Alpha virt. eigenvalues --    3.65493   3.71003   3.79903   4.00594   4.24743
 Alpha virt. eigenvalues --    4.26711   4.32537   4.44462   4.52495   4.56773
 Alpha virt. eigenvalues --    4.66446   4.75268   4.81234   4.83477   4.88211
 Alpha virt. eigenvalues --    5.03995   5.04470   5.12491   5.33287   5.56679
 Alpha virt. eigenvalues --    5.68895   5.71057   6.08735   6.58115   7.01663
 Alpha virt. eigenvalues --    7.09916   7.10316   7.17982   7.50183   7.53641
 Alpha virt. eigenvalues --    7.56927   7.61215   7.63346   7.71177   7.84642
 Alpha virt. eigenvalues --    8.23923  10.79908  13.95618
          Condensed to atoms (all electrons):
               1          2          3          4
     1  O    8.807996   0.273468  -0.058290   0.012009
     2  H    0.273468   0.648887   0.003477  -0.001621
     3  Cl  -0.058290   0.003477  17.526870   0.088674
     4  H    0.012009  -0.001621   0.088674   0.380813
 Mulliken charges:
               1
     1  O   -1.035183
     2  H    0.075789
     3  Cl  -0.560731
     4  H    0.520124
 Sum of Mulliken charges =  -1.00000
 Mulliken charges with hydrogens summed into heavy atoms:
               1
     1  O   -0.959394
     3  Cl  -0.040606
 Electronic spatial extent (au):  <R**2>=            273.8472
 Charge=             -1.0000 electrons
 Dipole moment (field-independent basis, Debye):
    X=             -1.0158    Y=             -6.7653    Z=             -0.0000  Tot=              6.8412
 Quadrupole moment (field-independent basis, Debye-Ang):
   XX=            -22.2747   YY=            -43.3278   ZZ=            -24.8786
   XY=             -2.5632   XZ=              0.0000   YZ=              0.0000
 Traceless Quadrupole moment (field-independent basis, Debye-Ang):
   XX=              7.8856   YY=            -13.1674   ZZ=              5.2818
   XY=             -2.5632   XZ=              0.0000   YZ=              0.0000
 Octapole moment (field-independent basis, Debye-Ang**2):
  XXX=             -0.6799  YYY=            -53.1350  ZZZ=             -0.0000  XYY=             -6.3212
  XXY=             -0.6598  XXZ=              0.0000  XZZ=              0.1655  YZZ=             -6.1960
  YYZ=              0.0000  XYZ=             -0.0000
 Hexadecapole moment (field-independent basis, Debye-Ang**3):
 XXXX=            -33.0733 YYYY=           -448.1919 ZZZZ=            -36.7844 XXXY=              2.5816
 XXXZ=              0.0000 YYYX=            -10.2417 YYYZ=              0.0000 ZZZX=              0.0000
 ZZZY=              0.0000 XXYY=            -60.2195 XXZZ=            -11.8914 YYZZ=            -72.2857
 XXYZ=              0.0000 YYXZ=              0.0000 ZZXY=              1.7593
 N-N= 4.092894457872D+01 E-N=-1.363972905717D+03  KE= 5.363771260387D+02
 Symmetry A'   KE= 4.866594878061D+02
 Symmetry A"   KE= 4.971763823262D+01
 No NMR shielding tensors so no spin-rotation constants.
 Leave Link  601 at Mon Nov 15 15:05:11 2021, MaxMem= 16106127360 cpu:               3.9 elap:               0.2
 (Enter /sw/contrib/gaussian/g16/B01/g16/l9999.exe)
 1\1\GINC-N2098\Scan\RMP2-FC\Aug-CC-pVTZ\Cl1H2O1(1-)\CGAVINH\15-Nov-202
 1\1\\#p opt=(z-matrix) mp2/aug-cc-pvtz density=current\\title\\-1,1\O\
 X,1,10.\H,1,r1,2,90.\Cl,1,r2,2,90.,3,a1,0\H,1,r3,2,OOP,3,a1,0\\r1=0.96
 061628,s,-1000,0.\r2=3.08954942,s,-1000,0.\r3=2.,s,30,0.05\a1=101.7172
 0655,s,-1000,0.\OOP=90.,s,-1000,0.\\Version=ES64L-G16RevB.01\State=1-A
 '\HF=-534.8842141,-535.142115,-535.3199237,-535.4420213,-535.5249334,-
 535.580042,-535.61531,-535.6363933,-535.6473618,-535.6511755,-535.6500
 08,-535.6454718,-535.6387774,-535.6308453,-535.6223828,-535.6139348,-5
 35.6059156,-535.5986278,-535.5922726,-535.5869538,-535.5826784,-535.57
 93556,-535.5767931,-535.5746933,-535.5726475,-535.5701273,-535.5664701
 ,-535.5608578,-535.5522817,-535.539493,-535.5209321\MP2=-535.3488307,-
 535.6077199,-535.7868327,-535.9104914,-535.9951749,-536.052233,-536.08
 96074,-536.1129379,-536.126278,-536.1325677,-536.1339565,-536.13203,-5
 36.1279683,-536.1226546,-536.1167473,-536.1107286,-536.1049378,-536.09
 95957,-536.0948258,-536.0906712,-536.0871085,-536.0840533,-536.0813579
 ,-536.0787983,-536.0760558,-536.0726932,-536.0681302,-536.0616151,-536
 .0521897,-536.0386408,-536.019432\RMSD=5.704e-09,5.470e-09,5.303e-09,4
 .260e-09,5.088e-09,7.792e-09,7.813e-09,7.484e-09,7.203e-09,7.226e-09,7
 .670e-09,8.620e-09,9.950e-09,3.116e-09,3.502e-09,4.024e-09,4.747e-09,5
 .953e-09,7.748e-09,9.791e-09,5.219e-09,5.451e-09,5.508e-09,5.393e-09,5
 .116e-09,4.701e-09,4.185e-09,3.610e-09,3.023e-09,2.480e-09,2.050e-09\P
 G=CS [SG(Cl1H2O1)]\\@


 A MAN SHOULD NEVER BE ASHAMED TO OWN HE HAS BEEN IN THE WRONG
 WHICH IS BUT SAYING IN OTHER WORDS,
 THAT HE IS WISER TODAY THAN HE WAS YESTERDAY.

                          -- JONATHAN SWIFT
 Job cpu time:       0 days  1 hours 56 minutes 54.4 seconds.
 Elapsed time:       0 days  0 hours  4 minutes 41.3 seconds.
 File lengths (MBytes):  RWF=     16 Int=      0 D2E=      0 Chk=      8 Scr=      1
 Normal termination of Gaussian 16 at Mon Nov 15 15:05:11 2021.
