 Entering Gaussian System, Link 0=g16
 Input=clhod_rOH_100_sp.gjf
 Output=clhod_rOH_100_sp.log
 Initial command:
 /sw/contrib/gaussian/g16/B01/g16/l1.exe "/scr/Gau-11675.inp" -scrdir="/scr/"
 Entering Link 1 = /sw/contrib/gaussian/g16/B01/g16/l1.exe PID=     11676.
  
 Copyright (c) 1988-2017, Gaussian, Inc.  All Rights Reserved.
  
 This is part of the Gaussian(R) 16 program.  It is based on
 the Gaussian(R) 09 system (copyright 2009, Gaussian, Inc.),
 the Gaussian(R) 03 system (copyright 2003, Gaussian, Inc.),
 the Gaussian(R) 98 system (copyright 1998, Gaussian, Inc.),
 the Gaussian(R) 94 system (copyright 1995, Gaussian, Inc.),
 the Gaussian 92(TM) system (copyright 1992, Gaussian, Inc.),
 the Gaussian 90(TM) system (copyright 1990, Gaussian, Inc.),
 the Gaussian 88(TM) system (copyright 1988, Gaussian, Inc.),
 the Gaussian 86(TM) system (copyright 1986, Carnegie Mellon
 University), and the Gaussian 82(TM) system (copyright 1983,
 Carnegie Mellon University). Gaussian is a federally registered
 trademark of Gaussian, Inc.
  
 This software contains proprietary and confidential information,
 including trade secrets, belonging to Gaussian, Inc.
  
 This software is provided under written license and may be
 used, copied, transmitted, or stored only in accord with that
 written license.
  
 The following legend is applicable only to US Government
 contracts under FAR:
  
                    RESTRICTED RIGHTS LEGEND
  
 Use, reproduction and disclosure by the US Government is
 subject to restrictions as set forth in subparagraphs (a)
 and (c) of the Commercial Computer Software - Restricted
 Rights clause in FAR 52.227-19.
  
 Gaussian, Inc.
 340 Quinnipiac St., Bldg. 40, Wallingford CT 06492
  
  
 ---------------------------------------------------------------
 Warning -- This program may not be used in any manner that
 competes with the business of Gaussian, Inc. or will provide
 assistance to any competitor of Gaussian, Inc.  The licensee
 of this program is prohibited from giving any competitor of
 Gaussian, Inc. access to this program.  By using this program,
 the user acknowledges that Gaussian, Inc. is engaged in the
 business of creating and licensing software in the field of
 computational chemistry and represents and warrants to the
 licensee that it is not a competitor of Gaussian, Inc. and that
 it will not use this program in any manner prohibited above.
 ---------------------------------------------------------------
  

 Cite this work as:
 Gaussian 16, Revision B.01,
 M. J. Frisch, G. W. Trucks, H. B. Schlegel, G. E. Scuseria, 
 M. A. Robb, J. R. Cheeseman, G. Scalmani, V. Barone, 
 G. A. Petersson, H. Nakatsuji, X. Li, M. Caricato, A. V. Marenich, 
 J. Bloino, B. G. Janesko, R. Gomperts, B. Mennucci, H. P. Hratchian, 
 J. V. Ortiz, A. F. Izmaylov, J. L. Sonnenberg, D. Williams-Young, 
 F. Ding, F. Lipparini, F. Egidi, J. Goings, B. Peng, A. Petrone, 
 T. Henderson, D. Ranasinghe, V. G. Zakrzewski, J. Gao, N. Rega, 
 G. Zheng, W. Liang, M. Hada, M. Ehara, K. Toyota, R. Fukuda, 
 J. Hasegawa, M. Ishida, T. Nakajima, Y. Honda, O. Kitao, H. Nakai, 
 T. Vreven, K. Throssell, J. A. Montgomery, Jr., J. E. Peralta, 
 F. Ogliaro, M. J. Bearpark, J. J. Heyd, E. N. Brothers, K. N. Kudin, 
 V. N. Staroverov, T. A. Keith, R. Kobayashi, J. Normand, 
 K. Raghavachari, A. P. Rendell, J. C. Burant, S. S. Iyengar, 
 J. Tomasi, M. Cossi, J. M. Millam, M. Klene, C. Adamo, R. Cammi, 
 J. W. Ochterski, R. L. Martin, K. Morokuma, O. Farkas, 
 J. B. Foresman, and D. J. Fox, Gaussian, Inc., Wallingford CT, 2016.
 
 ******************************************
 Gaussian 16:  ES64L-G16RevB.01 20-Dec-2017
                 8-Oct-2021 
 ******************************************
 %nproc=28
 Will use up to   28 processors via shared memory.
 %mem=120GB
 %chk=/gscratch/ilahie/mccoygrp/coire_hocl/rOH_s_oop_0/clhod/clhod_100_sp.chk
 ----------------------------------------------------
 #p pop=NBO SP NoSymm mp2/aug-cc-pvtz density=current
 ----------------------------------------------------
 1/30=1,38=1,172=1/1;
 2/12=2,15=1,17=6,18=5,40=1/2;
 3/5=16,6=1,7=10,11=9,25=1,30=1,71=1/1,2,3;
 4//1;
 5/5=2,38=5/2;
 8/6=4,10=1/1;
 9/15=1,16=-3/6;
 10/5=1,13=10,31=1/2;
 6/7=2,8=2,9=2,10=2,22=-1,40=1/1,7;
 99/5=1,9=1/99;
 Leave Link    1 at Fri Oct  8 13:07:46 2021, MaxMem= 16106127360 cpu:               2.2 elap:               0.1
 (Enter /sw/contrib/gaussian/g16/B01/g16/l101.exe)
 -----
 title
 -----
 Symbolic Z-matrix:
 Charge = -1 Multiplicity = 1
 O
 X                    1     10. 
 H(iso=2)             1    r1       2     90. 
 Cl                   1    r2       2     90.      3    a1       0
 H                    1    r3       2    oop      3    a1       0
       Variables:
  r1                    0.96062                  
  r2                    3.08955                  
  r3                    1.                       
  a1                  101.71721                  
  OOP                  90.                       
 
 ITRead=  0  0  0  0
 MicOpt= -1 -1 -1 -1
 NAtoms=      4 NQM=        4 NQMF=       0 NMMI=      0 NMMIF=      0
                NMic=       0 NMicF=      0.
                    Isotopes and Nuclear Properties:
 (Nuclear quadrupole moments (NQMom) in fm**2, nuclear magnetic moments (NMagM)
  in nuclear magnetons)

  Atom         1           2           3           4
 IAtWgt=          16           2          35           1
 AtmWgt=  15.9949146   2.0141018  34.9688527   1.0078250
 NucSpn=           0           2           3           1
 AtZEff=  -0.0000000  -0.0000000  -0.0000000  -0.0000000
 NQMom=    0.0000000   0.2860000  -8.1650000   0.0000000
 NMagM=    0.0000000   0.8574380   0.8218740   2.7928460
 AtZNuc=   8.0000000   1.0000000  17.0000000   1.0000000
 Leave Link  101 at Fri Oct  8 13:07:47 2021, MaxMem= 16106127360 cpu:               2.6 elap:               0.1
 (Enter /sw/contrib/gaussian/g16/B01/g16/l202.exe)
                          Input orientation:                          
 ---------------------------------------------------------------------
 Center     Atomic      Atomic             Coordinates (Angstroms)
 Number     Number       Type             X           Y           Z
 ---------------------------------------------------------------------
      1          8           0        0.000000    0.000000    0.000000
      2          1           0        0.960616    0.000000    0.000000
      3         17           0       -0.627430   -3.025169    0.000000
      4          1           0       -0.203081   -0.979162    0.000000
 ---------------------------------------------------------------------
                    Distance matrix (angstroms):
                    1          2          3          4
     1  O    0.000000
     2  H    0.960616   0.000000
     3  Cl   3.089549   3.416656   0.000000
     4  H    1.000000   1.520839   2.089549   0.000000
 Symmetry turned off by external request.
 Stoichiometry    ClH2O(1-)
 Framework group  CS[SG(ClH2O)]
 Deg. of freedom     5
 Full point group                 CS      NOp   2
 Rotational constants (GHZ):         323.3698302           4.3436712           4.2860981
 Leave Link  202 at Fri Oct  8 13:07:47 2021, MaxMem= 16106127360 cpu:               0.2 elap:               0.0
 (Enter /sw/contrib/gaussian/g16/B01/g16/l301.exe)
 Standard basis: Aug-CC-pVTZ (5D, 7F)
 Ernie: Thresh=  0.10000D-02 Tol=  0.10000D-05 Strict=F.
 Ernie:  16 primitive shells out of 116 were deleted.
   142 basis functions,   240 primitive gaussians,   164 cartesian basis functions
    14 alpha electrons       14 beta electrons
       nuclear repulsion energy        39.2206217276 Hartrees.
 IExCor=    0 DFT=F Ex=HF Corr=None ExCW=0 ScaHFX=  1.000000
 ScaDFX=  1.000000  1.000000  1.000000  1.000000 ScalE2=  1.000000  1.000000
 IRadAn=      5 IRanWt=     -1 IRanGd=            0 ICorTp=0 IEmpDi=  4
 NAtoms=    4 NActive=    4 NUniq=    4 SFac= 1.00D+00 NAtFMM=   60 NAOKFM=F Big=F
 Integral buffers will be    131072 words long.
 Raffenetti 1 integral format.
 Two-electron integral symmetry is turned off.
 Leave Link  301 at Fri Oct  8 13:07:47 2021, MaxMem= 16106127360 cpu:               1.5 elap:               0.1
 (Enter /sw/contrib/gaussian/g16/B01/g16/l302.exe)
 NPDir=0 NMtPBC=     1 NCelOv=     1 NCel=       1 NClECP=     1 NCelD=      1
         NCelK=      1 NCelE2=     1 NClLst=     1 CellRange=     0.0.
 One-electron integrals computed using PRISM.
 NBasis=   142 RedAO= T EigKep=  2.89D-04  NBF=   142
 NBsUse=   142 1.00D-06 EigRej= -1.00D+00 NBFU=   142
 Leave Link  302 at Fri Oct  8 13:07:47 2021, MaxMem= 16106127360 cpu:               4.1 elap:               0.2
 (Enter /sw/contrib/gaussian/g16/B01/g16/l303.exe)
 DipDrv:  MaxL=1.
 Leave Link  303 at Fri Oct  8 13:07:47 2021, MaxMem= 16106127360 cpu:               3.6 elap:               0.2
 (Enter /sw/contrib/gaussian/g16/B01/g16/l401.exe)
 ExpMin= 2.53D-02 ExpMax= 4.56D+05 ExpMxC= 1.44D+03 IAcc=3 IRadAn=         5 AccDes= 0.00D+00
 Harris functional with IExCor=  205 and IRadAn=       5 diagonalized for initial guess.
 HarFok:  IExCor=  205 AccDes= 0.00D+00 IRadAn=         5 IDoV= 1 UseB2=F ITyADJ=14
 ICtDFT=  3500011 ScaDFX=  1.000000  1.000000  1.000000  1.000000
 FoFCou: FMM=F IPFlag=           0 FMFlag=      100000 FMFlg1=           0
         NFxFlg=           0 DoJE=T BraDBF=F KetDBF=T FulRan=T
         wScrn=  0.000000 ICntrl=       500 IOpCl=  0 I1Cent=   200000004 NGrid=           0
         NMat0=    1 NMatS0=      1 NMatT0=    0 NMatD0=    1 NMtDS0=    0 NMtDT0=    0
 Symmetry not used in FoFCou.
 Harris En= -535.446455882078    
 JPrj=0 DoOrth=F DoCkMO=F.
 Leave Link  401 at Fri Oct  8 13:07:47 2021, MaxMem= 16106127360 cpu:               6.2 elap:               0.3
 (Enter /sw/contrib/gaussian/g16/B01/g16/l502.exe)
 Keep R1 ints in memory in canonical form, NReq=65346247.
 FoFCou: FMM=F IPFlag=           0 FMFlag=           0 FMFlg1=           0
         NFxFlg=           0 DoJE=F BraDBF=F KetDBF=F FulRan=T
         wScrn=  0.000000 ICntrl=       600 IOpCl=  0 I1Cent=           0 NGrid=           0
         NMat0=    1 NMatS0=  10153 NMatT0=    0 NMatD0=    1 NMtDS0=    0 NMtDT0=    0
 Symmetry not used in FoFCou.
 Two-electron integral symmetry not used.
 Closed shell SCF:
 Using DIIS extrapolation, IDIIS=  1040.
 NGot= 16106127360 LenX= 16054521101 LenY= 16054493764
 Requested convergence on RMS density matrix=1.00D-08 within 128 cycles.
 Requested convergence on MAX density matrix=1.00D-06.
 Requested convergence on             energy=1.00D-06.
 No special actions if energy rises.

 Cycle   1  Pass 1  IDiag  1:
 E= -535.513818670832    
 DIIS: error= 4.69D-02 at cycle   1 NSaved=   1.
 NSaved= 1 IEnMin= 1 EnMin= -535.513818670832     IErMin= 1 ErrMin= 4.69D-02
 ErrMax= 4.69D-02  0.00D+00 EMaxC= 1.00D-01 BMatC= 3.43D-01 BMatP= 3.43D-01
 IDIUse=3 WtCom= 5.31D-01 WtEn= 4.69D-01
 Coeff-Com:  0.100D+01
 Coeff-En:   0.100D+01
 Coeff:      0.100D+01
 Gap=     0.389 Goal=   None    Shift=    0.000
 GapD=    0.389 DampG=1.000 DampE=0.500 DampFc=0.5000 IDamp=-1.
 Damping current iteration by 5.00D-01
 RMSDP=2.24D-03 MaxDP=5.77D-02              OVMax= 1.32D-01

 Cycle   2  Pass 1  IDiag  1:
 E= -535.586026495586     Delta-E=       -0.072207824755 Rises=F Damp=T
 DIIS: error= 1.65D-02 at cycle   2 NSaved=   2.
 NSaved= 2 IEnMin= 2 EnMin= -535.586026495586     IErMin= 2 ErrMin= 1.65D-02
 ErrMax= 1.65D-02  0.00D+00 EMaxC= 1.00D-01 BMatC= 6.28D-02 BMatP= 3.43D-01
 IDIUse=3 WtCom= 8.35D-01 WtEn= 1.65D-01
 Coeff-Com: -0.476D+00 0.148D+01
 Coeff-En:   0.000D+00 0.100D+01
 Coeff:     -0.397D+00 0.140D+01
 Gap=     0.319 Goal=   None    Shift=    0.000
 RMSDP=9.37D-04 MaxDP=3.38D-02 DE=-7.22D-02 OVMax= 6.74D-02

 Cycle   3  Pass 1  IDiag  1:
 E= -535.648392984890     Delta-E=       -0.062366489304 Rises=F Damp=F
 DIIS: error= 5.75D-03 at cycle   3 NSaved=   3.
 NSaved= 3 IEnMin= 3 EnMin= -535.648392984890     IErMin= 3 ErrMin= 5.75D-03
 ErrMax= 5.75D-03  0.00D+00 EMaxC= 1.00D-01 BMatC= 2.38D-03 BMatP= 6.28D-02
 IDIUse=3 WtCom= 9.42D-01 WtEn= 5.75D-02
 Coeff-Com: -0.150D+00 0.271D+00 0.879D+00
 Coeff-En:   0.000D+00 0.000D+00 0.100D+01
 Coeff:     -0.141D+00 0.255D+00 0.886D+00
 Gap=     0.322 Goal=   None    Shift=    0.000
 RMSDP=1.72D-04 MaxDP=4.28D-03 DE=-6.24D-02 OVMax= 1.14D-02

 Cycle   4  Pass 1  IDiag  1:
 E= -535.649945063457     Delta-E=       -0.001552078567 Rises=F Damp=F
 DIIS: error= 6.12D-04 at cycle   4 NSaved=   4.
 NSaved= 4 IEnMin= 4 EnMin= -535.649945063457     IErMin= 4 ErrMin= 6.12D-04
 ErrMax= 6.12D-04  0.00D+00 EMaxC= 1.00D-01 BMatC= 4.98D-05 BMatP= 2.38D-03
 IDIUse=3 WtCom= 9.94D-01 WtEn= 6.12D-03
 Coeff-Com: -0.227D-01 0.385D-01 0.182D+00 0.802D+00
 Coeff-En:   0.000D+00 0.000D+00 0.000D+00 0.100D+01
 Coeff:     -0.225D-01 0.383D-01 0.181D+00 0.803D+00
 Gap=     0.316 Goal=   None    Shift=    0.000
 RMSDP=3.90D-05 MaxDP=9.59D-04 DE=-1.55D-03 OVMax= 2.33D-03

 Cycle   5  Pass 1  IDiag  1:
 E= -535.649997333499     Delta-E=       -0.000052270042 Rises=F Damp=F
 DIIS: error= 1.67D-04 at cycle   5 NSaved=   5.
 NSaved= 5 IEnMin= 5 EnMin= -535.649997333499     IErMin= 5 ErrMin= 1.67D-04
 ErrMax= 1.67D-04  0.00D+00 EMaxC= 1.00D-01 BMatC= 3.76D-06 BMatP= 4.98D-05
 IDIUse=3 WtCom= 9.98D-01 WtEn= 1.67D-03
 Coeff-Com:  0.148D-01-0.282D-01-0.899D-01-0.470D-01 0.115D+01
 Coeff-En:   0.000D+00 0.000D+00 0.000D+00 0.000D+00 0.100D+01
 Coeff:      0.148D-01-0.281D-01-0.897D-01-0.469D-01 0.115D+01
 Gap=     0.316 Goal=   None    Shift=    0.000
 RMSDP=2.12D-05 MaxDP=5.37D-04 DE=-5.23D-05 OVMax= 1.63D-03

 Cycle   6  Pass 1  IDiag  1:
 E= -535.650007121240     Delta-E=       -0.000009787741 Rises=F Damp=F
 DIIS: error= 5.22D-05 at cycle   6 NSaved=   6.
 NSaved= 6 IEnMin= 6 EnMin= -535.650007121240     IErMin= 6 ErrMin= 5.22D-05
 ErrMax= 5.22D-05  0.00D+00 EMaxC= 1.00D-01 BMatC= 2.43D-07 BMatP= 3.76D-06
 IDIUse=1 WtCom= 1.00D+00 WtEn= 0.00D+00
 Coeff-Com: -0.202D-02 0.442D-02 0.113D-01-0.129D-01-0.363D+00 0.136D+01
 Coeff:     -0.202D-02 0.442D-02 0.113D-01-0.129D-01-0.363D+00 0.136D+01
 Gap=     0.316 Goal=   None    Shift=    0.000
 RMSDP=7.03D-06 MaxDP=1.50D-04 DE=-9.79D-06 OVMax= 5.38D-04

 Cycle   7  Pass 1  IDiag  1:
 E= -535.650007984829     Delta-E=       -0.000000863590 Rises=F Damp=F
 DIIS: error= 1.10D-05 at cycle   7 NSaved=   7.
 NSaved= 7 IEnMin= 7 EnMin= -535.650007984829     IErMin= 7 ErrMin= 1.10D-05
 ErrMax= 1.10D-05  0.00D+00 EMaxC= 1.00D-01 BMatC= 7.87D-09 BMatP= 2.43D-07
 IDIUse=1 WtCom= 1.00D+00 WtEn= 0.00D+00
 Coeff-Com:  0.141D-04-0.215D-03-0.135D-03 0.463D-02 0.698D-01-0.420D+00
 Coeff-Com:  0.135D+01
 Coeff:      0.141D-04-0.215D-03-0.135D-03 0.463D-02 0.698D-01-0.420D+00
 Coeff:      0.135D+01
 Gap=     0.316 Goal=   None    Shift=    0.000
 RMSDP=1.19D-06 MaxDP=3.12D-05 DE=-8.64D-07 OVMax= 8.52D-05

 Cycle   8  Pass 1  IDiag  1:
 E= -535.650008010309     Delta-E=       -0.000000025480 Rises=F Damp=F
 DIIS: error= 1.89D-06 at cycle   8 NSaved=   8.
 NSaved= 8 IEnMin= 8 EnMin= -535.650008010309     IErMin= 8 ErrMin= 1.89D-06
 ErrMax= 1.89D-06  0.00D+00 EMaxC= 1.00D-01 BMatC= 2.74D-10 BMatP= 7.87D-09
 IDIUse=1 WtCom= 1.00D+00 WtEn= 0.00D+00
 Coeff-Com:  0.564D-04-0.126D-03-0.345D-03 0.242D-03 0.115D-01-0.410D-01
 Coeff-Com: -0.124D-01 0.104D+01
 Coeff:      0.564D-04-0.126D-03-0.345D-03 0.242D-03 0.115D-01-0.410D-01
 Coeff:     -0.124D-01 0.104D+01
 Gap=     0.316 Goal=   None    Shift=    0.000
 RMSDP=1.62D-07 MaxDP=3.80D-06 DE=-2.55D-08 OVMax= 1.16D-05

 Cycle   9  Pass 1  IDiag  1:
 E= -535.650008010923     Delta-E=       -0.000000000614 Rises=F Damp=F
 DIIS: error= 5.69D-07 at cycle   9 NSaved=   9.
 NSaved= 9 IEnMin= 9 EnMin= -535.650008010923     IErMin= 9 ErrMin= 5.69D-07
 ErrMax= 5.69D-07  0.00D+00 EMaxC= 1.00D-01 BMatC= 2.68D-11 BMatP= 2.74D-10
 IDIUse=1 WtCom= 1.00D+00 WtEn= 0.00D+00
 Coeff-Com: -0.126D-04 0.434D-04 0.752D-04-0.420D-03-0.797D-02 0.445D-01
 Coeff-Com: -0.128D+00-0.112D+00 0.120D+01
 Coeff:     -0.126D-04 0.434D-04 0.752D-04-0.420D-03-0.797D-02 0.445D-01
 Coeff:     -0.128D+00-0.112D+00 0.120D+01
 Gap=     0.316 Goal=   None    Shift=    0.000
 RMSDP=5.17D-08 MaxDP=1.13D-06 DE=-6.14D-10 OVMax= 4.18D-06

 Cycle  10  Pass 1  IDiag  1:
 E= -535.650008010996     Delta-E=       -0.000000000073 Rises=F Damp=F
 DIIS: error= 9.34D-08 at cycle  10 NSaved=  10.
 NSaved=10 IEnMin=10 EnMin= -535.650008010996     IErMin=10 ErrMin= 9.34D-08
 ErrMax= 9.34D-08  0.00D+00 EMaxC= 1.00D-01 BMatC= 1.08D-12 BMatP= 2.68D-11
 IDIUse=1 WtCom= 1.00D+00 WtEn= 0.00D+00
 Coeff-Com: -0.850D-06 0.333D-06 0.335D-05 0.273D-04 0.379D-03-0.309D-02
 Coeff-Com:  0.157D-01-0.379D-01-0.125D+00 0.115D+01
 Coeff:     -0.850D-06 0.333D-06 0.335D-05 0.273D-04 0.379D-03-0.309D-02
 Coeff:      0.157D-01-0.379D-01-0.125D+00 0.115D+01
 Gap=     0.316 Goal=   None    Shift=    0.000
 RMSDP=1.61D-08 MaxDP=5.00D-07 DE=-7.26D-11 OVMax= 8.54D-07

 Cycle  11  Pass 1  IDiag  1:
 E= -535.650008010997     Delta-E=       -0.000000000001 Rises=F Damp=F
 DIIS: error= 2.14D-08 at cycle  11 NSaved=  11.
 NSaved=11 IEnMin=11 EnMin= -535.650008010997     IErMin=11 ErrMin= 2.14D-08
 ErrMax= 2.14D-08  0.00D+00 EMaxC= 1.00D-01 BMatC= 5.82D-14 BMatP= 1.08D-12
 IDIUse=1 WtCom= 1.00D+00 WtEn= 0.00D+00
 Coeff-Com:  0.988D-06-0.277D-05-0.495D-05 0.209D-04 0.395D-03-0.210D-02
 Coeff-Com:  0.518D-02 0.958D-02-0.593D-01-0.110D+00 0.116D+01
 Coeff:      0.988D-06-0.277D-05-0.495D-05 0.209D-04 0.395D-03-0.210D-02
 Coeff:      0.518D-02 0.958D-02-0.593D-01-0.110D+00 0.116D+01
 Gap=     0.316 Goal=   None    Shift=    0.000
 RMSDP=5.53D-09 MaxDP=1.91D-07 DE=-1.02D-12 OVMax= 2.14D-07

 SCF Done:  E(RHF) =  -535.650008011     A.U. after   11 cycles
            NFock= 11  Conv=0.55D-08     -V/T= 2.0002
 KE= 5.355312831077D+02 PE=-1.361223034095D+03 EE= 2.508211212490D+02
 Leave Link  502 at Fri Oct  8 13:07:49 2021, MaxMem= 16106127360 cpu:              19.8 elap:               1.5
 (Enter /sw/contrib/gaussian/g16/B01/g16/l801.exe)
 ExpMin= 2.53D-02 ExpMax= 4.56D+05 ExpMxC= 1.44D+03 IAcc=3 IRadAn=         5 AccDes= 0.00D+00
 HarFok:  IExCor=  205 AccDes= 0.00D+00 IRadAn=         5 IDoV=-2 UseB2=F ITyADJ=14
 ICtDFT= 12500011 ScaDFX=  1.000000  1.000000  1.000000  1.000000
 Largest valence mixing into a core orbital is  4.53D-04
 Largest core mixing into a valence orbital is  1.83D-04
 Range of M.O.s used for correlation:     7   142
 NBasis=   142 NAE=    14 NBE=    14 NFC=     6 NFV=     0
 NROrb=    136 NOA=     8 NOB=     8 NVA=   128 NVB=   128

 **** Warning!!: The largest alpha MO coefficient is  0.16681210D+02

 Leave Link  801 at Fri Oct  8 13:07:49 2021, MaxMem= 16106127360 cpu:               2.2 elap:               0.1
 (Enter /sw/contrib/gaussian/g16/B01/g16/l906.exe)
 Frozen-core derivative calculation, NFC=   6 NFV=   0.
 FulOut=F Deriv=T AODrv=F NAtomX=     4
   MMem=         252  MDisk=           8 MDiskD=           8
  W3Min=      326032 MinDsk=      657538 NBas6D=         164
 NBas2D=       13905    NTT=       13530    LW2=     3500000
    MDV= 16105867644 MDiskM=      490971 NBas2p=       13814
 Fully in-core method, ICMem=   205321089.
 IMap=   1   2   3   4   5   6   7   8   9  10  11  12  13  14
 JobTyp=1 Pass  1 fully in-core, NPsUse= 28.
 Compute canonical integrals.
 FoFCou: FMM=F IPFlag=           0 FMFlag=           0 FMFlg1=           0
         NFxFlg=           0 DoJE=F BraDBF=F KetDBF=F FulRan=T
         wScrn=  0.000000 ICntrl=       600 IOpCl=  1 I1Cent=           0 NGrid=           0
         NMat0=    1 NMatS0=  13905 NMatT0=    0 NMatD0=    1 NMtDS0=    0 NMtDT0=    0
 Symmetry not used in FoFCou.
 Spin components of T(2) and E(2):
     alpha-alpha T2 =       0.1968723018D-01 E2=     -0.6027636273D-01
     alpha-beta  T2 =       0.1075804045D+00 E2=     -0.3633957323D+00
     beta-beta   T2 =       0.1968723018D-01 E2=     -0.6027636273D-01
 The integrals were generated   1 times.
 ANorm=    0.1070959787D+01
 E2 =    -0.4839484577D+00 EUMP2 =    -0.53613395646874D+03
 Leave Link  906 at Fri Oct  8 13:07:51 2021, MaxMem= 16106127360 cpu:              49.8 elap:               1.8
 (Enter /sw/contrib/gaussian/g16/B01/g16/l1002.exe)
 Minotr:  Closed shell wavefunction.
          Computing MP2/KS-MP2 derivatives.
          Using Z-Vector for PSCF gradient.
          Skipping F1 and S1 gradient terms here.
          Frozen-core window.
          Direct CPHF calculation.
          Differentiating once with respect to electric field.
                with respect to dipole field.
          Electric field/nuclear overlap derivatives assumed to be zero.
          Requested convergence is 1.0D-10 RMS, and 1.0D-09 maximum.
          NewPWx=F KeepS1=T KeepF1=T KeepIn=T MapXYZ=F SortEE=F KeepMc=T.
 Keep R1 ints in memory in canonical form, NReq=65349116.
 FoFCou: FMM=F IPFlag=           0 FMFlag=           0 FMFlg1=           0
         NFxFlg=           0 DoJE=F BraDBF=F KetDBF=F FulRan=T
         wScrn=  0.000000 ICntrl=       600 IOpCl=  0 I1Cent=           0 NGrid=           0
         NMat0=    1 NMatS0=  10153 NMatT0=    0 NMatD0=    1 NMtDS0=    0 NMtDT0=    0
 Symmetry not used in FoFCou.
 Two-electron integral symmetry not used.
          MDV=   16106127360 using IRadAn=       5.
          Solving linear equations separately, MaxMat=       0.
          There are     1 degrees of freedom in the 1st order CPHF.  IDoFFX=0 NUNeed=     1.
 LinEq1:  Iter=  0 NonCon=     1 RMS=3.03D-03 Max=3.99D-02 NDo=     1
 AX will form     1 AO Fock derivatives at one time.
 LinEq1:  Iter=  1 NonCon=     1 RMS=3.78D-04 Max=5.57D-03 NDo=     1
 LinEq1:  Iter=  2 NonCon=     1 RMS=1.13D-04 Max=1.27D-03 NDo=     1
 LinEq1:  Iter=  3 NonCon=     1 RMS=3.66D-05 Max=3.41D-04 NDo=     1
 LinEq1:  Iter=  4 NonCon=     1 RMS=1.06D-05 Max=9.23D-05 NDo=     1
 LinEq1:  Iter=  5 NonCon=     1 RMS=2.67D-06 Max=2.84D-05 NDo=     1
 LinEq1:  Iter=  6 NonCon=     1 RMS=6.59D-07 Max=8.02D-06 NDo=     1
 LinEq1:  Iter=  7 NonCon=     1 RMS=1.65D-07 Max=1.69D-06 NDo=     1
 LinEq1:  Iter=  8 NonCon=     1 RMS=3.87D-08 Max=4.21D-07 NDo=     1
 LinEq1:  Iter=  9 NonCon=     1 RMS=6.55D-09 Max=9.67D-08 NDo=     1
 LinEq1:  Iter= 10 NonCon=     1 RMS=9.51D-10 Max=8.58D-09 NDo=     1
 LinEq1:  Iter= 11 NonCon=     1 RMS=2.28D-10 Max=2.48D-09 NDo=     1
 LinEq1:  Iter= 12 NonCon=     0 RMS=5.08D-11 Max=5.85D-10 NDo=     1
 Linear equations converged to 1.000D-10 1.000D-09 after    12 iterations.
 End of Minotr F.D. properties file   721 does not exist.
 End of Minotr F.D. properties file   722 does not exist.
 End of Minotr F.D. properties file   788 does not exist.
 Leave Link 1002 at Fri Oct  8 13:07:53 2021, MaxMem= 16106127360 cpu:              22.5 elap:               1.8
 (Enter /sw/contrib/gaussian/g16/B01/g16/l601.exe)
 Copying SCF densities to generalized density rwf, IOpCl= 0 IROHF=0.

 **********************************************************************

            Population analysis using the MP2 Density.

 **********************************************************************

 Alpha  occ. eigenvalues -- -104.53052 -20.37713 -10.25500  -7.72110  -7.72103
 Alpha  occ. eigenvalues --   -7.72102  -1.15571  -0.76587  -0.51330  -0.40434
 Alpha  occ. eigenvalues --   -0.32157  -0.18263  -0.17800  -0.17753
 Alpha virt. eigenvalues --    0.13883   0.18208   0.25646   0.26709   0.27567
 Alpha virt. eigenvalues --    0.28777   0.30520   0.31107   0.35252   0.39646
 Alpha virt. eigenvalues --    0.41307   0.41934   0.43434   0.49917   0.55251
 Alpha virt. eigenvalues --    0.55574   0.58034   0.59241   0.61112   0.66796
 Alpha virt. eigenvalues --    0.68600   0.69993   0.72869   0.82230   0.85618
 Alpha virt. eigenvalues --    0.87143   0.88586   0.89532   0.92459   0.94106
 Alpha virt. eigenvalues --    1.02149   1.02759   1.03668   1.07811   1.08564
 Alpha virt. eigenvalues --    1.09631   1.11045   1.11944   1.14300   1.18752
 Alpha virt. eigenvalues --    1.19847   1.19954   1.23060   1.26118   1.28369
 Alpha virt. eigenvalues --    1.32130   1.32365   1.40179   1.42022   1.44500
 Alpha virt. eigenvalues --    1.44792   1.50610   1.57483   1.59441   1.62359
 Alpha virt. eigenvalues --    1.68878   1.70503   1.74621   1.78880   1.79250
 Alpha virt. eigenvalues --    1.90075   1.90511   2.09509   2.12710   2.26446
 Alpha virt. eigenvalues --    2.46206   2.51690   2.59023   2.62690   2.63383
 Alpha virt. eigenvalues --    2.64937   2.65940   2.74135   2.80463   2.80803
 Alpha virt. eigenvalues --    2.86813   2.89823   2.92056   2.92436   2.98114
 Alpha virt. eigenvalues --    3.00532   3.00741   3.06826   3.17099   3.20555
 Alpha virt. eigenvalues --    3.34431   3.34469   3.39499   3.39766   3.41514
 Alpha virt. eigenvalues --    3.50484   3.53506   3.61337   3.87946   4.21285
 Alpha virt. eigenvalues --    4.23665   4.34683   4.36715   4.45274   4.45527
 Alpha virt. eigenvalues --    4.56414   4.59132   4.64048   4.77776   4.97161
 Alpha virt. eigenvalues --    5.10652   5.28723   5.36718   5.44795   5.51472
 Alpha virt. eigenvalues --    5.67655   5.79403   6.26369   6.50202   6.74103
 Alpha virt. eigenvalues --    6.91052   7.10309   7.28665   7.43728   7.44771
 Alpha virt. eigenvalues --    7.47802   7.55667   7.63750   7.79838   8.08647
 Alpha virt. eigenvalues --    8.14063   8.94833  16.07934
          Condensed to atoms (all electrons):
               1          2          3          4
     1  O    8.272559   0.208926  -0.070571   0.140410
     2  H    0.208926   0.608664   0.004060   0.013051
     3  Cl  -0.070571   0.004060  17.929233   0.046764
     4  H    0.140410   0.013051   0.046764   0.504260
 Mulliken charges:
               1
     1  O   -0.551325
     2  H    0.165298
     3  Cl  -0.909487
     4  H    0.295514
 Sum of Mulliken charges =  -1.00000
 Mulliken charges with hydrogens summed into heavy atoms:
               1
     1  O   -0.090513
     3  Cl  -0.909487
 Electronic spatial extent (au):  <R**2>=            669.5790
 Charge=             -1.0000 electrons
 Dipole moment (field-independent basis, Debye):
    X=              3.6936    Y=             11.4720    Z=             -0.0000  Tot=             12.0520
 Quadrupole moment (field-independent basis, Debye-Ang):
   XX=            -24.1175   YY=            -62.7071   ZZ=            -25.1288
   XY=             -7.4410   XZ=              0.0000   YZ=              0.0000
 Traceless Quadrupole moment (field-independent basis, Debye-Ang):
   XX=             13.2003   YY=            -25.3893   ZZ=             12.1890
   XY=             -7.4410   XZ=              0.0000   YZ=              0.0000
 Octapole moment (field-independent basis, Debye-Ang**2):
  XXX=             32.7979  YYY=            272.2541  ZZZ=             -0.0000  XYY=             33.6872
  XXY=             56.4493  XXZ=             -0.0000  XZZ=              9.9631  YZZ=             51.5855
  YYZ=             -0.0000  XYZ=             -0.0000
 Hexadecapole moment (field-independent basis, Debye-Ang**3):
 XXXX=            -76.3617 YYYY=          -1318.1580 ZZZZ=            -37.4428 XXXY=            -98.6503
 XXXZ=              0.0000 YYYX=           -166.4000 YYYZ=              0.0000 ZZZX=              0.0000
 ZZZY=              0.0000 XXYY=           -188.6642 XXZZ=            -19.2273 YYZZ=           -167.6043
 XXYZ=              0.0000 YYXZ=              0.0000 ZZXY=            -31.9260
 N-N= 3.922062172756D+01 E-N=-1.361169893955D+03  KE= 5.360132556996D+02
 No NMR shielding tensors so no spin-rotation constants.
 Leave Link  601 at Fri Oct  8 13:07:53 2021, MaxMem= 16106127360 cpu:               4.3 elap:               0.2
 (Enter /sw/contrib/gaussian/g16/B01/g16/l607.exe)
 ******************************Gaussian NBO Version 3.1******************************
             N A T U R A L   A T O M I C   O R B I T A L   A N D
          N A T U R A L   B O N D   O R B I T A L   A N A L Y S I S
 ******************************Gaussian NBO Version 3.1******************************
       /RESON  / : Allow strongly delocalized NBO set

 Analyzing the MP2 density

 Job title: title                                                           

 Storage needed:     61222 in NPA,     81148 in NBO (********** available)
 GSVD:  LWork=       -1046 too small for GESVD, short by       42557 words or       42557 for optimal perf.


 NATURAL POPULATIONS:  Natural atomic orbital occupancies 
                                                          
   NAO  Atom  No  lang   Type(AO)    Occupancy
 --------------------------------------------
     1    O    1  S      Cor( 1S)     1.99967
     2    O    1  S      Val( 2S)     1.74397
     3    O    1  S      Ryd( 3S)     0.00601
     4    O    1  S      Ryd( 4S)     0.00044
     5    O    1  S      Ryd( 5S)     0.00018
     6    O    1  px     Val( 2p)     1.52108
     7    O    1  px     Ryd( 3p)     0.00994
     8    O    1  px     Ryd( 4p)     0.00052
     9    O    1  px     Ryd( 5p)     0.00007
    10    O    1  py     Val( 2p)     1.67626
    11    O    1  py     Ryd( 3p)     0.01146
    12    O    1  py     Ryd( 4p)     0.00061
    13    O    1  py     Ryd( 5p)     0.00009
    14    O    1  pz     Val( 2p)     1.95389
    15    O    1  pz     Ryd( 3p)     0.02097
    16    O    1  pz     Ryd( 4p)     0.00060
    17    O    1  pz     Ryd( 5p)     0.00000
    18    O    1  dxy    Ryd( 3d)     0.00812
    19    O    1  dxy    Ryd( 4d)     0.00042
    20    O    1  dxy    Ryd( 5d)     0.00007
    21    O    1  dxz    Ryd( 3d)     0.00821
    22    O    1  dxz    Ryd( 4d)     0.00045
    23    O    1  dxz    Ryd( 5d)     0.00006
    24    O    1  dyz    Ryd( 3d)     0.00752
    25    O    1  dyz    Ryd( 4d)     0.00048
    26    O    1  dyz    Ryd( 5d)     0.00009
    27    O    1  dx2y2  Ryd( 3d)     0.01252
    28    O    1  dx2y2  Ryd( 4d)     0.00032
    29    O    1  dx2y2  Ryd( 5d)     0.00009
    30    O    1  dz2    Ryd( 3d)     0.00902
    31    O    1  dz2    Ryd( 4d)     0.00046
    32    O    1  dz2    Ryd( 5d)     0.00011
    33    O    1  f(0)   Ryd( 4f)     0.00063
    34    O    1  f(0)   Ryd( 5f)     0.00010
    35    O    1  f(C1)  Ryd( 4f)     0.00056
    36    O    1  f(C1)  Ryd( 5f)     0.00008
    37    O    1  f(S1)  Ryd( 4f)     0.00056
    38    O    1  f(S1)  Ryd( 5f)     0.00008
    39    O    1  f(C2)  Ryd( 4f)     0.00046
    40    O    1  f(C2)  Ryd( 5f)     0.00009
    41    O    1  f(S2)  Ryd( 4f)     0.00046
    42    O    1  f(S2)  Ryd( 5f)     0.00007
    43    O    1  f(C3)  Ryd( 4f)     0.00042
    44    O    1  f(C3)  Ryd( 5f)     0.00012
    45    O    1  f(S3)  Ryd( 4f)     0.00040
    46    O    1  f(S3)  Ryd( 5f)     0.00009

    47    H    2  S      Val( 1S)     0.55150
    48    H    2  S      Ryd( 2S)     0.00168
    49    H    2  S      Ryd( 3S)     0.00016
    50    H    2  S      Ryd( 4S)     0.00007
    51    H    2  px     Ryd( 2p)     0.00161
    52    H    2  px     Ryd( 3p)     0.00054
    53    H    2  px     Ryd( 4p)     0.00013
    54    H    2  py     Ryd( 2p)     0.00184
    55    H    2  py     Ryd( 3p)     0.00023
    56    H    2  py     Ryd( 4p)     0.00009
    57    H    2  pz     Ryd( 2p)     0.00512
    58    H    2  pz     Ryd( 3p)     0.00019
    59    H    2  pz     Ryd( 4p)     0.00005
    60    H    2  dxy    Ryd( 3d)     0.00006
    61    H    2  dxy    Ryd( 4d)     0.00005
    62    H    2  dxz    Ryd( 3d)     0.00008
    63    H    2  dxz    Ryd( 4d)     0.00006
    64    H    2  dyz    Ryd( 3d)     0.00012
    65    H    2  dyz    Ryd( 4d)     0.00004
    66    H    2  dx2y2  Ryd( 3d)     0.00009
    67    H    2  dx2y2  Ryd( 4d)     0.00004
    68    H    2  dz2    Ryd( 3d)     0.00011
    69    H    2  dz2    Ryd( 4d)     0.00007

    70   Cl    3  S      Cor( 1S)     2.00001
    71   Cl    3  S      Cor( 2S)     2.00000
    72   Cl    3  S      Val( 3S)     1.97508
    73   Cl    3  S      Ryd( 4S)     0.00226
    74   Cl    3  S      Ryd( 5S)     0.00023
    75   Cl    3  S      Ryd( 6S)     0.00006
    76   Cl    3  px     Cor( 2p)     2.00003
    77   Cl    3  px     Val( 3p)     1.95017
    78   Cl    3  px     Ryd( 4p)     0.01308
    79   Cl    3  px     Ryd( 5p)     0.00058
    80   Cl    3  px     Ryd( 6p)     0.00002
    81   Cl    3  py     Cor( 2p)     2.00002
    82   Cl    3  py     Val( 3p)     1.90427
    83   Cl    3  py     Ryd( 4p)     0.01114
    84   Cl    3  py     Ryd( 5p)     0.00055
    85   Cl    3  py     Ryd( 6p)     0.00010
    86   Cl    3  pz     Cor( 2p)     2.00003
    87   Cl    3  pz     Val( 3p)     1.95265
    88   Cl    3  pz     Ryd( 4p)     0.01314
    89   Cl    3  pz     Ryd( 5p)     0.00058
    90   Cl    3  pz     Ryd( 6p)     0.00001
    91   Cl    3  dxy    Ryd( 3d)     0.01839
    92   Cl    3  dxy    Ryd( 4d)     0.00072
    93   Cl    3  dxy    Ryd( 5d)     0.00011
    94   Cl    3  dxz    Ryd( 3d)     0.01827
    95   Cl    3  dxz    Ryd( 4d)     0.00097
    96   Cl    3  dxz    Ryd( 5d)     0.00011
    97   Cl    3  dyz    Ryd( 3d)     0.01842
    98   Cl    3  dyz    Ryd( 4d)     0.00073
    99   Cl    3  dyz    Ryd( 5d)     0.00011
   100   Cl    3  dx2y2  Ryd( 3d)     0.01810
   101   Cl    3  dx2y2  Ryd( 4d)     0.00084
   102   Cl    3  dx2y2  Ryd( 5d)     0.00012
   103   Cl    3  dz2    Ryd( 3d)     0.01820
   104   Cl    3  dz2    Ryd( 4d)     0.00093
   105   Cl    3  dz2    Ryd( 5d)     0.00011
   106   Cl    3  f(0)   Ryd( 4f)     0.00128
   107   Cl    3  f(0)   Ryd( 5f)     0.00015
   108   Cl    3  f(C1)  Ryd( 4f)     0.00129
   109   Cl    3  f(C1)  Ryd( 5f)     0.00014
   110   Cl    3  f(S1)  Ryd( 4f)     0.00128
   111   Cl    3  f(S1)  Ryd( 5f)     0.00016
   112   Cl    3  f(C2)  Ryd( 4f)     0.00128
   113   Cl    3  f(C2)  Ryd( 5f)     0.00015
   114   Cl    3  f(S2)  Ryd( 4f)     0.00130
   115   Cl    3  f(S2)  Ryd( 5f)     0.00015
   116   Cl    3  f(C3)  Ryd( 4f)     0.00126
   117   Cl    3  f(C3)  Ryd( 5f)     0.00015
   118   Cl    3  f(S3)  Ryd( 4f)     0.00127
   119   Cl    3  f(S3)  Ryd( 5f)     0.00016

   120    H    4  S      Val( 1S)     0.48656
   121    H    4  S      Ryd( 2S)     0.00697
   122    H    4  S      Ryd( 3S)     0.00030
   123    H    4  S      Ryd( 4S)     0.00009
   124    H    4  px     Ryd( 2p)     0.00337
   125    H    4  px     Ryd( 3p)     0.00040
   126    H    4  px     Ryd( 4p)     0.00008
   127    H    4  py     Ryd( 2p)     0.00419
   128    H    4  py     Ryd( 3p)     0.00057
   129    H    4  py     Ryd( 4p)     0.00020
   130    H    4  pz     Ryd( 2p)     0.00361
   131    H    4  pz     Ryd( 3p)     0.00044
   132    H    4  pz     Ryd( 4p)     0.00008
   133    H    4  dxy    Ryd( 3d)     0.00018
   134    H    4  dxy    Ryd( 4d)     0.00009
   135    H    4  dxz    Ryd( 3d)     0.00015
   136    H    4  dxz    Ryd( 4d)     0.00005
   137    H    4  dyz    Ryd( 3d)     0.00018
   138    H    4  dyz    Ryd( 4d)     0.00009
   139    H    4  dx2y2  Ryd( 3d)     0.00017
   140    H    4  dx2y2  Ryd( 4d)     0.00009
   141    H    4  dz2    Ryd( 3d)     0.00017
   142    H    4  dz2    Ryd( 4d)     0.00007


 Summary of Natural Population Analysis:                  
                                                          
                                       Natural Population 
                Natural  -----------------------------------------------
    Atom  No    Charge         Core      Valence    Rydberg      Total
 -----------------------------------------------------------------------
      O    1   -0.99786      1.99967     6.89521    0.10298     8.99786
      H    2    0.43610      0.00000     0.55150    0.01241     0.56390
     Cl    3   -0.93015     10.00008     7.78217    0.14789    17.93015
      H    4    0.49190      0.00000     0.48656    0.02154     0.50810
 =======================================================================
   * Total *   -1.00000     11.99976    15.71543    0.28481    28.00000

                                 Natural Population      
 --------------------------------------------------------
   Core                      11.99976 ( 99.9980% of  12)
   Valence                   15.71543 ( 98.2215% of  16)
   Natural Minimal Basis     27.71519 ( 98.9828% of  28)
   Natural Rydberg Basis      0.28481 (  1.0172% of  28)
 --------------------------------------------------------

    Atom  No          Natural Electron Configuration
 ----------------------------------------------------------------------------
      O    1      [core]2S( 1.74)2p( 5.15)3S( 0.01)3p( 0.04)3d( 0.05)
      H    2            1S( 0.55)2p( 0.01)
     Cl    3      [core]3S( 1.98)3p( 5.81)3d( 0.09)4p( 0.04)4f( 0.01)
      H    4            1S( 0.49)2S( 0.01)2p( 0.01)


 NATURAL BOND ORBITAL ANALYSIS:
 Warning:  a bond orbital has occupanc of -0.00005

                       Occupancies       Lewis Structure    Low   High
           Occ.    -------------------  -----------------   occ   occ
  Cycle   Thresh.   Lewis   Non-Lewis     CR  BD  3C  LP    (L)   (NL)   Dev
 =============================================================================
   1(1)    1.90    27.64523   0.35477      6   2   0   6     1      0    0.08
 Warning:  a bond orbital has occupanc of -0.00005
   2(2)    1.90    27.64523   0.35477      6   2   0   6     1      0    0.08
 Warning:  a bond orbital has occupanc of -0.00005
   3(1)    1.80    27.64523   0.35477      6   2   0   6     0      0    0.08
 -----------------------------------------------------------------------------

 Structure accepted: No low occupancy Lewis orbitals

 --------------------------------------------------------
   Core                     11.99976 ( 99.998% of  12)
   Valence Lewis            15.64547 ( 97.784% of  16)
  ==================       ============================
   Total Lewis              27.64523 ( 98.733% of  28)
  -----------------------------------------------------
   Valence non-Lewis         0.09558 (  0.341% of  28)
   Rydberg non-Lewis         0.25919 (  0.926% of  28)
  ==================       ============================
   Total non-Lewis           0.35477 (  1.267% of  28)
 --------------------------------------------------------


       (Occupancy)   Bond orbital/ Coefficients/ Hybrids
 ---------------------------------------------------------------------------------
     1. (1.96556) BD ( 1) O   1 - H   2  
                ( 72.70%)   0.8527* O   1 s( 20.97%)p 3.75( 78.56%)d 0.02(  0.46%)
                                                  f 0.00(  0.01%)
                                            0.0002  0.4579 -0.0059 -0.0022 -0.0023
                                            0.8839 -0.0327  0.0093 -0.0034  0.0536
                                           -0.0139  0.0008 -0.0034  0.0000  0.0000
                                            0.0000  0.0000 -0.0188  0.0033  0.0008
                                            0.0000  0.0000  0.0000  0.0000  0.0000
                                            0.0000  0.0546 -0.0041 -0.0043 -0.0349
                                            0.0018 -0.0005  0.0000  0.0000 -0.0099
                                            0.0003 -0.0002  0.0000  0.0000  0.0000
                                            0.0000  0.0000  0.0037  0.0039  0.0021
                                           -0.0009
                ( 27.30%)   0.5225* H   2 s( 99.87%)p 0.00(  0.13%)d 0.00(  0.00%)
                                            0.9994  0.0035 -0.0001  0.0002  0.0192
                                            0.0275 -0.0049 -0.0094 -0.0038 -0.0022
                                            0.0000  0.0000  0.0000 -0.0003  0.0025
                                            0.0000  0.0000  0.0000  0.0000 -0.0013
                                            0.0013 -0.0010 -0.0009
     2. (1.96777) BD ( 1) O   1 - H   4  
                ( 78.22%)   0.8844* O   1 s( 26.70%)p 2.73( 72.89%)d 0.02(  0.40%)
                                                  f 0.00(  0.01%)
                                           -0.0003 -0.5167  0.0009  0.0018  0.0007
                                            0.2149 -0.0176  0.0020 -0.0016  0.8259
                                           -0.0123  0.0065 -0.0023  0.0000  0.0000
                                            0.0000  0.0000  0.0035 -0.0025 -0.0013
                                            0.0000  0.0000  0.0000  0.0000  0.0000
                                            0.0000  0.0526 -0.0041 -0.0008  0.0351
                                           -0.0025  0.0014  0.0000  0.0000 -0.0018
                                           -0.0002 -0.0087  0.0005  0.0000  0.0000
                                            0.0000  0.0000 -0.0028 -0.0015 -0.0018
                                           -0.0017
                ( 21.78%)   0.4667* H   4 s( 99.90%)p 0.00(  0.09%)d 0.00(  0.00%)
                                           -0.9991 -0.0284 -0.0011  0.0006 -0.0167
                                           -0.0026 -0.0012 -0.0013 -0.0239 -0.0091
                                            0.0000  0.0000  0.0000  0.0021  0.0019
                                            0.0000  0.0000  0.0000  0.0000 -0.0028
                                            0.0011  0.0002  0.0012
     3. (1.99967) CR ( 1) O   1           s(100.00%)
                                            1.0000 -0.0004  0.0000  0.0000  0.0000
                                           -0.0001  0.0000 -0.0000  0.0000  0.0001
                                           -0.0000  0.0000 -0.0000  0.0000  0.0000
                                            0.0000  0.0000 -0.0000 -0.0000 -0.0000
                                            0.0000  0.0000  0.0000  0.0000  0.0000
                                            0.0000  0.0000 -0.0000  0.0000  0.0000
                                           -0.0000  0.0000  0.0000  0.0000  0.0000
                                            0.0000 -0.0000 -0.0000  0.0000  0.0000
                                            0.0000  0.0000 -0.0000 -0.0000 -0.0000
                                           -0.0000
     4. (2.00001) CR ( 1)Cl   3           s(100.00%)
                                            1.0000 -0.0000  0.0000  0.0000 -0.0000
                                            0.0000  0.0000  0.0000 -0.0000 -0.0000
                                            0.0000  0.0000  0.0001 -0.0000 -0.0000
                                            0.0000  0.0000  0.0000  0.0000  0.0000
                                            0.0000  0.0000  0.0000  0.0000  0.0000
                                            0.0000  0.0000  0.0000  0.0000  0.0000
                                           -0.0000 -0.0000  0.0000 -0.0000 -0.0000
                                           -0.0000  0.0000  0.0000 -0.0000 -0.0000
                                           -0.0000 -0.0000  0.0000  0.0000  0.0000
                                            0.0000 -0.0000 -0.0000 -0.0000 -0.0000
     5. (2.00000) CR ( 2)Cl   3           s(100.00%)
                                           -0.0000  1.0000  0.0000  0.0000 -0.0000
                                            0.0000  0.0000  0.0000 -0.0000 -0.0000
                                            0.0000  0.0000  0.0000 -0.0000 -0.0000
                                            0.0000  0.0000  0.0000  0.0000  0.0000
                                            0.0000  0.0000  0.0000  0.0000  0.0000
                                            0.0000  0.0000  0.0000  0.0000  0.0000
                                           -0.0000 -0.0000  0.0000 -0.0000 -0.0000
                                           -0.0000  0.0000  0.0000 -0.0000 -0.0000
                                           -0.0000 -0.0000  0.0000  0.0000  0.0000
                                            0.0000 -0.0000 -0.0000 -0.0000 -0.0000
     6. (2.00003) CR ( 3)Cl   3           s(  0.00%)p 1.00(100.00%)
                                            0.0000  0.0000 -0.0000 -0.0000  0.0000
                                           -0.0000  1.0000  0.0000  0.0000  0.0000
                                           -0.0000 -0.0000 -0.0000  0.0000  0.0000
                                           -0.0000  0.0000  0.0000  0.0000  0.0000
                                            0.0000  0.0000  0.0000 -0.0000  0.0000
                                            0.0000  0.0000  0.0000  0.0000  0.0000
                                            0.0000  0.0000  0.0000  0.0000  0.0000
                                           -0.0000  0.0000  0.0000 -0.0000 -0.0000
                                            0.0000  0.0000  0.0000  0.0000  0.0000
                                            0.0000 -0.0000 -0.0000  0.0000  0.0000
     7. (2.00002) CR ( 4)Cl   3           s(  0.00%)p 1.00(100.00%)
                                            0.0000  0.0000 -0.0000 -0.0000  0.0000
                                           -0.0000 -0.0000 -0.0000 -0.0000  0.0000
                                           -0.0000  1.0000 -0.0001  0.0000  0.0000
                                           -0.0000  0.0000  0.0000  0.0000  0.0000
                                            0.0000 -0.0000 -0.0000  0.0000  0.0000
                                            0.0000  0.0000  0.0000  0.0000  0.0000
                                            0.0000  0.0000 -0.0000  0.0000  0.0000
                                            0.0000  0.0000  0.0000  0.0000  0.0000
                                            0.0000  0.0000  0.0000  0.0000  0.0000
                                            0.0000  0.0000  0.0000  0.0000  0.0000
     8. (2.00003) CR ( 5)Cl   3           s(  0.00%)p 1.00(100.00%)
                                            0.0000  0.0000  0.0000  0.0000  0.0000
                                            0.0000  0.0000  0.0000  0.0000  0.0000
                                            0.0000  0.0000  0.0000  0.0000  0.0000
                                            0.0000  1.0000  0.0000  0.0000  0.0000
                                           -0.0000  0.0000  0.0000  0.0000  0.0000
                                            0.0000  0.0000  0.0000  0.0000 -0.0000
                                            0.0000  0.0000  0.0000  0.0000  0.0000
                                            0.0000 -0.0000 -0.0000  0.0000  0.0000
                                            0.0000  0.0000 -0.0000 -0.0000  0.0000
                                            0.0000  0.0000  0.0000  0.0000  0.0000
     9. (1.96956) LP ( 1) O   1           s( 52.25%)p 0.91( 47.64%)d 0.00(  0.11%)
                                                  f 0.00(  0.00%)
                                            0.0002  0.7228  0.0025  0.0020  0.0011
                                           -0.4073 -0.0042  0.0022  0.0001  0.5572
                                            0.0086 -0.0047  0.0007  0.0000  0.0000
                                            0.0000  0.0000  0.0286 -0.0039  0.0015
                                            0.0000  0.0000  0.0000  0.0000  0.0000
                                            0.0000  0.0052 -0.0002  0.0013  0.0141
                                           -0.0021 -0.0013  0.0000  0.0000  0.0028
                                           -0.0008 -0.0029  0.0010  0.0000  0.0000
                                            0.0000  0.0000  0.0011 -0.0016  0.0010
                                           -0.0002
    10. (1.95947) LP ( 2) O   1           s(  0.00%)p 1.00( 99.80%)d 0.00(  0.19%)
                                                  f 0.00(  0.01%)
                                            0.0000  0.0000  0.0000  0.0000  0.0000
                                            0.0000  0.0000  0.0000  0.0000  0.0000
                                            0.0000  0.0000  0.0000  0.9986  0.0285
                                           -0.0069  0.0035  0.0000  0.0000  0.0000
                                            0.0333 -0.0036  0.0009 -0.0271  0.0026
                                           -0.0041  0.0000  0.0000  0.0000  0.0000
                                            0.0000  0.0000 -0.0095  0.0027  0.0000
                                            0.0000  0.0000  0.0000 -0.0008  0.0016
                                            0.0022 -0.0005  0.0000  0.0000  0.0000
                                            0.0000
    11. (1.97889) LP ( 1)Cl   3           s( 95.30%)p 0.05(  4.70%)d 0.00(  0.00%)
                                                  f 0.00(  0.00%)
                                            0.0000  0.0000  0.9762 -0.0003  0.0000
                                           -0.0001  0.0000 -0.0440  0.0004 -0.0001
                                            0.0001  0.0000 -0.2123  0.0011 -0.0006
                                            0.0002  0.0000  0.0000  0.0000  0.0000
                                            0.0000  0.0002  0.0001 -0.0002  0.0000
                                            0.0000  0.0000  0.0000  0.0000  0.0000
                                           -0.0006 -0.0002  0.0003 -0.0005 -0.0002
                                            0.0002  0.0000  0.0000 -0.0001 -0.0001
                                           -0.0004 -0.0003  0.0000  0.0000  0.0000
                                            0.0000 -0.0003 -0.0002 -0.0004 -0.0002
    12. (1.95278) LP ( 2)Cl   3           s(  0.00%)p 1.00( 99.99%)d 0.00(  0.01%)
                                                  f 0.00(  0.00%)
                                            0.0000  0.0000  0.0000  0.0000  0.0000
                                            0.0000  0.0000  0.0000  0.0000  0.0000
                                            0.0000  0.0000  0.0000  0.0000  0.0000
                                            0.0000 -0.0000  1.0000  0.0009  0.0010
                                           -0.0000  0.0000  0.0000  0.0000  0.0026
                                            0.0013  0.0007  0.0065  0.0014 -0.0007
                                            0.0000  0.0000  0.0000  0.0000  0.0000
                                            0.0000 -0.0017 -0.0011  0.0000  0.0000
                                            0.0000  0.0000 -0.0017 -0.0010  0.0010
                                            0.0007  0.0000  0.0000  0.0000  0.0000
    13. (1.95254) LP ( 3)Cl   3           s(  0.00%)p 1.00( 99.99%)d 0.00(  0.01%)
                                                  f 0.00(  0.00%)
                                            0.0000  0.0000 -0.0014  0.0001  0.0015
                                           -0.0013 -0.0000  0.9779  0.0021  0.0013
                                           -0.0007  0.0000 -0.2089  0.0002  0.0001
                                           -0.0006  0.0000  0.0000  0.0000  0.0000
                                            0.0000  0.0066  0.0012 -0.0007  0.0000
                                            0.0000  0.0000  0.0000  0.0000  0.0000
                                            0.0045  0.0016  0.0004 -0.0006 -0.0006
                                           -0.0006  0.0000  0.0000 -0.0008 -0.0005
                                            0.0001 -0.0000  0.0000  0.0000  0.0000
                                            0.0000 -0.0017 -0.0010  0.0016  0.0010
    14. (1.89892) LP ( 4)Cl   3           s(  4.70%)p20.28( 95.27%)d 0.01(  0.03%)
                                                  f 0.00(  0.00%)
                                           -0.0001 -0.0000  0.2167  0.0015 -0.0002
                                            0.0005  0.0000  0.2042 -0.0000 -0.0006
                                            0.0002  0.0001  0.9545 -0.0029 -0.0025
                                            0.0007  0.0000  0.0000  0.0000  0.0000
                                            0.0000  0.0069  0.0014  0.0000  0.0000
                                            0.0000  0.0000  0.0000  0.0000  0.0000
                                           -0.0128 -0.0023  0.0007 -0.0089 -0.0020
                                           -0.0001  0.0000  0.0000 -0.0006 -0.0003
                                           -0.0027 -0.0013  0.0000  0.0000  0.0000
                                            0.0000 -0.0019 -0.0006 -0.0025 -0.0009
    15. (0.01963) RY*( 1) O   1           s(  0.00%)p 1.00( 98.58%)d 0.01(  1.40%)
                                                  f 0.00(  0.02%)
                                            0.0000  0.0000  0.0000  0.0000  0.0000
                                            0.0000  0.0000  0.0000  0.0000  0.0000
                                            0.0000  0.0000  0.0000 -0.0332  0.9917
                                            0.0295 -0.0170  0.0000  0.0000  0.0000
                                            0.0981 -0.0145 -0.0056 -0.0629  0.0130
                                            0.0040  0.0000  0.0000  0.0000  0.0000
                                            0.0000  0.0000 -0.0085  0.0100  0.0000
                                            0.0000  0.0000  0.0000 -0.0041  0.0031
                                           -0.0013 -0.0010  0.0000  0.0000  0.0000
                                            0.0000
    16. (0.01525) RY*( 2) O   1           s( 20.37%)p 3.78( 77.07%)d 0.12(  2.48%)
                                                  f 0.00(  0.08%)
                                            0.0000 -0.0092  0.4512  0.0067 -0.0004
                                            0.0070 -0.4723 -0.0129  0.0064 -0.0087
                                            0.7396  0.0105 -0.0111  0.0000  0.0000
                                            0.0000  0.0000  0.1541 -0.0168 -0.0016
                                            0.0000  0.0000  0.0000  0.0000  0.0000
                                            0.0000 -0.0022  0.0027  0.0029  0.0243
                                           -0.0113 -0.0040  0.0000  0.0000  0.0029
                                           -0.0020  0.0041  0.0011  0.0000  0.0000
                                            0.0000  0.0000  0.0215 -0.0129  0.0119
                                           -0.0038
    17. (0.00708) RY*( 3) O   1           s(  2.19%)p33.63( 73.68%)d10.81( 23.69%)
                                                  f 0.20(  0.44%)
                                           -0.0000 -0.0008  0.1407 -0.0424  0.0172
                                           -0.0596 -0.6991 -0.0414  0.0233 -0.0354
                                           -0.4904 -0.0222  0.0018 -0.0000 -0.0000
                                           -0.0000 -0.0000 -0.2014 -0.0098 -0.0025
                                           -0.0000 -0.0000 -0.0000 -0.0000 -0.0000
                                           -0.0000  0.4384  0.0452  0.0276  0.0322
                                            0.0090  0.0100 -0.0000 -0.0000 -0.0282
                                            0.0146 -0.0177  0.0072 -0.0000 -0.0000
                                           -0.0000 -0.0000  0.0232 -0.0164 -0.0419
                                            0.0214
    18. (0.00620) RY*( 4) O   1           s( 13.50%)p 0.13(  1.69%)d 6.21( 83.86%)
                                                  f 0.07(  0.96%)
                                           -0.0000  0.0145  0.3670  0.0057  0.0057
                                            0.0040  0.1231  0.0054 -0.0074  0.0260
                                            0.0309 -0.0046 -0.0055 -0.0000 -0.0000
                                           -0.0000 -0.0000 -0.8561 -0.0239  0.0044
                                           -0.0000 -0.0000 -0.0000 -0.0000 -0.0000
                                           -0.0000 -0.2857 -0.0063  0.0027  0.1514
                                            0.0198  0.0123 -0.0000 -0.0000 -0.0071
                                            0.0104  0.0259 -0.0166 -0.0000 -0.0000
                                           -0.0000 -0.0000 -0.0806  0.0320 -0.0288
                                            0.0096
    19. (0.00619) RY*( 5) O   1           s(  0.00%)p 0.00(  0.00%)d 1.00( 98.93%)
                                                  f 0.01(  1.07%)
                                            0.0000  0.0000  0.0000  0.0000  0.0000
                                            0.0000  0.0000  0.0000  0.0000  0.0000
                                            0.0000  0.0000  0.0000  0.0043 -0.0017
                                           -0.0039 -0.0003  0.0000  0.0000  0.0000
                                            0.5550  0.0322  0.0084  0.8234  0.0459
                                            0.0023  0.0000  0.0000  0.0000  0.0000
                                            0.0000  0.0000  0.0201 -0.0119  0.0000
                                            0.0000  0.0000  0.0000  0.0893 -0.0466
                                           -0.0033  0.0032  0.0000  0.0000  0.0000
                                            0.0000
    20. (0.00590) RY*( 6) O   1           s(  0.00%)p 1.00(  1.51%)d64.48( 97.63%)
                                                  f 0.56(  0.85%)
                                            0.0000  0.0000  0.0000  0.0000  0.0000
                                            0.0000  0.0000  0.0000  0.0000  0.0000
                                            0.0000  0.0000  0.0000 -0.0393 -0.1163
                                           -0.0082 -0.0037  0.0000  0.0000  0.0000
                                            0.8163  0.0604  0.0156 -0.5519 -0.0388
                                           -0.0010  0.0000  0.0000  0.0000  0.0000
                                            0.0000  0.0000 -0.0689  0.0361  0.0000
                                            0.0000  0.0000  0.0000  0.0239 -0.0120
                                           -0.0379  0.0177  0.0000  0.0000  0.0000
                                            0.0000
    21. (0.00571) RY*( 7) O   1           s(  7.52%)p 0.67(  5.04%)d11.55( 86.84%)
                                                  f 0.08(  0.60%)
                                            0.0000  0.0211  0.2732 -0.0078  0.0044
                                            0.0340  0.1585  0.0104 -0.0052 -0.0373
                                           -0.1494 -0.0153 -0.0104  0.0000  0.0000
                                            0.0000  0.0000  0.2700  0.0170  0.0021
                                            0.0000  0.0000  0.0000  0.0000  0.0000
                                            0.0000  0.0579  0.0071 -0.0024  0.8863
                                            0.0789  0.0093  0.0000  0.0000  0.0501
                                           -0.0237 -0.0475  0.0247  0.0000  0.0000
                                            0.0000  0.0000  0.0025 -0.0014  0.0030
                                            0.0007
    22. (0.00339) RY*( 8) O   1           s( 16.14%)p 1.29( 20.83%)d 3.84( 61.94%)
                                                  f 0.07(  1.09%)
                                           -0.0000 -0.0061  0.4017 -0.0043  0.0066
                                            0.0315 -0.1683 -0.0031 -0.0094  0.0294
                                           -0.4161 -0.0391 -0.0583 -0.0000 -0.0000
                                           -0.0000 -0.0000  0.3208  0.0328 -0.0096
                                           -0.0000 -0.0000 -0.0000 -0.0000 -0.0000
                                           -0.0000 -0.6803 -0.0459  0.0547 -0.2156
                                           -0.0224  0.0187 -0.0000 -0.0000  0.0216
                                           -0.0125  0.0391 -0.0305 -0.0000 -0.0000
                                           -0.0000 -0.0000 -0.0018 -0.0142  0.0791
                                           -0.0363
    23. (0.00229) RY*( 9) O   1           s( 39.13%)p 0.57( 22.26%)d 0.97( 38.03%)
                                                  f 0.01(  0.58%)
                                           -0.0000 -0.0051  0.6236 -0.0141 -0.0468
                                           -0.0184  0.4552  0.0315 -0.0068 -0.0061
                                           -0.1004 -0.0488 -0.0382  0.0000  0.0000
                                            0.0000  0.0000  0.1032  0.0238  0.0189
                                            0.0000  0.0000  0.0000  0.0000  0.0000
                                            0.0000  0.4719  0.1145 -0.0537 -0.3436
                                           -0.1061  0.0260  0.0000  0.0000 -0.0150
                                            0.0381  0.0123 -0.0084  0.0000  0.0000
                                            0.0000  0.0000  0.0403 -0.0463 -0.0110
                                           -0.0036
    24. (0.00071) RY*(10) O   1           s( 43.08%)p 1.12( 48.37%)d 0.18(  7.75%)
                                                  f 0.02(  0.80%)
                                            0.0000 -0.0052 -0.0326  0.6503 -0.0828
                                            0.0005 -0.0393  0.0973 -0.1085 -0.0012
                                            0.0041 -0.6781 -0.0325 -0.0000 -0.0000
                                           -0.0000 -0.0000 -0.0155  0.1162  0.1351
                                           -0.0000 -0.0000 -0.0000 -0.0000 -0.0000
                                           -0.0000  0.0115 -0.0207 -0.0701  0.0226
                                           -0.0959 -0.1740 -0.0000 -0.0000  0.0173
                                           -0.0050  0.0444  0.0194 -0.0000 -0.0000
                                           -0.0000 -0.0000 -0.0017  0.0438  0.0306
                                            0.0496
    25. (0.00056) RY*(11) O   1           s(  0.00%)p 1.00( 60.76%)d 0.60( 36.52%)
                                                  f 0.04(  2.72%)
                                            0.0000  0.0000  0.0000  0.0000  0.0000
                                            0.0000  0.0000  0.0000  0.0000  0.0000
                                            0.0000  0.0000  0.0000  0.0021 -0.0394
                                            0.7782  0.0200  0.0000  0.0000  0.0000
                                            0.0216 -0.2454 -0.0628 -0.0192  0.5386
                                            0.1006  0.0000  0.0000  0.0000  0.0000
                                            0.0000  0.0000 -0.1358  0.0340  0.0000
                                            0.0000  0.0000  0.0000 -0.0714  0.0073
                                           -0.0487 -0.0060  0.0000  0.0000  0.0000
                                            0.0000
    26. (0.00048) RY*(12) O   1           s(  4.92%)p 3.39( 16.69%)d12.33( 60.71%)
                                                  f 3.59( 17.67%)
                                            0.0000  0.0041 -0.0000  0.2064  0.0815
                                            0.0053  0.0088 -0.3058 -0.0354 -0.0052
                                           -0.0309  0.2659 -0.0205 -0.0000 -0.0000
                                           -0.0000 -0.0000 -0.0347 -0.3132  0.0388
                                           -0.0000 -0.0000 -0.0000 -0.0000 -0.0000
                                           -0.0000 -0.0014 -0.1768 -0.0185  0.0694
                                           -0.6623 -0.1767 -0.0000 -0.0000  0.1814
                                           -0.0110  0.0192  0.0094 -0.0000 -0.0000
                                           -0.0000 -0.0000  0.3537  0.0024  0.1339
                                            0.0112
    27. (0.00046) RY*(13) O   1           s(  0.00%)p 1.00( 11.60%)d 0.85(  9.87%)
                                                  f 6.77( 78.54%)
                                            0.0000  0.0000  0.0000  0.0000  0.0000
                                            0.0000  0.0000  0.0000  0.0000  0.0000
                                            0.0000  0.0000  0.0000  0.0025 -0.0012
                                            0.3291  0.0873  0.0000  0.0000  0.0000
                                            0.0108  0.1984  0.0090 -0.0228 -0.2416
                                            0.0137  0.0000  0.0000  0.0000  0.0000
                                            0.0000  0.0000  0.1887  0.0087  0.0000
                                            0.0000  0.0000  0.0000  0.1999  0.0007
                                            0.8425 -0.0031  0.0000  0.0000  0.0000
                                            0.0000
    28. (0.00044) RY*(14) O   1           s(  0.14%)p 9.28(  1.33%)d39.34(  5.64%)
                                                  f99.99( 92.88%)
                                           -0.0000  0.0009 -0.0042  0.0373  0.0046
                                           -0.0027 -0.0044 -0.0388 -0.0188 -0.0006
                                           -0.0112  0.1062  0.0039  0.0000  0.0000
                                            0.0000  0.0000  0.0528 -0.0133 -0.0525
                                            0.0000  0.0000  0.0000  0.0000  0.0000
                                            0.0000  0.0300 -0.0507 -0.0298  0.0727
                                           -0.1920 -0.0649  0.0000  0.0000 -0.5346
                                           -0.0070  0.7279  0.0211  0.0000  0.0000
                                            0.0000  0.0000 -0.3355  0.0058 -0.0093
                                            0.0064
    29. (0.00044) RY*(15) O   1           s(  0.00%)p 1.00(  0.93%)d14.16( 13.20%)
                                                  f92.13( 85.87%)
                                            0.0000  0.0000  0.0000  0.0000  0.0000
                                            0.0000  0.0000  0.0000  0.0000  0.0000
                                            0.0000  0.0000  0.0000  0.0038 -0.0032
                                           -0.0949 -0.0168  0.0000  0.0000  0.0000
                                            0.0189 -0.2013 -0.0182 -0.0863  0.2712
                                            0.0990  0.0000  0.0000  0.0000  0.0000
                                            0.0000  0.0000  0.8146  0.0094  0.0000
                                            0.0000  0.0000  0.0000  0.4240  0.0084
                                           -0.1231  0.0015  0.0000  0.0000  0.0000
                                            0.0000
    30. (0.00042) RY*(16) O   1           s(  0.00%)p 1.00( 27.05%)d 1.52( 41.23%)
                                                  f 1.17( 31.72%)
                                            0.0000  0.0000  0.0000  0.0000  0.0000
                                            0.0000  0.0000  0.0000  0.0000  0.0000
                                            0.0000  0.0000  0.0000 -0.0102 -0.0080
                                           -0.4872 -0.1817  0.0000  0.0000  0.0000
                                            0.0412 -0.3430 -0.0380 -0.0249  0.5384
                                           -0.0327  0.0000  0.0000  0.0000  0.0000
                                            0.0000  0.0000 -0.1741 -0.0149  0.0000
                                            0.0000  0.0000  0.0000 -0.1396  0.0031
                                            0.5165  0.0205  0.0000  0.0000  0.0000
                                            0.0000
    31. (0.00041) RY*(17) O   1           s(  1.80%)p19.11( 34.34%)d 2.79(  5.01%)
                                                  f32.76( 58.85%)
                                           -0.0000 -0.0010 -0.0035  0.1060  0.0819
                                           -0.0116 -0.0402  0.5182 -0.0192 -0.0081
                                           -0.0144  0.2637 -0.0541  0.0000  0.0000
                                            0.0000  0.0000 -0.0313  0.1192  0.0599
                                            0.0000  0.0000  0.0000  0.0000  0.0000
                                            0.0000  0.0560 -0.0417 -0.0813  0.0105
                                           -0.1383 -0.0249  0.0000  0.0000 -0.0332
                                            0.0223 -0.1980  0.0007  0.0000  0.0000
                                            0.0000  0.0000 -0.2715 -0.0226  0.6867
                                            0.0447
    32. (0.00041) RY*(18) O   1           s(  0.00%)p 1.00(  0.68%)d24.11( 16.35%)
                                                  f99.99( 82.97%)
                                            0.0000  0.0000  0.0000  0.0000  0.0000
                                            0.0000  0.0000  0.0000  0.0000  0.0000
                                            0.0000  0.0000  0.0000 -0.0014  0.0099
                                           -0.0705 -0.0413  0.0000  0.0000  0.0000
                                           -0.0959  0.2819  0.1323 -0.0342  0.2358
                                            0.0238  0.0000  0.0000  0.0000  0.0000
                                            0.0000  0.0000 -0.4408 -0.0260  0.0000
                                            0.0000  0.0000  0.0000  0.7929  0.0517
                                           -0.0576 -0.0014  0.0000  0.0000  0.0000
                                            0.0000
    33. (0.00041) RY*(19) O   1           s(  0.07%)p99.99( 12.40%)d99.99( 13.21%)
                                                  f99.99( 74.31%)
                                            0.0000  0.0016 -0.0059  0.0244  0.0072
                                            0.0025  0.0196 -0.3279 -0.0718 -0.0011
                                            0.0060 -0.0844 -0.0619 -0.0000 -0.0000
                                           -0.0000 -0.0000  0.0177 -0.2002  0.0001
                                           -0.0000 -0.0000 -0.0000 -0.0000 -0.0000
                                           -0.0000 -0.0623  0.2894 -0.0178  0.0146
                                           -0.0524 -0.0293 -0.0000 -0.0000 -0.6672
                                           -0.0590 -0.5265 -0.0429 -0.0000 -0.0000
                                           -0.0000 -0.0000 -0.0646 -0.0007  0.1050
                                            0.0172
    34. (0.00037) RY*(20) O   1           s(  0.00%)p 1.00(  0.36%)d99.99( 86.58%)
                                                  f36.47( 13.07%)
                                            0.0000  0.0000  0.0000  0.0000  0.0000
                                            0.0000  0.0000  0.0000  0.0000  0.0000
                                            0.0000  0.0000  0.0000  0.0028  0.0091
                                           -0.0557  0.0197  0.0000  0.0000  0.0000
                                           -0.0219  0.8030 -0.0899 -0.0153  0.4564
                                           -0.0621  0.0000  0.0000  0.0000  0.0000
                                            0.0000  0.0000  0.1990  0.0221  0.0000
                                            0.0000  0.0000  0.0000 -0.2990 -0.0325
                                           -0.0105  0.0043  0.0000  0.0000  0.0000
                                            0.0000
    35. (0.00034) RY*(21) O   1           s(  0.63%)p33.03( 20.96%)d99.99( 76.06%)
                                                  f 3.70(  2.35%)
                                           -0.0000  0.0031 -0.0056  0.0613 -0.0505
                                           -0.0008 -0.0054 -0.3801 -0.1255  0.0052
                                            0.0143  0.1794  0.1300  0.0000  0.0000
                                            0.0000  0.0000 -0.0386  0.8515 -0.0813
                                            0.0000  0.0000  0.0000  0.0000  0.0000
                                            0.0000 -0.0095  0.1315 -0.0176  0.0172
                                           -0.0962 -0.0180  0.0000  0.0000 -0.0032
                                           -0.0067 -0.0143 -0.0076  0.0000  0.0000
                                            0.0000  0.0000  0.1030  0.0415  0.1016
                                            0.0222
    36. (0.00034) RY*(22) O   1           s(  0.60%)p53.70( 32.10%)d36.18( 21.63%)
                                                  f76.41( 45.67%)
                                            0.0000  0.0002 -0.0012  0.0303  0.0711
                                           -0.0023 -0.0241  0.5189  0.1458 -0.0036
                                           -0.0051  0.0829  0.1516 -0.0000 -0.0000
                                           -0.0000 -0.0000  0.0068  0.2184 -0.0238
                                           -0.0000 -0.0000 -0.0000 -0.0000 -0.0000
                                           -0.0000 -0.0617 -0.0668  0.0517  0.0418
                                           -0.3922  0.0390 -0.0000 -0.0000 -0.2821
                                           -0.0201 -0.2146 -0.0666 -0.0000 -0.0000
                                           -0.0000 -0.0000  0.1787 -0.0069 -0.5240
                                           -0.1402
    37. (0.00030) RY*(23) O   1           s(  3.47%)p 2.32(  8.04%)d 1.94(  6.72%)
                                                  f23.59( 81.78%)
                                            0.0000  0.0056  0.0314  0.1660  0.0781
                                            0.0045 -0.0009 -0.2150 -0.0923 -0.0070
                                           -0.0132  0.1123  0.1130 -0.0000 -0.0000
                                           -0.0000 -0.0000  0.0556 -0.0064 -0.0178
                                           -0.0000 -0.0000 -0.0000 -0.0000 -0.0000
                                           -0.0000  0.0398 -0.2001  0.0326 -0.0320
                                           -0.1273 -0.0617 -0.0000 -0.0000  0.2447
                                            0.0636 -0.2542 -0.0938 -0.0000 -0.0000
                                           -0.0000 -0.0000 -0.7384 -0.1921 -0.2990
                                           -0.0948
    38. (0.00026) RY*(24) O   1           s( 28.26%)p 0.96( 27.18%)d 1.27( 35.92%)
                                                  f 0.31(  8.64%)
                                           -0.0000  0.0009  0.0436  0.4953  0.1881
                                           -0.0013 -0.0093  0.0772 -0.0765  0.0013
                                           -0.0429  0.4994 -0.0929  0.0000  0.0000
                                            0.0000  0.0000  0.0284 -0.0818  0.0943
                                            0.0000  0.0000  0.0000  0.0000  0.0000
                                            0.0000 -0.0302  0.3193 -0.1819 -0.0486
                                            0.3781 -0.2481  0.0000  0.0000  0.0013
                                            0.0120  0.0398  0.1062  0.0000  0.0000
                                            0.0000  0.0000  0.0890  0.1032 -0.2334
                                           -0.0178
    39. (0.00022) RY*(25) O   1           s( 30.26%)p 0.23(  6.98%)d 1.73( 52.20%)
                                                  f 0.35( 10.56%)
                                            0.0000  0.0008 -0.0791 -0.1381  0.5266
                                            0.0107 -0.0225  0.0389 -0.0226  0.0036
                                            0.0301 -0.1987 -0.1635  0.0000  0.0000
                                            0.0000  0.0000 -0.0037  0.0100 -0.0740
                                            0.0000  0.0000  0.0000  0.0000  0.0000
                                            0.0000 -0.0617  0.6344 -0.0555  0.0441
                                           -0.2845  0.1555  0.0000  0.0000  0.2168
                                            0.1278  0.1216  0.0299  0.0000  0.0000
                                            0.0000  0.0000 -0.1042 -0.1091 -0.0194
                                           -0.0587
    40. (0.00014) RY*(26) O   1           s( 54.45%)p 0.11(  6.24%)d 0.59( 32.17%)
                                                  f 0.13(  7.14%)
                                           -0.0000 -0.0004  0.0471  0.0892  0.7310
                                           -0.0047  0.0655 -0.0988  0.1136 -0.0026
                                            0.0151 -0.0854 -0.1669  0.0000  0.0000
                                            0.0000  0.0000 -0.0086  0.1085 -0.1595
                                            0.0000  0.0000  0.0000  0.0000  0.0000
                                            0.0000  0.0908 -0.4218  0.2377 -0.0447
                                            0.1992 -0.0021  0.0000  0.0000 -0.1307
                                           -0.1903 -0.0248 -0.0572  0.0000  0.0000
                                            0.0000  0.0000  0.0950  0.0338  0.0615
                                            0.0178
    41. (0.00007) RY*(27) O   1           s(  0.00%)p 1.00(  0.22%)d59.84( 13.18%)
                                                  f99.99( 86.60%)
    42. (0.00008) RY*(28) O   1           s(  0.00%)p 1.00(  0.06%)d99.99(  7.36%)
                                                  f99.99( 92.58%)
    43. (0.00007) RY*(29) O   1           s(  0.00%)p 0.00(  0.00%)d 1.00(  2.00%)
                                                  f49.05( 98.00%)
    44. (0.00007) RY*(30) O   1           s(  0.11%)p 7.38(  0.85%)d42.01(  4.83%)
                                                  f99.99( 94.21%)
    45. (0.00006) RY*(31) O   1           s(  0.87%)p 4.47(  3.88%)d30.80( 26.70%)
                                                  f79.06( 68.55%)
    46. (0.00006) RY*(32) O   1           s(  0.25%)p 3.46(  0.85%)d41.24( 10.18%)
                                                  f99.99( 88.72%)
    47. (0.00007) RY*(33) O   1           s(  1.16%)p 8.30(  9.63%)d 2.65(  3.07%)
                                                  f74.24( 86.14%)
    48. (0.00005) RY*(34) O   1           s(  0.00%)p 1.00(  0.94%)d99.99( 94.67%)
                                                  f 4.66(  4.39%)
    49. (0.00003) RY*(35) O   1           s(  8.31%)p 3.28( 27.23%)d 7.23( 60.06%)
                                                  f 0.53(  4.40%)
    50. (0.00004) RY*(36) O   1           s(  0.00%)p 1.00(  0.14%)d99.99( 78.86%)
                                                  f99.99( 21.00%)
    51. (0.00004) RY*(37) O   1           s(  5.07%)p 1.94(  9.85%)d10.57( 53.58%)
                                                  f 6.22( 31.50%)
    52. (0.00001) RY*(38) O   1           s(  4.52%)p 0.29(  1.31%)d19.58( 88.56%)
                                                  f 1.24(  5.60%)
    53. (0.00001) RY*(39) O   1           s(  6.39%)p 7.85( 50.11%)d 5.02( 32.04%)
                                                  f 1.79( 11.46%)
    54. (0.00001) RY*(40) O   1           s(  6.86%)p11.95( 81.99%)d 0.89(  6.14%)
                                                  f 0.73(  5.01%)
    55. (-.00005) RY*(41) O   1           s(  0.00%)p 1.00( 97.37%)d 0.02(  2.04%)
                                                  f 0.01(  0.59%)
    56. (0.00517) RY*( 1) H   2           s(  0.00%)p 1.00( 99.15%)d 0.01(  0.85%)
                                            0.0000  0.0000  0.0000  0.0000  0.0000
                                            0.0000  0.0000  0.0000  0.0000  0.0000
                                            0.9951 -0.0369 -0.0007  0.0000  0.0000
                                           -0.0838 -0.0232  0.0218  0.0202  0.0000
                                            0.0000  0.0000  0.0000
    57. (0.00229) RY*( 2) H   2           s(  3.61%)p26.35( 95.16%)d 0.34(  1.23%)
                                            0.0183  0.1512 -0.0452  0.1042 -0.5961
                                           -0.0321 -0.0453  0.7604 -0.1131 -0.0459
                                            0.0000  0.0000  0.0000 -0.0509 -0.0204
[...]
   119. (0.00878) RY*( 1) H   4           s( 76.76%)p 0.30( 22.78%)d 0.01(  0.47%)
                                           -0.0295  0.8748 -0.0368 -0.0102  0.2152
                                           -0.0203  0.0155  0.4250  0.0129  0.0056
                                            0.0000  0.0000  0.0000 -0.0310 -0.0081
                                            0.0000  0.0000  0.0000  0.0000  0.0530
                                            0.0060  0.0279 -0.0003
   120. (0.00374) RY*( 2) H   4           s(  8.96%)p10.10( 90.54%)d 0.06(  0.50%)
                                           -0.0183  0.2436  0.1679  0.0416  0.5446
                                            0.0302 -0.0158 -0.7684  0.1290 -0.0233
                                           -0.0000 -0.0000 -0.0000 -0.0519  0.0101
                                           -0.0000 -0.0000 -0.0000 -0.0000  0.0162
                                            0.0281 -0.0299  0.0168
   121. (0.00373) RY*( 3) H   4           s(  0.00%)p 1.00( 99.60%)d 0.00(  0.40%)
                                            0.0000  0.0000  0.0000  0.0000  0.0000
                                            0.0000  0.0000  0.0000  0.0000  0.0000
                                            0.9819  0.1774 -0.0178  0.0000  0.0000
                                            0.0071  0.0043 -0.0384  0.0495  0.0000
                                            0.0000  0.0000  0.0000
   122. (0.00275) RY*( 4) H   4           s( 17.05%)p 4.80( 81.84%)d 0.06(  1.11%)
                                           -0.0022  0.3817  0.1554  0.0251 -0.7964
                                            0.0320 -0.0056 -0.3769  0.2027  0.0030
                                           -0.0000 -0.0000 -0.0000  0.0601 -0.0496
                                           -0.0000 -0.0000 -0.0000 -0.0000  0.0287
                                            0.0408  0.0481  0.0136
   123. (0.00047) RY*( 5) H   4           s( 13.87%)p 5.63( 78.15%)d 0.57(  7.97%)
                                           -0.0031 -0.0485  0.2902 -0.2284  0.0274
                                            0.8679 -0.1128  0.1109  0.0422 -0.0276
                                            0.0000  0.0000  0.0000 -0.0710  0.0662
                                            0.0000  0.0000  0.0000  0.0000  0.2397
                                            0.0503  0.0717  0.0719
   124. (0.00034) RY*( 6) H   4           s(  3.47%)p18.05( 62.59%)d 9.79( 33.95%)
                                           -0.0075 -0.1305  0.1321  0.0112  0.0675
                                           -0.2452 -0.0953  0.1575  0.5727 -0.4464
                                            0.0000  0.0000  0.0000 -0.1800 -0.2212
                                            0.0000  0.0000  0.0000  0.0000  0.2381
                                            0.2960  0.2652  0.2085
   125. (0.00035) RY*( 7) H   4           s(  0.00%)p 1.00( 94.27%)d 0.06(  5.73%)
                                            0.0000  0.0000  0.0000  0.0000  0.0000
                                            0.0000  0.0000  0.0000  0.0000  0.0000
                                           -0.1708  0.9553  0.0302  0.0000  0.0000
                                            0.0002  0.0399  0.1995  0.1262  0.0000
                                            0.0000  0.0000  0.0000
   126. (0.00020) RY*( 8) H   4           s( 11.73%)p 6.08( 71.29%)d 1.45( 16.98%)
                                           -0.0182 -0.0729  0.3143 -0.1135  0.0705
                                           -0.0543  0.0452  0.1551  0.5906  0.5745
                                            0.0000  0.0000  0.0000 -0.0168  0.0671
                                            0.0000  0.0000  0.0000  0.0000 -0.3563
                                           -0.1568 -0.0102 -0.1157
   127. (0.00019) RY*( 9) H   4           s(  0.00%)p 1.00( 14.57%)d 5.87( 85.43%)
                                            0.0000  0.0000  0.0000  0.0000  0.0000
                                            0.0000  0.0000  0.0000  0.0000  0.0000
                                            0.0800 -0.1629  0.3357  0.0000  0.0000
                                           -0.1046  0.0049  0.9029 -0.1678  0.0000
                                            0.0000  0.0000  0.0000
   128. (0.00017) RY*(10) H   4           s(  2.42%)p 7.90( 19.11%)d32.43( 78.47%)
                                            0.0025  0.0233 -0.0267  0.1514 -0.0926
                                            0.0046 -0.4102 -0.0061 -0.1072  0.0521
                                           -0.0000 -0.0000 -0.0000 -0.8431  0.0361
                                           -0.0000 -0.0000 -0.0000 -0.0000 -0.2068
                                            0.0248 -0.1704  0.0100
   129. (0.00015) RY*(11) H   4           s(  0.00%)p 1.00(  0.01%)d99.99( 99.99%)
                                            0.0000  0.0000  0.0000  0.0000  0.0000
                                            0.0000  0.0000  0.0000  0.0000  0.0000
                                            0.0024 -0.0099  0.0021  0.0000  0.0000
                                            0.9921 -0.0034  0.0978 -0.0775  0.0000
                                            0.0000  0.0000  0.0000
   130. (0.00015) RY*(12) H   4           s( 10.81%)p 1.31( 14.18%)d 6.94( 75.00%)
                                            0.0074  0.0003  0.3155 -0.0923  0.0024
                                           -0.1660 -0.0103 -0.0296 -0.3330  0.0492
                                            0.0000  0.0000  0.0000 -0.1371  0.0949
                                            0.0000  0.0000  0.0000  0.0000 -0.0350
                                           -0.1817  0.8212 -0.1171
   131. (0.00012) RY*(13) H   4           s( 15.87%)p 0.84( 13.28%)d 4.46( 70.85%)
                                           -0.0000 -0.0352  0.3297 -0.2208 -0.0372
                                           -0.3062  0.1519  0.0246 -0.0698  0.0952
                                           -0.0000 -0.0000 -0.0000 -0.2062  0.1528
                                           -0.0000 -0.0000 -0.0000 -0.0000  0.6730
                                           -0.2176 -0.3395 -0.1646
   132. (0.00010) RY*(14) H   4           s(  0.00%)p 1.00( 41.42%)d 1.41( 58.58%)
   133. (0.00009) RY*(15) H   4           s(  0.06%)p99.99( 29.85%)d99.99( 70.09%)
   134. (0.00006) RY*(16) H   4           s( 66.38%)p 0.19( 12.93%)d 0.31( 20.69%)
   135. (0.00005) RY*(17) H   4           s(  1.10%)p 1.58(  1.73%)d88.32( 97.17%)
   136. (0.00004) RY*(18) H   4           s(  0.00%)p 1.00(  1.81%)d54.21( 98.19%)
   137. (0.00004) RY*(19) H   4           s( 36.36%)p 0.76( 27.73%)d 0.99( 35.91%)
   138. (0.00004) RY*(20) H   4           s(  0.00%)p 1.00( 48.32%)d 1.07( 51.68%)
   139. (0.00003) RY*(21) H   4           s( 26.92%)p 1.62( 43.50%)d 1.10( 29.58%)
   140. (0.00003) RY*(22) H   4           s(  8.34%)p 3.65( 30.40%)d 7.35( 61.27%)
   141. (0.02159) BD*( 1) O   1 - H   2  
                ( 27.30%)   0.5225* O   1 s( 20.97%)p 3.75( 78.56%)d 0.02(  0.46%)
                                                  f 0.00(  0.01%)
                                           -0.0002 -0.4579  0.0059  0.0022  0.0023
                                           -0.8839  0.0327 -0.0093  0.0034 -0.0536
                                            0.0139 -0.0008  0.0034 -0.0000 -0.0000
                                           -0.0000 -0.0000  0.0188 -0.0033 -0.0008
                                           -0.0000 -0.0000 -0.0000 -0.0000 -0.0000
                                           -0.0000 -0.0546  0.0041  0.0043  0.0349
                                           -0.0018  0.0005 -0.0000 -0.0000  0.0099
                                           -0.0003  0.0002 -0.0000 -0.0000 -0.0000
                                           -0.0000 -0.0000 -0.0037 -0.0039 -0.0021
                                            0.0009
                ( 72.70%)  -0.8527* H   2 s( 99.87%)p 0.00(  0.13%)d 0.00(  0.00%)
                                           -0.9994 -0.0035  0.0001 -0.0002 -0.0192
                                           -0.0275  0.0049  0.0094  0.0038  0.0022
                                           -0.0000 -0.0000 -0.0000  0.0003 -0.0025
                                           -0.0000 -0.0000 -0.0000 -0.0000  0.0013
                                           -0.0013  0.0010  0.0009
   142. (0.07399) BD*( 1) O   1 - H   4  
                ( 21.78%)   0.4667* O   1 s( 26.70%)p 2.73( 72.89%)d 0.02(  0.40%)
                                                  f 0.00(  0.01%)
                                            0.0003  0.5167 -0.0009 -0.0018 -0.0007
                                           -0.2149  0.0176 -0.0020  0.0016 -0.8259
                                            0.0123 -0.0065  0.0023 -0.0000 -0.0000
                                           -0.0000 -0.0000 -0.0035  0.0025  0.0013
                                           -0.0000 -0.0000 -0.0000 -0.0000 -0.0000
                                           -0.0000 -0.0526  0.0041  0.0008 -0.0351
                                            0.0025 -0.0014 -0.0000 -0.0000  0.0018
                                            0.0002  0.0087 -0.0005 -0.0000 -0.0000
                                           -0.0000 -0.0000  0.0028  0.0015  0.0018
                                            0.0017
                ( 78.22%)  -0.8844* H   4 s( 99.90%)p 0.00(  0.09%)d 0.00(  0.00%)
                                            0.9991  0.0284  0.0011 -0.0006  0.0167
                                            0.0026  0.0012  0.0013  0.0239  0.0091
                                           -0.0000 -0.0000 -0.0000 -0.0021 -0.0019
                                           -0.0000 -0.0000 -0.0000 -0.0000  0.0028
                                           -0.0011 -0.0002 -0.0012


 NHO Directionality and "Bond Bending" (deviations from line of nuclear centers)

         [Thresholds for printing:  angular deviation  >  1.0 degree]
                                    hybrid p-character > 25.0%
                                    orbital occupancy  >  0.10e

                                Line of Centers        Hybrid 1              Hybrid 2
                                ---------------  -------------------   ------------------
                NBO               Theta   Phi    Theta   Phi    Dev    Theta   Phi    Dev
 ========================================================================================
     1. BD (   1) O   1 - H   2    90.0    0.0    90.0    2.5   2.5      --     --    --
     2. BD (   1) O   1 - H   4    90.0  258.3    90.0  256.4   1.9      --     --    --
     9. LP (   1) O   1             --     --     90.0  126.1   --       --     --    --
    10. LP (   2) O   1             --     --      0.0    0.0   --       --     --    --
    12. LP (   2)Cl   3             --     --      0.0    0.0   --       --     --    --
    13. LP (   3)Cl   3             --     --     90.0  348.0   --       --     --    --
    14. LP (   4)Cl   3             --     --     90.0   77.9   --       --     --    --


 Natural Bond Orbitals (Summary):

           NBO                  Occupancy  
 -----------------------------------------------
 Molecular unit  1  (H2O)
     1. BD (   1) O   1 - H   2          1.96556
     2. BD (   1) O   1 - H   4          1.96777
     3. CR (   1) O   1                  1.99967
     9. LP (   1) O   1                  1.96956
    10. LP (   2) O   1                  1.95947
    15. RY*(   1) O   1                  0.01963
    16. RY*(   2) O   1                  0.01525
    17. RY*(   3) O   1                  0.00708
    18. RY*(   4) O   1                  0.00620
    19. RY*(   5) O   1                  0.00619
    20. RY*(   6) O   1                  0.00590
    21. RY*(   7) O   1                  0.00571
    22. RY*(   8) O   1                  0.00339
    23. RY*(   9) O   1                  0.00229
    24. RY*(  10) O   1                  0.00071
    25. RY*(  11) O   1                  0.00056
    26. RY*(  12) O   1                  0.00048
    27. RY*(  13) O   1                  0.00046
    28. RY*(  14) O   1                  0.00044
    29. RY*(  15) O   1                  0.00044
    30. RY*(  16) O   1                  0.00042
    31. RY*(  17) O   1                  0.00041
    32. RY*(  18) O   1                  0.00041
    33. RY*(  19) O   1                  0.00041
    34. RY*(  20) O   1                  0.00037
    35. RY*(  21) O   1                  0.00034
    36. RY*(  22) O   1                  0.00034
    37. RY*(  23) O   1                  0.00030
    38. RY*(  24) O   1                  0.00026
    39. RY*(  25) O   1                  0.00022
    40. RY*(  26) O   1                  0.00014
    41. RY*(  27) O   1                  0.00007
    42. RY*(  28) O   1                  0.00008
    43. RY*(  29) O   1                  0.00007
    44. RY*(  30) O   1                  0.00007
    45. RY*(  31) O   1                  0.00006
    46. RY*(  32) O   1                  0.00006
    47. RY*(  33) O   1                  0.00007
    48. RY*(  34) O   1                  0.00005
    49. RY*(  35) O   1                  0.00003
    50. RY*(  36) O   1                  0.00004
    51. RY*(  37) O   1                  0.00004
    52. RY*(  38) O   1                  0.00001
    53. RY*(  39) O   1                  0.00001
    54. RY*(  40) O   1                  0.00001
    55. RY*(  41) O   1                 -0.00005
    56. RY*(   1) H   2                  0.00517
    57. RY*(   2) H   2                  0.00229
    58. RY*(   3) H   2                  0.00190
    59. RY*(   4) H   2                  0.00087
    60. RY*(   5) H   2                  0.00029
    61. RY*(   6) H   2                  0.00021
    62. RY*(   7) H   2                  0.00018
    63. RY*(   8) H   2                  0.00010
    64. RY*(   9) H   2                  0.00011
    65. RY*(  10) H   2                  0.00009
    66. RY*(  11) H   2                  0.00010
    67. RY*(  12) H   2                  0.00007
    68. RY*(  13) H   2                  0.00007
    69. RY*(  14) H   2                  0.00005
    70. RY*(  15) H   2                  0.00003
    71. RY*(  16) H   2                  0.00004
    72. RY*(  17) H   2                  0.00003
    73. RY*(  18) H   2                  0.00002
    74. RY*(  19) H   2                  0.00003
    75. RY*(  20) H   2                  0.00001
    76. RY*(  21) H   2                  0.00001
    77. RY*(  22) H   2                  0.00002
   119. RY*(   1) H   4                  0.00878
   120. RY*(   2) H   4                  0.00374
   121. RY*(   3) H   4                  0.00373
   122. RY*(   4) H   4                  0.00275
   123. RY*(   5) H   4                  0.00047
   124. RY*(   6) H   4                  0.00034
   125. RY*(   7) H   4                  0.00035
   126. RY*(   8) H   4                  0.00020
   127. RY*(   9) H   4                  0.00019
   128. RY*(  10) H   4                  0.00017
   129. RY*(  11) H   4                  0.00015
   130. RY*(  12) H   4                  0.00015
   131. RY*(  13) H   4                  0.00012
   132. RY*(  14) H   4                  0.00010
   133. RY*(  15) H   4                  0.00009
   134. RY*(  16) H   4                  0.00006
   135. RY*(  17) H   4                  0.00005
   136. RY*(  18) H   4                  0.00004
   137. RY*(  19) H   4                  0.00004
   138. RY*(  20) H   4                  0.00004
   139. RY*(  21) H   4                  0.00003
   140. RY*(  22) H   4                  0.00003
   141. BD*(   1) O   1 - H   2          0.02159
   142. BD*(   1) O   1 - H   4          0.07399
       -------------------------------
              Total Lewis    9.86202  ( 97.9361%)
        Valence non-Lewis    0.09558  (  0.9492%)
        Rydberg non-Lewis    0.11225  (  1.1147%)
       -------------------------------
            Total unit  1   10.06985  (100.0000%)
           Charge unit  1   -0.06985

 Molecular unit  2  (Cl)
     4. CR (   1)Cl   3                  2.00001
     5. CR (   2)Cl   3                  2.00000
     6. CR (   3)Cl   3                  2.00003
     7. CR (   4)Cl   3                  2.00002
     8. CR (   5)Cl   3                  2.00003
    11. LP (   1)Cl   3                  1.97889
    12. LP (   2)Cl   3                  1.95278
    13. LP (   3)Cl   3                  1.95254
    14. LP (   4)Cl   3                  1.89892
    78. RY*(   1)Cl   3                  0.01836
    79. RY*(   2)Cl   3                  0.01832
    80. RY*(   3)Cl   3                  0.01825
    81. RY*(   4)Cl   3                  0.01825
    82. RY*(   5)Cl   3                  0.01788
    83. RY*(   6)Cl   3                  0.01317
    84. RY*(   7)Cl   3                  0.01314
    85. RY*(   8)Cl   3                  0.01073
    86. RY*(   9)Cl   3                  0.00240
    87. RY*(  10)Cl   3                  0.00130
    88. RY*(  11)Cl   3                  0.00129
    89. RY*(  12)Cl   3                  0.00130
    90. RY*(  13)Cl   3                  0.00129
    91. RY*(  14)Cl   3                  0.00128
    92. RY*(  15)Cl   3                  0.00128
    93. RY*(  16)Cl   3                  0.00126
    94. RY*(  17)Cl   3                  0.00098
    95. RY*(  18)Cl   3                  0.00098
    96. RY*(  19)Cl   3                  0.00075
    97. RY*(  20)Cl   3                  0.00073
    98. RY*(  21)Cl   3                  0.00068
    99. RY*(  22)Cl   3                  0.00054
   100. RY*(  23)Cl   3                  0.00054
   101. RY*(  24)Cl   3                  0.00052
   102. RY*(  25)Cl   3                  0.00020
   103. RY*(  26)Cl   3                  0.00014
   104. RY*(  27)Cl   3                  0.00014
   105. RY*(  28)Cl   3                  0.00015
   106. RY*(  29)Cl   3                  0.00015
   107. RY*(  30)Cl   3                  0.00014
   108. RY*(  31)Cl   3                  0.00014
   109. RY*(  32)Cl   3                  0.00014
   110. RY*(  33)Cl   3                  0.00010
   111. RY*(  34)Cl   3                  0.00010
   112. RY*(  35)Cl   3                  0.00008
   113. RY*(  36)Cl   3                  0.00008
   114. RY*(  37)Cl   3                  0.00007
   115. RY*(  38)Cl   3                  0.00005
   116. RY*(  39)Cl   3                  0.00002
   117. RY*(  40)Cl   3                  0.00002
   118. RY*(  41)Cl   3                  0.00000
       -------------------------------
              Total Lewis   17.78321  ( 99.1805%)
        Valence non-Lewis    0.00000  (  0.0000%)
        Rydberg non-Lewis    0.14694  (  0.8195%)
       -------------------------------
            Total unit  2   17.93015  (100.0000%)
           Charge unit  2   -0.93015
 Leave Link  607 at Fri Oct  8 13:07:55 2021, MaxMem= 16106127360 cpu:              68.9 elap:               2.5
 (Enter /sw/contrib/gaussian/g16/B01/g16/l9999.exe)
 1\1\GINC-N2218\SP\RMP2-FC\Aug-CC-pVTZ\Cl1H2O1(1-)\CGAVINH\08-Oct-2021\
 0\\#p pop=NBO SP NoSymm mp2/aug-cc-pvtz density=current\\title\\-1,1\O
 \X,1,10.\H,1,0.96061628,2,90.\Cl,1,3.08954942,2,90.,3,101.71720655,0\H
 ,1,1.,2,90.,3,101.71720655,0\\Version=ES64L-G16RevB.01\HF=-535.650008\
 MP2=-536.1339565\RMSD=5.526e-09\Dipole=0.7596665,0.8454877,0.\Quadrupo
 le=9.8141345,-18.8763368,9.0622022,-5.5322043,0.,0.\PG=CS [SG(Cl1H2O1)
 ]\\@


 Discoveries are often made by not following instructions,
 by going off the main road, by trying the untried.
 -- Frank Tyger
 Job cpu time:       0 days  0 hours  3 minutes 12.3 seconds.
 Elapsed time:       0 days  0 hours  0 minutes  9.0 seconds.
 File lengths (MBytes):  RWF=     10 Int=      0 D2E=      0 Chk=      8 Scr=      1
 Normal termination of Gaussian 16 at Fri Oct  8 13:07:56 2021.
