 Entering Gaussian System, Link 0=g16
 Input=brhocl_pp_rOH_110_sp.gjf
 Output=brhocl_pp_rOH_110_sp.log
 Initial command:
 /sw/contrib/gaussian/g16/B01/g16/l1.exe "/scr/Gau-4818.inp" -scrdir="/scr/"
 Entering Link 1 = /sw/contrib/gaussian/g16/B01/g16/l1.exe PID=      4819.
  
 Copyright (c) 1988-2017, Gaussian, Inc.  All Rights Reserved.
  
 This is part of the Gaussian(R) 16 program.  It is based on
 the Gaussian(R) 09 system (copyright 2009, Gaussian, Inc.),
 the Gaussian(R) 03 system (copyright 2003, Gaussian, Inc.),
 the Gaussian(R) 98 system (copyright 1998, Gaussian, Inc.),
 the Gaussian(R) 94 system (copyright 1995, Gaussian, Inc.),
 the Gaussian 92(TM) system (copyright 1992, Gaussian, Inc.),
 the Gaussian 90(TM) system (copyright 1990, Gaussian, Inc.),
 the Gaussian 88(TM) system (copyright 1988, Gaussian, Inc.),
 the Gaussian 86(TM) system (copyright 1986, Carnegie Mellon
 University), and the Gaussian 82(TM) system (copyright 1983,
 Carnegie Mellon University). Gaussian is a federally registered
 trademark of Gaussian, Inc.
  
 This software contains proprietary and confidential information,
 including trade secrets, belonging to Gaussian, Inc.
  
 This software is provided under written license and may be
 used, copied, transmitted, or stored only in accord with that
 written license.
  
 The following legend is applicable only to US Government
 contracts under FAR:
  
                    RESTRICTED RIGHTS LEGEND
  
 Use, reproduction and disclosure by the US Government is
 subject to restrictions as set forth in subparagraphs (a)
 and (c) of the Commercial Computer Software - Restricted
 Rights clause in FAR 52.227-19.
  
 Gaussian, Inc.
 340 Quinnipiac St., Bldg. 40, Wallingford CT 06492
  
  
 ---------------------------------------------------------------
 Warning -- This program may not be used in any manner that
 competes with the business of Gaussian, Inc. or will provide
 assistance to any competitor of Gaussian, Inc.  The licensee
 of this program is prohibited from giving any competitor of
 Gaussian, Inc. access to this program.  By using this program,
 the user acknowledges that Gaussian, Inc. is engaged in the
 business of creating and licensing software in the field of
 computational chemistry and represents and warrants to the
 licensee that it is not a competitor of Gaussian, Inc. and that
 it will not use this program in any manner prohibited above.
 ---------------------------------------------------------------
  

 Cite this work as:
 Gaussian 16, Revision B.01,
 M. J. Frisch, G. W. Trucks, H. B. Schlegel, G. E. Scuseria, 
 M. A. Robb, J. R. Cheeseman, G. Scalmani, V. Barone, 
 G. A. Petersson, H. Nakatsuji, X. Li, M. Caricato, A. V. Marenich, 
 J. Bloino, B. G. Janesko, R. Gomperts, B. Mennucci, H. P. Hratchian, 
 J. V. Ortiz, A. F. Izmaylov, J. L. Sonnenberg, D. Williams-Young, 
 F. Ding, F. Lipparini, F. Egidi, J. Goings, B. Peng, A. Petrone, 
 T. Henderson, D. Ranasinghe, V. G. Zakrzewski, J. Gao, N. Rega, 
 G. Zheng, W. Liang, M. Hada, M. Ehara, K. Toyota, R. Fukuda, 
 J. Hasegawa, M. Ishida, T. Nakajima, Y. Honda, O. Kitao, H. Nakai, 
 T. Vreven, K. Throssell, J. A. Montgomery, Jr., J. E. Peralta, 
 F. Ogliaro, M. J. Bearpark, J. J. Heyd, E. N. Brothers, K. N. Kudin, 
 V. N. Staroverov, T. A. Keith, R. Kobayashi, J. Normand, 
 K. Raghavachari, A. P. Rendell, J. C. Burant, S. S. Iyengar, 
 J. Tomasi, M. Cossi, J. M. Millam, M. Klene, C. Adamo, R. Cammi, 
 J. W. Ochterski, R. L. Martin, K. Morokuma, O. Farkas, 
 J. B. Foresman, and D. J. Fox, Gaussian, Inc., Wallingford CT, 2016.
 
 ******************************************
 Gaussian 16:  ES64L-G16RevB.01 20-Dec-2017
                19-Oct-2021 
 ******************************************
 %nproc=28
 Will use up to   28 processors via shared memory.
 %mem=120GB
 %chk=/gscratch/ilahie/mccoygrp/coire_hocl/rOH_s_oop_0/brhocl_pp/brhocl_pp_rOH_11
 0_sp.chk
 --------------------------------------------------------
 #p pop=NBO SP NoSymm mp2/gen Pseudo=read density=current
 --------------------------------------------------------
 1/30=1,38=1,172=1/1;
 2/12=2,15=1,17=6,18=5,40=1/2;
 3/5=7,11=9,16=1,17=8,25=1,30=1,71=1/1,2,3;
 4//1;
 5/5=2,38=5/2;
 8/6=4,10=1/1;
 9/15=1,16=-3/6;
 10/5=1,13=10,31=1/2;
 6/7=2,8=2,9=2,10=2,22=-1,40=1/1,7;
 99/5=1,9=1/99;
 Leave Link    1 at Tue Oct 19 14:35:01 2021, MaxMem= 16106127360 cpu:               2.9 elap:               0.1
 (Enter /sw/contrib/gaussian/g16/B01/g16/l101.exe)
 -----
 title
 -----
 Symbolic Z-matrix:
 Charge = -1 Multiplicity = 1
 O
 X                    1     10. 
 Cl                   1    r1       2     90. 
 Br                   1    r2       2     90.      3    a1       0
 H                    1    r3       2    oop      3    a1       0
       Variables:
  r1                    1.68447                  
  r2                    3.06793                  
  r3                    1.1                      
  a1                  103.4503                   
  OOP                  90.                       
 
 ITRead=  0  0  0  0
 MicOpt= -1 -1 -1 -1
 NAtoms=      4 NQM=        4 NQMF=       0 NMMI=      0 NMMIF=      0
                NMic=       0 NMicF=      0.
                    Isotopes and Nuclear Properties:
 (Nuclear quadrupole moments (NQMom) in fm**2, nuclear magnetic moments (NMagM)
  in nuclear magnetons)

  Atom         1           2           3           4
 IAtWgt=          16          35          79           1
 AtmWgt=  15.9949146  34.9688527  78.9183361   1.0078250
 NucSpn=           0           3           3           1
 AtZEff=  -0.0000000  -0.0000000  -0.0000000  -0.0000000
 NQMom=    0.0000000  -8.1650000  31.3000000   0.0000000
 NMagM=    0.0000000   0.8218740   2.1063990   2.7928460
 AtZNuc=   8.0000000  17.0000000  35.0000000   1.0000000
 Leave Link  101 at Tue Oct 19 14:35:01 2021, MaxMem= 16106127360 cpu:               2.1 elap:               0.1
 (Enter /sw/contrib/gaussian/g16/B01/g16/l202.exe)
                          Input orientation:                          
 ---------------------------------------------------------------------
 Center     Atomic      Atomic             Coordinates (Angstroms)
 Number     Number       Type             X           Y           Z
 ---------------------------------------------------------------------
      1          8           0        0.000000    0.000000    0.000000
      2         17           0        1.684465    0.000000    0.000000
      3         35           0       -0.713606   -2.983785    0.000000
      4          1           0       -0.255862   -1.069829    0.000000
 ---------------------------------------------------------------------
                    Distance matrix (angstroms):
                    1          2          3          4
     1  O    0.000000
     2  Cl   1.684465   0.000000
     3  Br   3.067932   3.828018   0.000000
     4  H    1.100000   2.215718   1.967932   0.000000
 Symmetry turned off by external request.
 Stoichiometry    BrClHO(1-)
 Framework group  CS[SG(BrClHO)]
 Deg. of freedom     5
 Full point group                 CS      NOp   2
 Rotational constants (GHZ):          22.7132018           1.2845516           1.2157921
 Leave Link  202 at Tue Oct 19 14:35:01 2021, MaxMem= 16106127360 cpu:               0.8 elap:               0.1
 (Enter /sw/contrib/gaussian/g16/B01/g16/l301.exe)
 General basis read from cards:  (5D, 7F)
 Centers:       2      1      4
 aug-cc-pVTZ
 ****
 Centers:       3
 S 10 1.00
     Exponent=  9.6593900000D+03 Coefficients=  3.7100000000D-04
     Exponent=  1.4559600000D+03 Coefficients=  2.5710000000D-03
     Exponent=  3.2591400000D+02 Coefficients=  8.4850000000D-03
     Exponent=  4.6565700000D+01 Coefficients=  7.8222000000D-02
     Exponent=  1.8246900000D+01 Coefficients= -3.9714900000D-01
     Exponent=  3.8020100000D+00 Coefficients=  6.8586400000D-01
     Exponent=  1.7863200000D+00 Coefficients=  4.8681900000D-01
     Exponent=  6.0271400000D-01 Coefficients=  3.4913000000D-02
     Exponent=  2.8401400000D-01 Coefficients= -6.5730000000D-03
     Exponent=  1.2027100000D-01 Coefficients=  1.6420000000D-03
 S 10 1.00
     Exponent=  9.6593900000D+03 Coefficients= -1.5200000000D-04
     Exponent=  1.4559600000D+03 Coefficients= -1.0080000000D-03
     Exponent=  3.2591400000D+02 Coefficients= -3.6090000000D-03
     Exponent=  4.6565700000D+01 Coefficients= -2.7872000000D-02
     Exponent=  1.8246900000D+01 Coefficients=  1.5131700000D-01
     Exponent=  3.8020100000D+00 Coefficients= -3.5149700000D-01
     Exponent=  1.7863200000D+00 Coefficients= -4.1070300000D-01
     Exponent=  6.0271400000D-01 Coefficients=  3.4731600000D-01
     Exponent=  2.8401400000D-01 Coefficients=  6.7549100000D-01
     Exponent=  1.2027100000D-01 Coefficients=  2.4400800000D-01
 S 1 1.00
     Exponent=  6.0271400000D-01 Coefficients=  1.0000000000D+00
 S 1 1.00
     Exponent=  2.8401400000D-01 Coefficients=  1.0000000000D+00
 S 1 1.00
     Exponent=  1.2027100000D-01 Coefficients=  1.0000000000D+00
 S 1 1.00
     Exponent=  4.4500000000D-02 Coefficients=  1.0000000000D+00
 P 9 1.00
     Exponent=  4.9218700000D+02 Coefficients=  4.7200000000D-04
     Exponent=  9.2364200000D+01 Coefficients=  5.4940000000D-03
     Exponent=  2.7071800000D+01 Coefficients= -8.8030000000D-02
     Exponent=  7.2653900000D+00 Coefficients=  3.4348500000D-01
     Exponent=  3.4848100000D+00 Coefficients=  5.1020800000D-01
     Exponent=  1.6404800000D+00 Coefficients=  2.4863100000D-01
     Exponent=  6.4857000000D-01 Coefficients=  2.2201000000D-02
     Exponent=  2.5640700000D-01 Coefficients= -4.1900000000D-04
     Exponent=  9.5304000000D-02 Coefficients=  6.5600000000D-04
 P 9 1.00
     Exponent=  4.9218700000D+02 Coefficients= -1.5800000000D-04
     Exponent=  9.2364200000D+01 Coefficients= -1.3440000000D-03
     Exponent=  2.7071800000D+01 Coefficients=  2.4616000000D-02
     Exponent=  7.2653900000D+00 Coefficients= -1.1253200000D-01
     Exponent=  3.4848100000D+00 Coefficients= -1.7977500000D-01
     Exponent=  1.6404800000D+00 Coefficients= -7.3661000000D-02
     Exponent=  6.4857000000D-01 Coefficients=  3.4873400000D-01
     Exponent=  2.5640700000D-01 Coefficients=  5.5794800000D-01
     Exponent=  9.5304000000D-02 Coefficients=  2.6645600000D-01
 P 1 1.00
     Exponent=  7.6660000000D-01 Coefficients=  1.0000000000D+00
 P 1 1.00
     Exponent=  1.1820000000D-01 Coefficients=  1.0000000000D+00
 P 1 1.00
     Exponent=  3.9600000000D-02 Coefficients=  1.0000000000D+00
 D 8 1.00
     Exponent=  3.3899600000D+02 Coefficients=  1.5240000000D-03
     Exponent=  1.0321700000D+02 Coefficients=  1.5673000000D-02
     Exponent=  4.2363800000D+01 Coefficients=  7.2400000000D-02
     Exponent=  1.8435600000D+01 Coefficients=  1.8630300000D-01
     Exponent=  8.3725400000D+00 Coefficients=  3.2388100000D-01
     Exponent=  3.8022200000D+00 Coefficients=  3.7453400000D-01
     Exponent=  1.6867700000D+00 Coefficients=  2.5741800000D-01
     Exponent=  6.7752000000D-01 Coefficients=  6.8051000000D-02
 D 1 1.00
     Exponent=  6.7752000000D-01 Coefficients=  1.0000000000D+00
 D 1 1.00
     Exponent=  2.5530000000D-01 Coefficients=  1.0000000000D+00
 D 1 1.00
     Exponent=  1.0090000000D-01 Coefficients=  1.0000000000D+00
 F 1 1.00
     Exponent=  5.6060000000D-01 Coefficients=  1.0000000000D+00
 F 1 1.00
     Exponent=  2.4540000000D-01 Coefficients=  1.0000000000D+00
 ****
 ======================================================================================================
                                       Pseudopotential Parameters
 ======================================================================================================
  Center     Atomic      Valence      Angular      Power
  Number     Number     Electrons     Momentum     of R      Exponent        Coefficient   SO-Coeffient
 ======================================================================================================
    1          8
                                   No pseudopotential on this center.
    2         17
                                   No pseudopotential on this center.
    3         35           25
                                      G and up 
                                                     2        1.0000000        0.00000000    0.00000000
                                      S - G
                                                     2       70.0242570       49.96283400    0.00000000
                                                     2       31.1784120      370.01420500    0.00000000
                                                     2        7.1565930       10.24143900    0.00000000
                                      P - G
                                                     2       46.7734710       99.11224400    0.00000000
                                                     2       46.1841200      198.25304600    0.00000000
                                                     2       21.7138580       28.26174000    0.00000000
                                                     2       20.9417920       56.62336600    0.00000000
                                      D - G
                                                     2       50.6988390      -18.60585300    0.00000000
                                                     2       50.6447640      -27.92328000    0.00000000
                                                     2       15.4475090       -0.37969300    0.00000000
                                                     2       15.5002590       -0.78058300    0.00000000
                                                     2        2.8003910        0.03596800    0.00000000
                                                     2        1.0774800        0.09439700    0.00000000
                                      F - G
                                                     2       14.4656060       -1.09126900    0.00000000
                                                     2       21.2340650       -2.88769100    0.00000000
    4          1
                                   No pseudopotential on this center.
 ======================================================================================================
 Ernie: Thresh=  0.10000D-02 Tol=  0.10000D-05 Strict=F.
 Ernie:  25 primitive shells out of 163 were deleted.
   174 basis functions,   373 primitive gaussians,   204 cartesian basis functions
    26 alpha electrons       26 beta electrons
       nuclear repulsion energy       150.6041960900 Hartrees.
 IExCor=    0 DFT=F Ex=HF Corr=None ExCW=0 ScaHFX=  1.000000
 ScaDFX=  1.000000  1.000000  1.000000  1.000000 ScalE2=  1.000000  1.000000
 IRadAn=      5 IRanWt=     -1 IRanGd=            0 ICorTp=0 IEmpDi=  4
 NAtoms=    4 NActive=    4 NUniq=    4 SFac= 1.00D+00 NAtFMM=   60 NAOKFM=F Big=F
 Integral buffers will be    131072 words long.
 Raffenetti 1 integral format.
 Two-electron integral symmetry is turned off.
 Leave Link  301 at Tue Oct 19 14:35:01 2021, MaxMem= 16106127360 cpu:               2.1 elap:               0.1
 (Enter /sw/contrib/gaussian/g16/B01/g16/l302.exe)
 NPDir=0 NMtPBC=     1 NCelOv=     1 NCel=       1 NClECP=     1 NCelD=      1
         NCelK=      1 NCelE2=     1 NClLst=     1 CellRange=     0.0.
 One-electron integrals computed using PRISM.
   1 Symmetry operations used in ECPInt.
 ECPInt:  NShTT=    1596 NPrTT=    9902 LenC2=    1595 LenP2D=    7768.
 LDataN:  DoStor=T MaxTD1= 7 Len=  274
 NBasis=   174 RedAO= T EigKep=  2.72D-04  NBF=   174
 NBsUse=   174 1.00D-06 EigRej= -1.00D+00 NBFU=   174
 Leave Link  302 at Tue Oct 19 14:35:01 2021, MaxMem= 16106127360 cpu:               6.7 elap:               0.3
 (Enter /sw/contrib/gaussian/g16/B01/g16/l303.exe)
 DipDrv:  MaxL=1.
 Leave Link  303 at Tue Oct 19 14:35:01 2021, MaxMem= 16106127360 cpu:               0.7 elap:               0.0
 (Enter /sw/contrib/gaussian/g16/B01/g16/l401.exe)
 ExpMin= 2.53D-02 ExpMax= 4.56D+05 ExpMxC= 1.44D+03 IAcc=3 IRadAn=         5 AccDes= 0.00D+00
 Harris functional with IExCor=  205 and IRadAn=       5 diagonalized for initial guess.
 HarFok:  IExCor=  205 AccDes= 0.00D+00 IRadAn=         5 IDoV= 1 UseB2=F ITyADJ=14
 ICtDFT=  3500011 ScaDFX=  1.000000  1.000000  1.000000  1.000000
 FoFCou: FMM=F IPFlag=           0 FMFlag=      100000 FMFlg1=           0
         NFxFlg=           0 DoJE=T BraDBF=F KetDBF=T FulRan=T
         wScrn=  0.000000 ICntrl=       500 IOpCl=  0 I1Cent=   200000004 NGrid=           0
         NMat0=    1 NMatS0=      1 NMatT0=    0 NMatD0=    1 NMtDS0=    0 NMtDT0=    0
 Symmetry not used in FoFCou.
 Harris En= -951.926724873898    
 JPrj=0 DoOrth=F DoCkMO=F.
 Leave Link  401 at Tue Oct 19 14:35:02 2021, MaxMem= 16106127360 cpu:               7.2 elap:               0.3
 (Enter /sw/contrib/gaussian/g16/B01/g16/l502.exe)
 Keep R1 ints in memory in canonical form, NReq=152797232.
 FoFCou: FMM=F IPFlag=           0 FMFlag=           0 FMFlg1=           0
         NFxFlg=           0 DoJE=F BraDBF=F KetDBF=F FulRan=T
         wScrn=  0.000000 ICntrl=       600 IOpCl=  0 I1Cent=           0 NGrid=           0
         NMat0=    1 NMatS0=  15225 NMatT0=    0 NMatD0=    1 NMtDS0=    0 NMtDT0=    0
 Symmetry not used in FoFCou.
 Two-electron integral symmetry not used.
 Closed shell SCF:
 Using DIIS extrapolation, IDIIS=  1040.
 NGot= 16106127360 LenX= 15990129197 LenY= 15990087140
 Requested convergence on RMS density matrix=1.00D-08 within 128 cycles.
 Requested convergence on MAX density matrix=1.00D-06.
 Requested convergence on             energy=1.00D-06.
 No special actions if energy rises.

 Cycle   1  Pass 1  IDiag  1:
 E= -950.370255925283    
 DIIS: error= 2.20D-02 at cycle   1 NSaved=   1.
 NSaved= 1 IEnMin= 1 EnMin= -950.370255925283     IErMin= 1 ErrMin= 2.20D-02
 ErrMax= 2.20D-02  0.00D+00 EMaxC= 1.00D-01 BMatC= 3.37D-01 BMatP= 3.37D-01
 IDIUse=3 WtCom= 7.80D-01 WtEn= 2.20D-01
 Coeff-Com:  0.100D+01
 Coeff-En:   0.100D+01
 Coeff:      0.100D+01
 Gap=     0.553 Goal=   None    Shift=    0.000
 GapD=    0.553 DampG=2.000 DampE=0.500 DampFc=1.0000 IDamp=-1.
 RMSDP=3.71D-03 MaxDP=2.45D-01              OVMax= 1.21D-01

 Cycle   2  Pass 1  IDiag  1:
 E= -950.487962933737     Delta-E=       -0.117707008455 Rises=F Damp=F
 DIIS: error= 1.77D-02 at cycle   2 NSaved=   2.
 NSaved= 2 IEnMin= 2 EnMin= -950.487962933737     IErMin= 2 ErrMin= 1.77D-02
 ErrMax= 1.77D-02  0.00D+00 EMaxC= 1.00D-01 BMatC= 3.92D-02 BMatP= 3.37D-01
 IDIUse=3 WtCom= 8.23D-01 WtEn= 1.77D-01
 Coeff-Com:  0.168D+00 0.832D+00
 Coeff-En:   0.000D+00 0.100D+01
 Coeff:      0.138D+00 0.862D+00
 Gap=     0.346 Goal=   None    Shift=    0.000
 RMSDP=1.05D-03 MaxDP=4.71D-02 DE=-1.18D-01 OVMax= 6.53D-02

 Cycle   3  Pass 1  IDiag  1:
 E= -950.507451144307     Delta-E=       -0.019488210570 Rises=F Damp=F
 DIIS: error= 8.66D-03 at cycle   3 NSaved=   3.
 NSaved= 3 IEnMin= 3 EnMin= -950.507451144307     IErMin= 3 ErrMin= 8.66D-03
 ErrMax= 8.66D-03  0.00D+00 EMaxC= 1.00D-01 BMatC= 1.10D-02 BMatP= 3.92D-02
 IDIUse=3 WtCom= 9.13D-01 WtEn= 8.66D-02
 Coeff-Com: -0.112D-01 0.335D+00 0.676D+00
 Coeff-En:   0.000D+00 0.109D+00 0.891D+00
 Coeff:     -0.102D-01 0.316D+00 0.695D+00
 Gap=     0.343 Goal=   None    Shift=    0.000
 RMSDP=3.56D-04 MaxDP=1.31D-02 DE=-1.95D-02 OVMax= 3.29D-02

 Cycle   4  Pass 1  IDiag  1:
 E= -950.514882927680     Delta-E=       -0.007431783373 Rises=F Damp=F
 DIIS: error= 1.70D-03 at cycle   4 NSaved=   4.
 NSaved= 4 IEnMin= 4 EnMin= -950.514882927680     IErMin= 4 ErrMin= 1.70D-03
 ErrMax= 1.70D-03  0.00D+00 EMaxC= 1.00D-01 BMatC= 2.52D-04 BMatP= 1.10D-02
 IDIUse=3 WtCom= 9.83D-01 WtEn= 1.70D-02
 Coeff-Com: -0.477D-02 0.424D-01 0.163D+00 0.800D+00
 Coeff-En:   0.000D+00 0.000D+00 0.000D+00 0.100D+01
 Coeff:     -0.469D-02 0.417D-01 0.160D+00 0.803D+00
 Gap=     0.338 Goal=   None    Shift=    0.000
 RMSDP=7.05D-05 MaxDP=2.06D-03 DE=-7.43D-03 OVMax= 3.57D-03

 Cycle   5  Pass 1  IDiag  1:
 E= -950.515115593389     Delta-E=       -0.000232665709 Rises=F Damp=F
 DIIS: error= 2.80D-04 at cycle   5 NSaved=   5.
 NSaved= 5 IEnMin= 5 EnMin= -950.515115593389     IErMin= 5 ErrMin= 2.80D-04
 ErrMax= 2.80D-04  0.00D+00 EMaxC= 1.00D-01 BMatC= 2.30D-05 BMatP= 2.52D-04
 IDIUse=3 WtCom= 9.97D-01 WtEn= 2.80D-03
 Coeff-Com: -0.292D-03-0.371D-01-0.617D-01 0.681D-01 0.103D+01
 Coeff-En:   0.000D+00 0.000D+00 0.000D+00 0.000D+00 0.100D+01
 Coeff:     -0.291D-03-0.370D-01-0.616D-01 0.680D-01 0.103D+01
 Gap=     0.339 Goal=   None    Shift=    0.000
 RMSDP=3.83D-05 MaxDP=1.37D-03 DE=-2.33D-04 OVMax= 3.58D-03

 Cycle   6  Pass 1  IDiag  1:
 E= -950.515166519324     Delta-E=       -0.000050925935 Rises=F Damp=F
 DIIS: error= 1.40D-04 at cycle   6 NSaved=   6.
 NSaved= 6 IEnMin= 6 EnMin= -950.515166519324     IErMin= 6 ErrMin= 1.40D-04
 ErrMax= 1.40D-04  0.00D+00 EMaxC= 1.00D-01 BMatC= 3.13D-06 BMatP= 2.30D-05
 IDIUse=3 WtCom= 9.99D-01 WtEn= 1.40D-03
 Coeff-Com:  0.957D-03 0.129D-02-0.475D-03-0.927D-01-0.331D+00 0.142D+01
 Coeff-En:   0.000D+00 0.000D+00 0.000D+00 0.000D+00 0.000D+00 0.100D+01
 Coeff:      0.956D-03 0.129D-02-0.475D-03-0.925D-01-0.331D+00 0.142D+01
 Gap=     0.340 Goal=   None    Shift=    0.000
 RMSDP=2.12D-05 MaxDP=7.71D-04 DE=-5.09D-05 OVMax= 2.10D-03

 Cycle   7  Pass 1  IDiag  1:
 E= -950.515177980786     Delta-E=       -0.000011461462 Rises=F Damp=F
 DIIS: error= 5.12D-05 at cycle   7 NSaved=   7.
 NSaved= 7 IEnMin= 7 EnMin= -950.515177980786     IErMin= 7 ErrMin= 5.12D-05
 ErrMax= 5.12D-05  0.00D+00 EMaxC= 1.00D-01 BMatC= 2.12D-07 BMatP= 3.13D-06
 IDIUse=1 WtCom= 1.00D+00 WtEn= 0.00D+00
 Coeff-Com: -0.336D-03 0.260D-02 0.624D-02 0.195D-01 0.405D-01-0.500D+00
 Coeff-Com:  0.143D+01
 Coeff:     -0.336D-03 0.260D-02 0.624D-02 0.195D-01 0.405D-01-0.500D+00
 Coeff:      0.143D+01
 Gap=     0.340 Goal=   None    Shift=    0.000
 RMSDP=6.56D-06 MaxDP=2.31D-04 DE=-1.15D-05 OVMax= 6.68D-04

 Cycle   8  Pass 1  IDiag  1:
 E= -950.515178875189     Delta-E=       -0.000000894403 Rises=F Damp=F
 DIIS: error= 8.68D-06 at cycle   8 NSaved=   8.
 NSaved= 8 IEnMin= 8 EnMin= -950.515178875189     IErMin= 8 ErrMin= 8.68D-06
 ErrMax= 8.68D-06  0.00D+00 EMaxC= 1.00D-01 BMatC= 1.46D-08 BMatP= 2.12D-07
 IDIUse=1 WtCom= 1.00D+00 WtEn= 0.00D+00
 Coeff-Com: -0.605D-04-0.251D-03 0.104D-04 0.744D-02 0.308D-01-0.141D+00
 Coeff-Com:  0.103D+00 0.100D+01
 Coeff:     -0.605D-04-0.251D-03 0.104D-04 0.744D-02 0.308D-01-0.141D+00
 Coeff:      0.103D+00 0.100D+01
 Gap=     0.340 Goal=   None    Shift=    0.000
 RMSDP=1.23D-06 MaxDP=4.89D-05 DE=-8.94D-07 OVMax= 1.03D-04

 Cycle   9  Pass 1  IDiag  1:
 E= -950.515178913761     Delta-E=       -0.000000038572 Rises=F Damp=F
 DIIS: error= 3.37D-06 at cycle   9 NSaved=   9.
 NSaved= 9 IEnMin= 9 EnMin= -950.515178913761     IErMin= 9 ErrMin= 3.37D-06
 ErrMax= 3.37D-06  0.00D+00 EMaxC= 1.00D-01 BMatC= 1.63D-09 BMatP= 1.46D-08
 IDIUse=1 WtCom= 1.00D+00 WtEn= 0.00D+00
 Coeff-Com:  0.286D-04-0.247D-03-0.458D-03-0.208D-02-0.804D-02 0.616D-01
 Coeff-Com: -0.144D+00-0.131D+00 0.122D+01
 Coeff:      0.286D-04-0.247D-03-0.458D-03-0.208D-02-0.804D-02 0.616D-01
 Coeff:     -0.144D+00-0.131D+00 0.122D+01
 Gap=     0.340 Goal=   None    Shift=    0.000
 RMSDP=5.70D-07 MaxDP=2.24D-05 DE=-3.86D-08 OVMax= 5.45D-05

 Cycle  10  Pass 1  IDiag  1:
 E= -950.515178920258     Delta-E=       -0.000000006497 Rises=F Damp=F
 DIIS: error= 1.88D-06 at cycle  10 NSaved=  10.
 NSaved=10 IEnMin=10 EnMin= -950.515178920258     IErMin=10 ErrMin= 1.88D-06
 ErrMax= 1.88D-06  0.00D+00 EMaxC= 1.00D-01 BMatC= 2.68D-10 BMatP= 1.63D-09
 IDIUse=1 WtCom= 1.00D+00 WtEn= 0.00D+00
 Coeff-Com: -0.555D-05 0.140D-03 0.189D-03-0.637D-04 0.666D-03-0.119D-01
 Coeff-Com:  0.533D-01-0.668D-01-0.530D+00 0.156D+01
 Coeff:     -0.555D-05 0.140D-03 0.189D-03-0.637D-04 0.666D-03-0.119D-01
 Coeff:      0.533D-01-0.668D-01-0.530D+00 0.156D+01
 Gap=     0.340 Goal=   None    Shift=    0.000
 RMSDP=3.09D-07 MaxDP=6.99D-06 DE=-6.50D-09 OVMax= 3.27D-05

 Cycle  11  Pass 1  IDiag  1:
 E= -950.515178921770     Delta-E=       -0.000000001513 Rises=F Damp=F
 DIIS: error= 7.59D-07 at cycle  11 NSaved=  11.
 NSaved=11 IEnMin=11 EnMin= -950.515178921770     IErMin=11 ErrMin= 7.59D-07
 ErrMax= 7.59D-07  0.00D+00 EMaxC= 1.00D-01 BMatC= 3.10D-11 BMatP= 2.68D-10
 IDIUse=1 WtCom= 1.00D+00 WtEn= 0.00D+00
 Coeff-Com: -0.266D-05-0.233D-05 0.137D-04 0.369D-03 0.761D-03-0.531D-02
 Coeff-Com:  0.680D-02 0.296D-01-0.695D-02-0.485D+00 0.146D+01
 Coeff:     -0.266D-05-0.233D-05 0.137D-04 0.369D-03 0.761D-03-0.531D-02
 Coeff:      0.680D-02 0.296D-01-0.695D-02-0.485D+00 0.146D+01
 Gap=     0.340 Goal=   None    Shift=    0.000
 RMSDP=1.21D-07 MaxDP=2.96D-06 DE=-1.51D-09 OVMax= 1.26D-05

 Cycle  12  Pass 1  IDiag  1:
 E= -950.515178921958     Delta-E=       -0.000000000188 Rises=F Damp=F
 DIIS: error= 1.43D-07 at cycle  12 NSaved=  12.
 NSaved=12 IEnMin=12 EnMin= -950.515178921958     IErMin=12 ErrMin= 1.43D-07
 ErrMax= 1.43D-07  0.00D+00 EMaxC= 1.00D-01 BMatC= 1.48D-12 BMatP= 3.10D-11
 IDIUse=1 WtCom= 1.00D+00 WtEn= 0.00D+00
 Coeff-Com:  0.341D-08-0.115D-04-0.134D-04 0.562D-04 0.326D-04 0.381D-03
 Coeff-Com: -0.363D-02 0.752D-02 0.448D-01-0.158D+00 0.662D-01 0.104D+01
 Coeff:      0.341D-08-0.115D-04-0.134D-04 0.562D-04 0.326D-04 0.381D-03
 Coeff:     -0.363D-02 0.752D-02 0.448D-01-0.158D+00 0.662D-01 0.104D+01
 Gap=     0.340 Goal=   None    Shift=    0.000
 RMSDP=2.35D-08 MaxDP=1.02D-06 DE=-1.88D-10 OVMax= 2.02D-06

 Cycle  13  Pass 1  IDiag  1:
 E= -950.515178921957     Delta-E=        0.000000000001 Rises=F Damp=F
 DIIS: error= 2.68D-08 at cycle  13 NSaved=  13.
 NSaved=13 IEnMin=12 EnMin= -950.515178921958     IErMin=13 ErrMin= 2.68D-08
 ErrMax= 2.68D-08  0.00D+00 EMaxC= 1.00D-01 BMatC= 8.24D-14 BMatP= 1.48D-12
 IDIUse=1 WtCom= 1.00D+00 WtEn= 0.00D+00
 Coeff-Com:  0.176D-06 0.203D-05 0.811D-06-0.340D-04-0.472D-04 0.257D-03
 Coeff-Com:  0.158D-03-0.280D-02-0.738D-02 0.559D-01-0.991D-01-0.182D+00
 Coeff-Com:  0.124D+01
 Coeff:      0.176D-06 0.203D-05 0.811D-06-0.340D-04-0.472D-04 0.257D-03
 Coeff:      0.158D-03-0.280D-02-0.738D-02 0.559D-01-0.991D-01-0.182D+00
 Coeff:      0.124D+01
 Gap=     0.340 Goal=   None    Shift=    0.000
 RMSDP=6.64D-09 MaxDP=4.13D-07 DE= 9.09D-13 OVMax= 4.10D-07

 SCF Done:  E(RHF) =  -950.515178922     A.U. after   13 cycles
            NFock= 13  Conv=0.66D-08     -V/T= 2.1445
 KE= 8.304750039086D+02 PE=-2.611673644364D+03 EE= 6.800792654433D+02
 Leave Link  502 at Tue Oct 19 14:35:05 2021, MaxMem= 16106127360 cpu:              35.8 elap:               3.7
 (Enter /sw/contrib/gaussian/g16/B01/g16/l801.exe)
 ExpMin= 2.53D-02 ExpMax= 4.56D+05 ExpMxC= 1.44D+03 IAcc=3 IRadAn=         5 AccDes= 0.00D+00
 HarFok:  IExCor=  205 AccDes= 0.00D+00 IRadAn=         5 IDoV=-2 UseB2=F ITyADJ=14
 ICtDFT= 12500011 ScaDFX=  1.000000  1.000000  1.000000  1.000000
 DSYEVD-2 returned Info=         111 IAlg= 4 N=    55 NDim=    55 NE2=   292836798 trying  DSYEV.
 Largest valence mixing into a core orbital is  4.47D-04
 Largest core mixing into a valence orbital is  1.57D-04
 Range of M.O.s used for correlation:    11   174
 NBasis=   174 NAE=    26 NBE=    26 NFC=    10 NFV=     0
 NROrb=    164 NOA=    16 NOB=    16 NVA=   148 NVB=   148

 **** Warning!!: The largest alpha MO coefficient is  0.16064352D+02

 Leave Link  801 at Tue Oct 19 14:35:06 2021, MaxMem= 16106127360 cpu:               3.2 elap:               0.2
 (Enter /sw/contrib/gaussian/g16/B01/g16/l906.exe)
 Frozen-core derivative calculation, NFC=  10 NFV=   0.
 FulOut=F Deriv=T AODrv=F NAtomX=     4
   MMem=         130  MDisk=          16 MDiskD=          16
  W3Min=      922896 MinDsk=     1491158 NBas6D=         204
 NBas2D=       21411    NTT=       20910    LW2=    16556320
    MDV= 16105732564 MDiskM=      394699 NBas2p=       21383
 Fully in-core method, ICMem=   510791049.
 IMap=   1   2   3   4   5   6   7   8   9  10  11  12  13  14  15  16  17  18  19  20
 IMap=  21  22  23  24  25  26
 JobTyp=1 Pass  1 fully in-core, NPsUse= 28.
 Compute canonical integrals.
 FoFCou: FMM=F IPFlag=           0 FMFlag=           0 FMFlg1=           0
         NFxFlg=           0 DoJE=F BraDBF=F KetDBF=F FulRan=T
         wScrn=  0.000000 ICntrl=       600 IOpCl=  1 I1Cent=           0 NGrid=           0
         NMat0=    1 NMatS0=  21411 NMatT0=    0 NMatD0=    1 NMtDS0=    0 NMtDT0=    0
 Symmetry not used in FoFCou.
 Spin components of T(2) and E(2):
     alpha-alpha T2 =       0.3089273887D-01 E2=     -0.9478149947D-01
     alpha-beta  T2 =       0.1637461577D+00 E2=     -0.5187544328D+00
     beta-beta   T2 =       0.3089273887D-01 E2=     -0.9478149947D-01
 The integrals were generated   1 times.
 ANorm=    0.1107037323D+01
 E2 =    -0.7083174317D+00 EUMP2 =    -0.95122349635368D+03
 Leave Link  906 at Tue Oct 19 14:35:11 2021, MaxMem= 16106127360 cpu:             161.1 elap:               5.8
 (Enter /sw/contrib/gaussian/g16/B01/g16/l1002.exe)
 Minotr:  Closed shell wavefunction.
          Computing MP2/KS-MP2 derivatives.
          Using Z-Vector for PSCF gradient.
          Skipping F1 and S1 gradient terms here.
          Frozen-core window.
          Direct CPHF calculation.
          Differentiating once with respect to electric field.
                with respect to dipole field.
          Electric field/nuclear overlap derivatives assumed to be zero.
          Requested convergence is 1.0D-10 RMS, and 1.0D-09 maximum.
          NewPWx=F KeepS1=T KeepF1=T KeepIn=T MapXYZ=F SortEE=F KeepMc=T.
 Keep R1 ints in memory in canonical form, NReq=152801945.
 FoFCou: FMM=F IPFlag=           0 FMFlag=           0 FMFlg1=           0
         NFxFlg=           0 DoJE=F BraDBF=F KetDBF=F FulRan=T
         wScrn=  0.000000 ICntrl=       600 IOpCl=  0 I1Cent=           0 NGrid=           0
         NMat0=    1 NMatS0=  15225 NMatT0=    0 NMatD0=    1 NMtDS0=    0 NMtDT0=    0
 Symmetry not used in FoFCou.
 Two-electron integral symmetry not used.
          MDV=   16106127360 using IRadAn=       5.
          Solving linear equations separately, MaxMat=       0.
          There are     1 degrees of freedom in the 1st order CPHF.  IDoFFX=0 NUNeed=     1.
 LinEq1:  Iter=  0 NonCon=     1 RMS=3.03D-03 Max=4.82D-02 NDo=     1
 AX will form     1 AO Fock derivatives at one time.
 LinEq1:  Iter=  1 NonCon=     1 RMS=4.87D-04 Max=5.49D-03 NDo=     1
 LinEq1:  Iter=  2 NonCon=     1 RMS=2.27D-04 Max=4.02D-03 NDo=     1
 LinEq1:  Iter=  3 NonCon=     1 RMS=7.61D-05 Max=1.22D-03 NDo=     1
 LinEq1:  Iter=  4 NonCon=     1 RMS=3.45D-05 Max=9.20D-04 NDo=     1
 LinEq1:  Iter=  5 NonCon=     1 RMS=1.15D-05 Max=1.75D-04 NDo=     1
 LinEq1:  Iter=  6 NonCon=     1 RMS=2.28D-06 Max=2.47D-05 NDo=     1
 LinEq1:  Iter=  7 NonCon=     1 RMS=5.54D-07 Max=8.87D-06 NDo=     1
 LinEq1:  Iter=  8 NonCon=     1 RMS=1.56D-07 Max=2.21D-06 NDo=     1
 LinEq1:  Iter=  9 NonCon=     1 RMS=4.42D-08 Max=9.06D-07 NDo=     1
 LinEq1:  Iter= 10 NonCon=     1 RMS=1.31D-08 Max=2.25D-07 NDo=     1
 LinEq1:  Iter= 11 NonCon=     1 RMS=3.15D-09 Max=4.21D-08 NDo=     1
 LinEq1:  Iter= 12 NonCon=     1 RMS=5.35D-10 Max=8.03D-09 NDo=     1
 LinEq1:  Iter= 13 NonCon=     1 RMS=1.34D-10 Max=1.86D-09 NDo=     1
 LinEq1:  Iter= 14 NonCon=     0 RMS=3.22D-11 Max=5.18D-10 NDo=     1
 Linear equations converged to 1.000D-10 1.000D-09 after    14 iterations.
 End of Minotr F.D. properties file   721 does not exist.
 End of Minotr F.D. properties file   722 does not exist.
 End of Minotr F.D. properties file   788 does not exist.
 Leave Link 1002 at Tue Oct 19 14:35:16 2021, MaxMem= 16106127360 cpu:              40.9 elap:               4.3
 (Enter /sw/contrib/gaussian/g16/B01/g16/l601.exe)
 Copying SCF densities to generalized density rwf, IOpCl= 0 IROHF=0.

 **********************************************************************

            Population analysis using the MP2 Density.

 **********************************************************************

 Alpha  occ. eigenvalues -- -104.72170 -20.45172 -10.44126  -9.56765  -7.90842
 Alpha  occ. eigenvalues --   -7.90587  -7.90578  -7.31587  -7.31487  -7.31485
 Alpha  occ. eigenvalues --   -2.86693  -2.86652  -2.86650  -2.86553  -2.86553
 Alpha  occ. eigenvalues --   -1.20444  -0.88060  -0.76719  -0.51277  -0.42953
 Alpha  occ. eigenvalues --   -0.42119  -0.29819  -0.26999  -0.19250  -0.18237
 Alpha  occ. eigenvalues --   -0.18227
 Alpha virt. eigenvalues --    0.15740   0.18482   0.22405   0.23395   0.25015
 Alpha virt. eigenvalues --    0.26315   0.26528   0.29181   0.30467   0.32353
 Alpha virt. eigenvalues --    0.32410   0.32947   0.36011   0.43543   0.43644
 Alpha virt. eigenvalues --    0.46074   0.47524   0.48088   0.49402   0.54318
 Alpha virt. eigenvalues --    0.54870   0.57566   0.58109   0.59655   0.60454
 Alpha virt. eigenvalues --    0.61063   0.66175   0.72321   0.74605   0.78112
 Alpha virt. eigenvalues --    0.80821   0.82693   0.82696   0.85291   0.90533
 Alpha virt. eigenvalues --    0.90839   0.91692   0.94720   0.97657   0.97910
 Alpha virt. eigenvalues --    0.99694   0.99814   1.01149   1.02156   1.03788
 Alpha virt. eigenvalues --    1.05887   1.09646   1.09852   1.10758   1.14050
 Alpha virt. eigenvalues --    1.14112   1.14636   1.16353   1.20851   1.22442
 Alpha virt. eigenvalues --    1.23294   1.28233   1.28939   1.32671   1.32983
 Alpha virt. eigenvalues --    1.34271   1.38914   1.46885   1.47587   1.50369
 Alpha virt. eigenvalues --    1.54276   1.59463   1.63068   1.67300   1.70594
 Alpha virt. eigenvalues --    1.71508   1.77807   1.78440   1.80903   1.89565
 Alpha virt. eigenvalues --    1.98543   2.20801   2.36348   2.39038   2.45119
 Alpha virt. eigenvalues --    2.45640   2.48399   2.49757   2.51041   2.52772
 Alpha virt. eigenvalues --    2.52932   2.53569   2.53861   2.56229   2.57900
 Alpha virt. eigenvalues --    2.59413   2.62149   2.62288   2.63027   2.64499
 Alpha virt. eigenvalues --    2.66120   2.69277   2.69464   2.71622   2.73058
 Alpha virt. eigenvalues --    2.73932   2.77425   2.79370   2.81332   2.85186
 Alpha virt. eigenvalues --    2.89181   3.08164   3.08723   3.12348   3.13466
 Alpha virt. eigenvalues --    3.21468   3.22673   3.23431   3.30641   3.31494
 Alpha virt. eigenvalues --    3.36699   3.48784   3.53589   3.55486   3.62130
 Alpha virt. eigenvalues --    3.92668   4.24141   4.25707   4.43129   4.46431
 Alpha virt. eigenvalues --    4.56601   4.75856   4.92356   4.96809   5.15735
 Alpha virt. eigenvalues --    5.22212   5.53053   6.48841   6.59789   6.84796
 Alpha virt. eigenvalues --    6.90136   6.92684   6.99968   7.15836   7.22712
 Alpha virt. eigenvalues --    7.35481   7.43717   7.57199   7.75942   7.82846
 Alpha virt. eigenvalues --    8.21728  13.46944  79.87543
          Condensed to atoms (all electrons):
               1          2          3          4
     1  O    8.665519  -0.121486  -0.111062   0.085278
     2  Cl  -0.121486  17.093751   0.012850  -0.016805
     3  Br  -0.111062   0.012850  25.902251   0.002005
     4  H    0.085278  -0.016805   0.002005   0.636922
 Mulliken charges:
               1
     1  O   -0.518249
     2  Cl   0.031691
     3  Br  -0.806043
     4  H    0.292601
 Sum of Mulliken charges =  -1.00000
 Mulliken charges with hydrogens summed into heavy atoms:
               1
     1  O   -0.225648
     2  Cl   0.031691
     3  Br  -0.806043
 Electronic spatial extent (au):  <R**2>=           1137.6022
 Charge=             -1.0000 electrons
 Dipole moment (field-independent basis, Debye):
    X=              1.4715    Y=              9.6908    Z=             -0.0000  Tot=              9.8019
 Quadrupole moment (field-independent basis, Debye-Ang):
   XX=            -45.2874   YY=            -74.3417   ZZ=            -42.7660
   XY=             -7.9487   XZ=              0.0000   YZ=              0.0000
 Traceless Quadrupole moment (field-independent basis, Debye-Ang):
   XX=              8.8443   YY=            -20.2100   ZZ=             11.3657
   XY=             -7.9487   XZ=              0.0000   YZ=              0.0000
 Octapole moment (field-independent basis, Debye-Ang**2):
  XXX=            -16.6458  YYY=            296.5298  ZZZ=             -0.0000  XYY=             16.2349
  XXY=             72.5724  XXZ=             -0.0000  XZZ=             -7.0117  YZZ=             67.2635
  YYZ=             -0.0000  XYZ=             -0.0000
 Hexadecapole moment (field-independent basis, Debye-Ang**3):
 XXXX=           -341.6902 YYYY=          -1525.9723 ZZZZ=            -60.7651 XXXY=           -148.2792
 XXXZ=              0.0000 YYYX=           -209.5655 YYYZ=              0.0000 ZZZX=              0.0000
 ZZZY=              0.0000 XXYY=           -286.4681 XXZZ=            -71.6297 YYZZ=           -219.8981
 XXYZ=              0.0000 YYXZ=             -0.0000 ZZXY=            -48.1094
 N-N= 1.506041960900D+02 E-N=-2.610468409813D+03  KE= 8.303129696163D+02
 No NMR shielding tensors so no spin-rotation constants.
 Leave Link  601 at Tue Oct 19 14:35:16 2021, MaxMem= 16106127360 cpu:               4.0 elap:               0.2
 (Enter /sw/contrib/gaussian/g16/B01/g16/l607.exe)
 ******************************Gaussian NBO Version 3.1******************************
             N A T U R A L   A T O M I C   O R B I T A L   A N D
          N A T U R A L   B O N D   O R B I T A L   A N A L Y S I S
 ******************************Gaussian NBO Version 3.1******************************
       /RESON  / : Allow strongly delocalized NBO set

 Analyzing the MP2 density

 Job title: title                                                           

 Storage needed:     91686 in NPA,    121697 in NBO (********** available)
 GSVD:  LWork=        2436 too small for GESVD, short by       52200 words or       52200 for optimal perf.


 NATURAL POPULATIONS:  Natural atomic orbital occupancies 
                                                          
   NAO  Atom  No  lang   Type(AO)    Occupancy
 --------------------------------------------
     1    O    1  S      Cor( 1S)     1.99974
     2    O    1  S      Val( 2S)     1.81018
     3    O    1  S      Ryd( 3S)     0.01039
     4    O    1  S      Ryd( 4S)     0.00115
     5    O    1  S      Ryd( 5S)     0.00018
     6    O    1  px     Val( 2p)     1.19778
     7    O    1  px     Ryd( 3p)     0.00718
     8    O    1  px     Ryd( 4p)     0.00065
     9    O    1  px     Ryd( 5p)     0.00046
    10    O    1  py     Val( 2p)     1.72263
    11    O    1  py     Ryd( 3p)     0.01289
    12    O    1  py     Ryd( 4p)     0.00073
    13    O    1  py     Ryd( 5p)     0.00051
    14    O    1  pz     Val( 2p)     1.94697
    15    O    1  pz     Ryd( 3p)     0.02096
    16    O    1  pz     Ryd( 4p)     0.00064
    17    O    1  pz     Ryd( 5p)     0.00015
    18    O    1  dxy    Ryd( 3d)     0.00860
    19    O    1  dxy    Ryd( 4d)     0.00049
    20    O    1  dxy    Ryd( 5d)     0.00014
    21    O    1  dxz    Ryd( 3d)     0.00881
    22    O    1  dxz    Ryd( 4d)     0.00059
    23    O    1  dxz    Ryd( 5d)     0.00010
    24    O    1  dyz    Ryd( 3d)     0.00733
    25    O    1  dyz    Ryd( 4d)     0.00064
    26    O    1  dyz    Ryd( 5d)     0.00033
    27    O    1  dx2y2  Ryd( 3d)     0.01310
    28    O    1  dx2y2  Ryd( 4d)     0.00039
    29    O    1  dx2y2  Ryd( 5d)     0.00017
    30    O    1  dz2    Ryd( 3d)     0.00934
    31    O    1  dz2    Ryd( 4d)     0.00061
    32    O    1  dz2    Ryd( 5d)     0.00017
    33    O    1  f(0)   Ryd( 4f)     0.00070
    34    O    1  f(0)   Ryd( 5f)     0.00011
    35    O    1  f(C1)  Ryd( 4f)     0.00067
    36    O    1  f(C1)  Ryd( 5f)     0.00012
    37    O    1  f(S1)  Ryd( 4f)     0.00061
    38    O    1  f(S1)  Ryd( 5f)     0.00011
    39    O    1  f(C2)  Ryd( 4f)     0.00061
    40    O    1  f(C2)  Ryd( 5f)     0.00013
    41    O    1  f(S2)  Ryd( 4f)     0.00054
    42    O    1  f(S2)  Ryd( 5f)     0.00012
    43    O    1  f(C3)  Ryd( 4f)     0.00061
    44    O    1  f(C3)  Ryd( 5f)     0.00014
    45    O    1  f(S3)  Ryd( 4f)     0.00056
    46    O    1  f(S3)  Ryd( 5f)     0.00012

    47   Cl    2  S      Cor( 1S)     2.00000
    48   Cl    2  S      Cor( 2S)     1.99977
    49   Cl    2  S      Val( 3S)     1.87958
    50   Cl    2  S      Ryd( 4S)     0.00803
    51   Cl    2  S      Ryd( 5S)     0.00053
    52   Cl    2  S      Ryd( 6S)     0.00018
    53   Cl    2  px     Cor( 2p)     1.99995
    54   Cl    2  px     Val( 3p)     0.91892
    55   Cl    2  px     Ryd( 4p)     0.00666
    56   Cl    2  px     Ryd( 5p)     0.00053
    57   Cl    2  px     Ryd( 6p)     0.00022
    58   Cl    2  py     Cor( 2p)     2.00003
    59   Cl    2  py     Val( 3p)     1.95281
    60   Cl    2  py     Ryd( 4p)     0.01011
    61   Cl    2  py     Ryd( 5p)     0.00052
    62   Cl    2  py     Ryd( 6p)     0.00009
    63   Cl    2  pz     Cor( 2p)     2.00003
    64   Cl    2  pz     Val( 3p)     1.95417
    65   Cl    2  pz     Ryd( 4p)     0.01091
    66   Cl    2  pz     Ryd( 5p)     0.00069
    67   Cl    2  pz     Ryd( 6p)     0.00003
    68   Cl    2  dxy    Ryd( 3d)     0.01738
    69   Cl    2  dxy    Ryd( 4d)     0.00096
    70   Cl    2  dxy    Ryd( 5d)     0.00035
    71   Cl    2  dxz    Ryd( 3d)     0.02181
    72   Cl    2  dxz    Ryd( 4d)     0.00118
    73   Cl    2  dxz    Ryd( 5d)     0.00037
    74   Cl    2  dyz    Ryd( 3d)     0.01685
    75   Cl    2  dyz    Ryd( 4d)     0.00071
    76   Cl    2  dyz    Ryd( 5d)     0.00021
    77   Cl    2  dx2y2  Ryd( 3d)     0.01862
    78   Cl    2  dx2y2  Ryd( 4d)     0.00047
    79   Cl    2  dx2y2  Ryd( 5d)     0.00018
    80   Cl    2  dz2    Ryd( 3d)     0.01760
    81   Cl    2  dz2    Ryd( 4d)     0.00059
    82   Cl    2  dz2    Ryd( 5d)     0.00018
    83   Cl    2  f(0)   Ryd( 4f)     0.00131
    84   Cl    2  f(0)   Ryd( 5f)     0.00014
    85   Cl    2  f(C1)  Ryd( 4f)     0.00148
    86   Cl    2  f(C1)  Ryd( 5f)     0.00015
    87   Cl    2  f(S1)  Ryd( 4f)     0.00127
    88   Cl    2  f(S1)  Ryd( 5f)     0.00013
    89   Cl    2  f(C2)  Ryd( 4f)     0.00135
    90   Cl    2  f(C2)  Ryd( 5f)     0.00013
    91   Cl    2  f(S2)  Ryd( 4f)     0.00120
    92   Cl    2  f(S2)  Ryd( 5f)     0.00013
    93   Cl    2  f(C3)  Ryd( 4f)     0.00161
    94   Cl    2  f(C3)  Ryd( 5f)     0.00013
    95   Cl    2  f(S3)  Ryd( 4f)     0.00128
    96   Cl    2  f(S3)  Ryd( 5f)     0.00014

    97   Br    3  S      Cor( 3S)     1.99973
    98   Br    3  S      Val( 4S)     1.95818
    99   Br    3  S      Ryd( 5S)     0.00163
   100   Br    3  S      Ryd( 6S)     0.00043
   101   Br    3  S      Ryd( 7S)     0.00016
   102   Br    3  S      Ryd( 8S)     0.00000
   103   Br    3  px     Cor( 3p)     1.99998
   104   Br    3  px     Val( 4p)     1.94550
   105   Br    3  px     Ryd( 5p)     0.01089
   106   Br    3  px     Ryd( 6p)     0.00078
   107   Br    3  px     Ryd( 7p)     0.00012
   108   Br    3  py     Cor( 3p)     1.99988
   109   Br    3  py     Val( 4p)     1.81123
   110   Br    3  py     Ryd( 5p)     0.00925
   111   Br    3  py     Ryd( 6p)     0.00072
   112   Br    3  py     Ryd( 7p)     0.00014
   113   Br    3  pz     Cor( 3p)     1.99999
   114   Br    3  pz     Val( 4p)     1.95398
   115   Br    3  pz     Ryd( 5p)     0.01104
   116   Br    3  pz     Ryd( 6p)     0.00078
   117   Br    3  pz     Ryd( 7p)     0.00011
   118   Br    3  dxy    Cor( 3d)     1.99766
   119   Br    3  dxy    Ryd( 4d)     0.01849
   120   Br    3  dxy    Ryd( 5d)     0.00135
   121   Br    3  dxy    Ryd( 6d)     0.00019
   122   Br    3  dxz    Cor( 3d)     1.99770
   123   Br    3  dxz    Ryd( 4d)     0.01834
   124   Br    3  dxz    Ryd( 5d)     0.00169
   125   Br    3  dxz    Ryd( 6d)     0.00024
   126   Br    3  dyz    Cor( 3d)     1.99768
   127   Br    3  dyz    Ryd( 4d)     0.01857
   128   Br    3  dyz    Ryd( 5d)     0.00137
   129   Br    3  dyz    Ryd( 6d)     0.00019
   130   Br    3  dx2y2  Cor( 3d)     1.99762
   131   Br    3  dx2y2  Ryd( 4d)     0.01846
   132   Br    3  dx2y2  Ryd( 5d)     0.00152
   133   Br    3  dx2y2  Ryd( 6d)     0.00023
   134   Br    3  dz2    Cor( 3d)     1.99767
   135   Br    3  dz2    Ryd( 4d)     0.01839
   136   Br    3  dz2    Ryd( 5d)     0.00167
   137   Br    3  dz2    Ryd( 6d)     0.00019
   138   Br    3  f(0)   Ryd( 4f)     0.00170
   139   Br    3  f(0)   Ryd( 5f)     0.00026
   140   Br    3  f(C1)  Ryd( 4f)     0.00173
   141   Br    3  f(C1)  Ryd( 5f)     0.00025
   142   Br    3  f(S1)  Ryd( 4f)     0.00177
   143   Br    3  f(S1)  Ryd( 5f)     0.00029
   144   Br    3  f(C2)  Ryd( 4f)     0.00169
   145   Br    3  f(C2)  Ryd( 5f)     0.00026
   146   Br    3  f(S2)  Ryd( 4f)     0.00172
   147   Br    3  f(S2)  Ryd( 5f)     0.00026
   148   Br    3  f(C3)  Ryd( 4f)     0.00170
   149   Br    3  f(C3)  Ryd( 5f)     0.00027
   150   Br    3  f(S3)  Ryd( 4f)     0.00173
   151   Br    3  f(S3)  Ryd( 5f)     0.00028

   152    H    4  S      Val( 1S)     0.52340
   153    H    4  S      Ryd( 2S)     0.00745
   154    H    4  S      Ryd( 3S)     0.00046
   155    H    4  S      Ryd( 4S)     0.00022
   156    H    4  px     Ryd( 2p)     0.00442
   157    H    4  px     Ryd( 3p)     0.00054
   158    H    4  px     Ryd( 4p)     0.00013
   159    H    4  py     Ryd( 2p)     0.00511
   160    H    4  py     Ryd( 3p)     0.00132
   161    H    4  py     Ryd( 4p)     0.00028
   162    H    4  pz     Ryd( 2p)     0.00565
   163    H    4  pz     Ryd( 3p)     0.00035
   164    H    4  pz     Ryd( 4p)     0.00027
   165    H    4  dxy    Ryd( 3d)     0.00030
   166    H    4  dxy    Ryd( 4d)     0.00011
   167    H    4  dxz    Ryd( 3d)     0.00025
   168    H    4  dxz    Ryd( 4d)     0.00006
   169    H    4  dyz    Ryd( 3d)     0.00043
   170    H    4  dyz    Ryd( 4d)     0.00011
   171    H    4  dx2y2  Ryd( 3d)     0.00022
   172    H    4  dx2y2  Ryd( 4d)     0.00012
   173    H    4  dz2    Ryd( 3d)     0.00026
   174    H    4  dz2    Ryd( 4d)     0.00009

 [ 10 electrons found in the effective core potential]

 WARNING:  5 low occupancy (<1.9990e) core orbitals found on Br    3


 Summary of Natural Population Analysis:                  
                                                          
                                       Natural Population 
                Natural  -----------------------------------------------
    Atom  No    Charge         Core      Valence    Rydberg      Total
 -----------------------------------------------------------------------
      O    1   -0.78912      1.99974     6.67755    0.11183     8.78912
     Cl    2    0.14833      9.99978     6.70548    0.14641    16.85167
     Br    3   -0.80765     27.98792     7.66889    0.15085    35.80765
      H    4    0.44844      0.00000     0.52340    0.02815     0.55156
 =======================================================================
   * Total *   -1.00000     39.98744    21.57532    0.43723    62.00000

                                 Natural Population      
 --------------------------------------------------------
   Effective Core            10.00000
   Core                      29.98744 ( 99.9581% of  30)
   Valence                   21.57532 ( 98.0697% of  22)
   Natural Minimal Basis     61.56277 ( 99.2948% of  62)
   Natural Rydberg Basis      0.43723 (  0.7052% of  62)
 --------------------------------------------------------

    Atom  No          Natural Electron Configuration
 ----------------------------------------------------------------------------
      O    1      [core]2S( 1.81)2p( 4.87)3S( 0.01)3p( 0.04)3d( 0.05)
     Cl    2      [core]3S( 1.88)3p( 4.83)4S( 0.01)3d( 0.09)4p( 0.03)4f( 0.01)
     Br    3      [core]4S( 1.96)4p( 5.71)4d( 0.09)5p( 0.03)4f( 0.01)5d( 0.01)
      H    4            1S( 0.52)2S( 0.01)2p( 0.02)


 NATURAL BOND ORBITAL ANALYSIS:
 Warning:  a bond orbital has occupanc of -0.00005
 Warning:  a bond orbital has occupanc of -0.00000

                       Occupancies       Lewis Structure    Low   High
           Occ.    -------------------  -----------------   occ   occ
  Cycle   Thresh.   Lewis   Non-Lewis     CR  BD  3C  LP    (L)   (NL)   Dev
 =============================================================================
   1(1)    1.90    61.35844   0.64156     15   2   0   9     1      1    0.24
 Warning:  a bond orbital has occupanc of -0.00005
 Warning:  a bond orbital has occupanc of -0.00000
   2(2)    1.90    61.18702   0.81298     15   2   0   9     1      1    0.49
 Warning:  a bond orbital has occupanc of -0.00005
 Warning:  a bond orbital has occupanc of -0.00000
   3(3)    1.90    61.35844   0.64156     15   2   0   9     1      1    0.24
 Warning:  a bond orbital has occupanc of -0.00005
 Warning:  a bond orbital has occupanc of -0.00000
   4(1)    1.80    61.35844   0.64156     15   2   0   9     1      1    0.24
 Warning:  a bond orbital has occupanc of -0.00005
 Warning:  a bond orbital has occupanc of -0.00000
   5(2)    1.80    61.18702   0.81298     15   2   0   9     1      1    0.49
 Warning:  a bond orbital has occupanc of -0.00005
 Warning:  a bond orbital has occupanc of -0.00000
   6(3)    1.80    61.35844   0.64156     15   2   0   9     1      1    0.24
 Warning:  a bond orbital has occupanc of -0.00005
 Warning:  a bond orbital has occupanc of -0.00000
   7(1)    1.70    61.35844   0.64156     15   2   0   9     0      1    0.24
 Warning:  a bond orbital has occupanc of -0.00005
 Warning:  a bond orbital has occupanc of -0.00000
   8(2)    1.70    61.35844   0.64156     15   2   0   9     0      1    0.24
 Warning:  a bond orbital has occupanc of -0.00005
 Warning:  a bond orbital has occupanc of -0.00000
   9(1)    1.60    61.02772   0.97228     15   1   0  10     0      1    0.49
 Warning:  a bond orbital has occupanc of -0.00005
 Warning:  a bond orbital has occupanc of -0.00000
  10(2)    1.60    61.02772   0.97228     15   1   0  10     0      1    0.49
 Warning:  a bond orbital has occupanc of -0.00005
 Warning:  a bond orbital has occupanc of -0.00000
  11(1)    1.50    61.02772   0.97228     15   1   0  10     0      1    0.49
 Warning:  a bond orbital has occupanc of -0.00005
 Warning:  a bond orbital has occupanc of -0.00000
  12(2)    1.50    61.02772   0.97228     15   1   0  10     0      1    0.49
 Warning:  a bond orbital has occupanc of -0.00005
 Warning:  a bond orbital has occupanc of -0.00000
  13(1)    1.90    61.35844   0.64156     15   2   0   9     1      1    0.24
 -----------------------------------------------------------------------------

 Structure accepted: RESONANCE keyword permits strongly delocalized structure

 WARNING:  5 low occupancy (<1.9990e) core orbitals found on Br    3

 --------------------------------------------------------
   Effective Core           10.00000
   Core                     29.98744 ( 99.958% of  30)
   Valence Lewis            21.37100 ( 97.141% of  22)
  ==================       ============================
   Total Lewis              61.35844 ( 98.965% of  62)
  -----------------------------------------------------
   Valence non-Lewis         0.24947 (  0.402% of  62)
   Rydberg non-Lewis         0.39209 (  0.632% of  62)
  ==================       ============================
   Total non-Lewis           0.64156 (  1.035% of  62)
 --------------------------------------------------------


       (Occupancy)   Bond orbital/ Coefficients/ Hybrids
 ---------------------------------------------------------------------------------
     1. (1.93840) BD ( 1) O   1 -Cl   2  
                ( 58.42%)   0.7643* O   1 s( 10.43%)p 8.54( 89.04%)d 0.05(  0.51%)
                                                  f 0.00(  0.02%)
                                            0.0003  0.3191 -0.0467 -0.0159 -0.0006
                                            0.9417 -0.0363 -0.0105 -0.0132 -0.0377
                                           -0.0263 -0.0048  0.0005  0.0000  0.0000
                                            0.0000  0.0000 -0.0194 -0.0016  0.0020
                                            0.0000  0.0000  0.0000  0.0000  0.0000
                                            0.0000  0.0543  0.0043  0.0025 -0.0418
                                           -0.0034  0.0004  0.0000  0.0000 -0.0111
                                            0.0012 -0.0001  0.0002  0.0000  0.0000
                                            0.0000  0.0000  0.0066  0.0010 -0.0007
                                            0.0017
                ( 41.58%)   0.6448*Cl   2 s(  8.80%)p10.22( 89.95%)d 0.13(  1.13%)
                                                  f 0.01(  0.12%)
                                           -0.0000  0.0005  0.2912 -0.0561 -0.0101
                                           -0.0026 -0.0004 -0.9460  0.0651  0.0139
                                           -0.0043 -0.0000 -0.0122 -0.0019  0.0029
                                           -0.0011  0.0000  0.0000  0.0000  0.0000
                                            0.0000  0.0131 -0.0001  0.0005  0.0000
                                            0.0000  0.0000  0.0000  0.0000  0.0000
                                            0.0885 -0.0112 -0.0009 -0.0562  0.0066
                                            0.0014  0.0000  0.0000  0.0215 -0.0031
                                            0.0006 -0.0002  0.0000  0.0000  0.0000
                                            0.0000 -0.0262  0.0029 -0.0018  0.0003
     2. (1.96001) BD ( 1) O   1 - H   4  
                ( 81.24%)   0.9013* O   1 s( 25.84%)p 2.85( 73.73%)d 0.02(  0.42%)
                                                  f 0.00(  0.01%)
                                           -0.0002 -0.5083  0.0027  0.0082 -0.0024
                                            0.2037 -0.0146 -0.0028 -0.0044  0.8340
                                            0.0024 -0.0050 -0.0044  0.0000  0.0000
                                            0.0000  0.0000  0.0040  0.0025  0.0005
                                            0.0000  0.0000  0.0000  0.0000  0.0000
                                            0.0000  0.0551  0.0064  0.0004  0.0327
                                            0.0018 -0.0039  0.0000  0.0000 -0.0018
                                           -0.0005 -0.0091  0.0003  0.0000  0.0000
                                            0.0000  0.0000 -0.0023 -0.0019  0.0002
                                           -0.0010
                ( 18.76%)   0.4331* H   4 s( 99.78%)p 0.00(  0.21%)d 0.00(  0.01%)
                                           -0.9979 -0.0449 -0.0102  0.0011 -0.0089
                                           -0.0124  0.0018  0.0182 -0.0370 -0.0127
                                            0.0000  0.0000  0.0000 -0.0003 -0.0001
                                            0.0000  0.0000  0.0000  0.0000  0.0043
                                            0.0031  0.0008  0.0054
     3. (1.99974) CR ( 1) O   1           s(100.00%)p 0.00(  0.00%)
                                            1.0000 -0.0003  0.0000  0.0000 -0.0000
                                           -0.0002  0.0000  0.0000  0.0000  0.0001
                                            0.0000 -0.0000 -0.0000  0.0000  0.0000
                                            0.0000  0.0000  0.0000  0.0000  0.0000
                                            0.0000  0.0000  0.0000  0.0000  0.0000
                                            0.0000 -0.0000  0.0000  0.0000  0.0000
                                            0.0000 -0.0000  0.0000  0.0000  0.0000
                                           -0.0000 -0.0000  0.0000  0.0000  0.0000
                                            0.0000  0.0000 -0.0000 -0.0000 -0.0000
                                           -0.0000
     4. (2.00000) CR ( 1)Cl   2           s(100.00%)
                                            1.0000  0.0000 -0.0000 -0.0000 -0.0000
                                           -0.0000 -0.0000 -0.0000  0.0000  0.0000
                                           -0.0000 -0.0000 -0.0000 -0.0000  0.0000
                                           -0.0000  0.0000  0.0000  0.0000  0.0000
                                            0.0000  0.0000 -0.0000  0.0000  0.0000
                                            0.0000  0.0000  0.0000  0.0000  0.0000
                                            0.0000 -0.0000 -0.0000 -0.0000  0.0000
                                            0.0000  0.0000  0.0000  0.0000 -0.0000
                                            0.0000 -0.0000  0.0000  0.0000  0.0000
                                            0.0000 -0.0000  0.0000 -0.0000  0.0000
     5. (1.99977) CR ( 2)Cl   2           s(100.00%)p 0.00(  0.00%)
                                            0.0000  1.0000 -0.0004  0.0000  0.0000
                                            0.0000  0.0000  0.0004 -0.0000 -0.0000
                                            0.0000 -0.0000  0.0000  0.0000 -0.0000
                                            0.0000  0.0000  0.0000  0.0000  0.0000
                                            0.0000 -0.0000  0.0000  0.0000  0.0000
                                            0.0000  0.0000  0.0000  0.0000  0.0000
                                           -0.0000  0.0000  0.0000  0.0000 -0.0000
                                           -0.0000  0.0000  0.0000 -0.0000  0.0000
                                           -0.0000  0.0000  0.0000  0.0000  0.0000
                                            0.0000  0.0000 -0.0000  0.0000 -0.0000
     6. (1.99995) CR ( 3)Cl   2           s(  0.00%)p 1.00(100.00%)
                                           -0.0000  0.0000  0.0001 -0.0000 -0.0000
                                           -0.0000  1.0000 -0.0004  0.0000  0.0000
                                           -0.0000  0.0000 -0.0000 -0.0000  0.0000
                                           -0.0000  0.0000  0.0000  0.0000  0.0000
                                            0.0000  0.0000 -0.0000 -0.0000  0.0000
                                            0.0000  0.0000  0.0000  0.0000  0.0000
                                            0.0000 -0.0000 -0.0000 -0.0000  0.0000
                                            0.0000  0.0000  0.0000  0.0000 -0.0000
                                            0.0000 -0.0000  0.0000  0.0000  0.0000
                                            0.0000 -0.0000  0.0000 -0.0000  0.0000
     7. (2.00003) CR ( 4)Cl   2           s(  0.00%)p 1.00(100.00%)
                                           -0.0000 -0.0000  0.0000  0.0000  0.0000
                                           -0.0000  0.0000 -0.0000  0.0000  0.0000
                                           -0.0000  1.0000  0.0002  0.0000  0.0000
                                            0.0000  0.0000  0.0000  0.0000  0.0000
                                            0.0000  0.0000  0.0000  0.0000  0.0000
                                            0.0000  0.0000  0.0000  0.0000  0.0000
                                           -0.0000 -0.0000 -0.0000 -0.0000 -0.0000
                                           -0.0000  0.0000  0.0000  0.0000  0.0000
                                           -0.0000  0.0000  0.0000  0.0000  0.0000
                                            0.0000 -0.0000  0.0000  0.0000 -0.0000
     8. (2.00003) CR ( 5)Cl   2           s(  0.00%)p 1.00(100.00%)
                                            0.0000  0.0000  0.0000  0.0000  0.0000
                                            0.0000  0.0000  0.0000  0.0000  0.0000
                                            0.0000  0.0000  0.0000  0.0000  0.0000
                                            0.0000  1.0000  0.0002  0.0000  0.0000
                                           -0.0000  0.0000  0.0000  0.0000  0.0000
                                            0.0000  0.0000  0.0000  0.0000  0.0000
                                            0.0000  0.0000  0.0000  0.0000  0.0000
                                            0.0000 -0.0000  0.0000  0.0000  0.0000
                                            0.0000  0.0000  0.0000 -0.0000  0.0000
                                           -0.0000  0.0000  0.0000  0.0000  0.0000
     9. (1.99973) CR ( 1)Br   3           s(100.00%)
                                            1.0000 -0.0003  0.0000 -0.0000 -0.0000
                                            0.0000  0.0000  0.0000 -0.0000  0.0000
                                            0.0000  0.0000  0.0001 -0.0000  0.0000
                                            0.0000  0.0000  0.0000  0.0000  0.0000
                                            0.0000  0.0000  0.0000 -0.0000  0.0000
                                            0.0000  0.0000  0.0000  0.0000  0.0000
                                            0.0000  0.0000  0.0000 -0.0000 -0.0000
                                           -0.0000 -0.0000 -0.0000 -0.0000  0.0000
                                           -0.0000  0.0000  0.0000 -0.0000 -0.0000
                                           -0.0000 -0.0000  0.0000  0.0000  0.0000
                                            0.0000 -0.0000 -0.0000 -0.0000  0.0000
    10. (1.99998) CR ( 2)Br   3           s(  0.00%)p 1.00(100.00%)
                                            0.0000  0.0000 -0.0000  0.0000  0.0000
                                            0.0000  1.0000 -0.0003 -0.0000 -0.0000
                                            0.0000  0.0000  0.0001  0.0000  0.0000
                                           -0.0000  0.0000  0.0000  0.0000  0.0000
                                            0.0000  0.0000 -0.0000  0.0000  0.0000
                                            0.0000  0.0000  0.0000  0.0000  0.0000
                                            0.0000  0.0000  0.0000  0.0000 -0.0000
                                           -0.0000  0.0000  0.0000 -0.0000  0.0000
                                           -0.0000  0.0000  0.0000  0.0000  0.0000
                                           -0.0000 -0.0000  0.0000  0.0000  0.0000
                                            0.0000  0.0000  0.0000 -0.0000 -0.0000
    11. (1.99988) CR ( 3)Br   3           s(  0.00%)p 1.00(100.00%)
                                            0.0000  0.0002 -0.0000  0.0000  0.0000
                                           -0.0000  0.0000  0.0001  0.0000  0.0000
                                           -0.0000  1.0000 -0.0001  0.0000 -0.0000
                                           -0.0000  0.0000  0.0000  0.0000  0.0000
                                            0.0000 -0.0000  0.0000 -0.0000 -0.0000
                                            0.0000  0.0000  0.0000  0.0000  0.0000
                                            0.0000  0.0000  0.0000  0.0000  0.0000
                                            0.0000 -0.0000  0.0000  0.0000 -0.0000
                                            0.0000  0.0000  0.0000 -0.0000 -0.0000
                                            0.0000  0.0000  0.0000  0.0000  0.0000
                                            0.0000 -0.0000 -0.0000  0.0000  0.0000
    12. (1.99999) CR ( 4)Br   3           s(  0.00%)p 1.00(100.00%)
                                            0.0000  0.0000  0.0000  0.0000  0.0000
                                            0.0000  0.0000  0.0000  0.0000  0.0000
                                            0.0000  0.0000  0.0000  0.0000  0.0000
                                            0.0000  1.0000 -0.0003 -0.0000 -0.0000
                                            0.0000  0.0000  0.0000  0.0000  0.0000
                                            0.0000 -0.0000  0.0000  0.0000  0.0000
                                           -0.0000  0.0000  0.0000  0.0000  0.0000
                                            0.0000  0.0000  0.0000  0.0000  0.0000
                                            0.0000  0.0000  0.0000  0.0000  0.0000
                                            0.0000  0.0000  0.0000  0.0000 -0.0000
                                           -0.0000  0.0000  0.0000  0.0000  0.0000
    13. (1.99766) CR ( 5)Br   3           s(  0.00%)p 0.00(  0.00%)d 1.00(100.00%)
                                            0.0000  0.0000 -0.0000  0.0000  0.0000
                                           -0.0000  0.0000  0.0000  0.0000  0.0000
                                           -0.0000 -0.0000 -0.0000  0.0000 -0.0000
                                            0.0000  0.0000  0.0000  0.0000  0.0000
                                            0.0000  1.0000  0.0000 -0.0000 -0.0000
                                            0.0000  0.0000  0.0000  0.0000  0.0000
                                            0.0000  0.0000  0.0000  0.0000  0.0000
                                            0.0000 -0.0000  0.0000  0.0000 -0.0000
                                            0.0000  0.0000  0.0000 -0.0000 -0.0000
                                            0.0000  0.0000  0.0000  0.0000  0.0000
                                            0.0000 -0.0000 -0.0000  0.0000  0.0000
    14. (1.99770) CR ( 6)Br   3           s(  0.00%)p 0.00(  0.00%)d 1.00(100.00%)
                                            0.0000  0.0000  0.0000  0.0000  0.0000
                                            0.0000  0.0000  0.0000  0.0000  0.0000
                                            0.0000  0.0000  0.0000  0.0000  0.0000
                                            0.0000  0.0000  0.0000  0.0000  0.0000
                                           -0.0000  0.0000  0.0000  0.0000  0.0000
                                            1.0000  0.0000 -0.0000 -0.0000 -0.0000
                                            0.0000 -0.0000 -0.0000  0.0000  0.0000
                                            0.0000  0.0000  0.0000  0.0000  0.0000
                                            0.0000 -0.0000 -0.0000  0.0000  0.0000
                                            0.0000  0.0000 -0.0000 -0.0000  0.0000
                                            0.0000  0.0000  0.0000  0.0000  0.0000
    15. (1.99768) CR ( 7)Br   3           s(  0.00%)p 0.00(  0.00%)d 1.00(100.00%)
                                            0.0000  0.0000  0.0000  0.0000  0.0000
                                            0.0000  0.0000  0.0000  0.0000  0.0000
                                            0.0000  0.0000  0.0000  0.0000  0.0000
                                            0.0000  0.0000  0.0000  0.0000  0.0000
                                           -0.0000  0.0000  0.0000  0.0000  0.0000
                                           -0.0000  0.0000 -0.0000 -0.0000  1.0000
                                            0.0000 -0.0000 -0.0000  0.0000  0.0000
                                            0.0000  0.0000  0.0000  0.0000  0.0000
                                            0.0000 -0.0000 -0.0000  0.0000  0.0000
                                            0.0000  0.0000 -0.0000 -0.0000  0.0000
                                            0.0000  0.0000  0.0000  0.0000  0.0000
    16. (1.99762) CR ( 8)Br   3           s(  0.00%)p 0.00(  0.00%)d 1.00(100.00%)
                                           -0.0000 -0.0000  0.0000 -0.0000 -0.0000
                                            0.0000  0.0000  0.0000  0.0000  0.0000
                                           -0.0000  0.0000  0.0000 -0.0000  0.0000
                                            0.0000  0.0000  0.0000  0.0000  0.0000
                                            0.0000  0.0000  0.0000 -0.0000 -0.0000
                                            0.0000  0.0000  0.0000  0.0000  0.0000
                                            0.0000  0.0000  0.0000  1.0000 -0.0000
                                            0.0000 -0.0000 -0.0000 -0.0000  0.0000
                                           -0.0000  0.0000  0.0000 -0.0000 -0.0000
                                           -0.0000 -0.0000  0.0000  0.0000  0.0000
                                            0.0000 -0.0000 -0.0000  0.0000  0.0000
    17. (1.99767) CR ( 9)Br   3           s(  0.00%)p 0.00(  0.00%)d 1.00(100.00%)
                                           -0.0000 -0.0000  0.0000 -0.0000 -0.0000
                                            0.0000  0.0000  0.0000 -0.0000  0.0000
                                            0.0000  0.0000  0.0000 -0.0000  0.0000
                                            0.0000  0.0000  0.0000  0.0000  0.0000
                                            0.0000  0.0000  0.0000 -0.0000  0.0000
                                            0.0000  0.0000  0.0000  0.0000  0.0000
                                            0.0000  0.0000  0.0000 -0.0000 -0.0000
                                           -0.0000  0.0000  1.0000 -0.0000  0.0000
                                           -0.0000  0.0000  0.0000 -0.0000 -0.0000
                                           -0.0000 -0.0000  0.0000  0.0000  0.0000
                                            0.0000  0.0000  0.0000 -0.0000  0.0000
    18. (1.96610) LP ( 1) O   1           s( 63.92%)p 0.56( 36.00%)d 0.00(  0.08%)
                                                  f 0.00(  0.00%)
                                            0.0002  0.7994  0.0102  0.0083 -0.0015
                                           -0.2481 -0.0012 -0.0043 -0.0019  0.5462
                                            0.0078  0.0055  0.0016  0.0000  0.0000
                                            0.0000  0.0000  0.0218  0.0023 -0.0031
                                            0.0000  0.0000  0.0000  0.0000  0.0000
                                            0.0000  0.0134  0.0004 -0.0036  0.0102
                                            0.0008  0.0010  0.0000  0.0000 -0.0001
                                            0.0005 -0.0024  0.0001  0.0000  0.0000
                                            0.0000  0.0000  0.0034 -0.0023  0.0040
                                           -0.0014
    19. (1.95125) LP ( 2) O   1           s(  0.00%)p 1.00( 99.82%)d 0.00(  0.17%)
                                                  f 0.00(  0.01%)
                                            0.0000  0.0000  0.0000  0.0000  0.0000
                                            0.0000  0.0000  0.0000  0.0000  0.0000
                                            0.0000  0.0000  0.0000  0.9989  0.0172
                                            0.0055  0.0085  0.0000  0.0000  0.0000
                                            0.0314  0.0049 -0.0010 -0.0229  0.0039
                                            0.0111  0.0000  0.0000  0.0000  0.0000
                                            0.0000  0.0000 -0.0097  0.0006  0.0000
                                            0.0000  0.0000  0.0000  0.0057 -0.0021
                                            0.0007  0.0011  0.0000  0.0000  0.0000
                                            0.0000
    20. (1.97353) LP ( 1)Cl   2           s( 91.33%)p 0.09(  8.65%)d 0.00(  0.02%)
                                                  f 0.00(  0.00%)
                                            0.0000  0.0003  0.9556  0.0068  0.0012
                                            0.0004  0.0001  0.2919 -0.0064 -0.0032
                                            0.0014  0.0000 -0.0352  0.0011  0.0000
                                           -0.0005  0.0000  0.0000  0.0000  0.0000
                                            0.0000 -0.0002 -0.0004 -0.0004  0.0000
                                            0.0000  0.0000  0.0000  0.0000  0.0000
                                           -0.0125  0.0004  0.0002  0.0079  0.0005
                                            0.0003  0.0000  0.0000 -0.0022 -0.0003
                                            0.0001 -0.0000  0.0000  0.0000  0.0000
                                            0.0000  0.0036 -0.0001 -0.0004  0.0002
    21. (1.95582) LP ( 2)Cl   2           s(  0.00%)p 1.00( 99.94%)d 0.00(  0.05%)
                                                  f 0.00(  0.01%)
                                            0.0000  0.0000  0.0000  0.0000  0.0000
                                            0.0000  0.0000  0.0000  0.0000  0.0000
                                            0.0000  0.0000  0.0000  0.0000  0.0000
                                            0.0000 -0.0002  0.9996  0.0153  0.0052
                                           -0.0024  0.0000  0.0000  0.0000  0.0089
                                            0.0185  0.0080  0.0031  0.0025  0.0005
                                            0.0000  0.0000  0.0000  0.0000  0.0000
                                            0.0000 -0.0055  0.0012  0.0000  0.0000
                                            0.0000  0.0000  0.0065 -0.0010  0.0008
                                           -0.0007  0.0000  0.0000  0.0000  0.0000
    22. (1.95438) LP ( 3)Cl   2           s(  0.14%)p99.99( 99.81%)d 0.28(  0.04%)
                                                  f 0.06(  0.01%)
                                            0.0000 -0.0000  0.0374  0.0055  0.0038
                                           -0.0020  0.0000 -0.0023 -0.0001 -0.0002
                                           -0.0006 -0.0002  0.9989  0.0133  0.0015
                                            0.0002  0.0000  0.0000  0.0000  0.0000
                                            0.0000  0.0004  0.0163  0.0077  0.0000
                                            0.0000  0.0000  0.0000  0.0000  0.0000
                                           -0.0069 -0.0044 -0.0027 -0.0005 -0.0025
                                           -0.0002  0.0000  0.0000  0.0001  0.0003
                                           -0.0024  0.0003  0.0000  0.0000  0.0000
                                            0.0000 -0.0012  0.0002  0.0085 -0.0015
    23. (1.97762) LP ( 1)Br   3           s( 89.93%)p 0.11( 10.07%)d 0.00(  0.00%)
                                            0.0003  0.9483 -0.0005  0.0014  0.0007
                                           -0.0001 -0.0000 -0.0817  0.0003 -0.0002
                                           -0.0001 -0.0002 -0.3066  0.0023 -0.0003
                                           -0.0001  0.0000  0.0000  0.0000  0.0000
                                            0.0000 -0.0000 -0.0009  0.0001 -0.0001
                                            0.0000  0.0000  0.0000  0.0000  0.0000
                                            0.0000  0.0000  0.0000  0.0001  0.0016
                                            0.0000  0.0001  0.0000  0.0013 -0.0001
                                            0.0003  0.0000  0.0000  0.0000  0.0000
                                            0.0001  0.0000  0.0000  0.0000  0.0000
                                            0.0000  0.0001  0.0000  0.0000 -0.0000
    24. (1.95427) LP ( 2)Br   3           s(  0.00%)p 1.00( 99.99%)d 0.00(  0.01%)
                                                  f 0.00(  0.00%)
                                            0.0000  0.0000  0.0000  0.0000  0.0000
                                            0.0000  0.0000  0.0000  0.0000  0.0000
                                            0.0000  0.0000  0.0000  0.0000  0.0000
                                            0.0000  0.0003  0.9999  0.0042  0.0021
                                           -0.0007  0.0000  0.0000  0.0000  0.0000
                                           -0.0000  0.0020 -0.0001 -0.0008 -0.0000
                                            0.0095 -0.0015 -0.0024  0.0000  0.0000
                                            0.0000  0.0000  0.0000  0.0000  0.0000
                                            0.0000 -0.0027 -0.0014  0.0000  0.0000
                                            0.0000  0.0000 -0.0030 -0.0014  0.0016
                                            0.0008  0.0000  0.0000  0.0000  0.0000
    25. (1.95390) LP ( 3)Br   3           s(  0.01%)p 1.00( 99.98%)d 0.00(  0.01%)
                                                  f 0.00(  0.00%)
                                           -0.0000  0.0079  0.0005 -0.0002 -0.0007
                                           -0.0001  0.0003  0.9720  0.0040  0.0019
                                           -0.0008 -0.0001 -0.2345 -0.0010 -0.0006
                                            0.0003  0.0000  0.0000  0.0000  0.0000
                                            0.0000 -0.0000  0.0096 -0.0012 -0.0023
                                            0.0000  0.0000  0.0000  0.0000  0.0000
                                            0.0000  0.0000  0.0000 -0.0000  0.0036
                                            0.0001 -0.0020  0.0000  0.0002 -0.0001
                                            0.0002  0.0000  0.0000 -0.0011 -0.0005
                                            0.0002  0.0001  0.0000  0.0000  0.0000
                                            0.0000 -0.0032 -0.0014  0.0025  0.0011
    26. (1.78573) LP ( 4)Br   3           s( 10.06%)p 8.93( 89.84%)d 0.01(  0.09%)
                                                  f 0.00(  0.01%)
                                           -0.0000  0.3171  0.0015 -0.0046 -0.0022
                                            0.0003  0.0000  0.2198 -0.0016 -0.0007
                                            0.0002  0.0000  0.9220 -0.0087 -0.0048
                                            0.0018  0.0000  0.0000  0.0000  0.0000
                                            0.0000 -0.0000  0.0111 -0.0023 -0.0001
                                            0.0000  0.0000  0.0000  0.0000  0.0000
                                            0.0000  0.0000  0.0000  0.0000 -0.0220
                                            0.0043  0.0016  0.0000 -0.0153  0.0033
                                           -0.0003  0.0000  0.0000 -0.0015 -0.0008
                                           -0.0062 -0.0030  0.0000  0.0000  0.0000
                                            0.0000 -0.0050 -0.0021 -0.0060 -0.0022
    27. (0.02059) RY*( 1) O   1           s(  0.00%)p 1.00( 98.85%)d 0.01(  1.10%)
                                                  f 0.00(  0.05%)
                                            0.0000  0.0000  0.0000  0.0000  0.0000
                                            0.0000  0.0000  0.0000  0.0000  0.0000
                                            0.0000  0.0000  0.0000 -0.0212  0.9933
                                           -0.0341 -0.0127  0.0000  0.0000  0.0000
                                            0.0782  0.0272  0.0085 -0.0625 -0.0002
                                            0.0133  0.0000  0.0000  0.0000  0.0000
                                            0.0000  0.0000 -0.0131  0.0110  0.0000
                                            0.0000  0.0000  0.0000  0.0104 -0.0094
                                           -0.0019  0.0011  0.0000  0.0000  0.0000
                                            0.0000
    28. (0.01693) RY*( 2) O   1           s( 29.20%)p 2.36( 68.82%)d 0.06(  1.81%)
                                                  f 0.01(  0.17%)
                                           -0.0000  0.0052  0.5397 -0.0257 -0.0103
                                            0.0350 -0.3374 -0.0096  0.0241 -0.0195
                                            0.7537 -0.0027 -0.0625  0.0000  0.0000
                                            0.0000  0.0000  0.1181  0.0286  0.0109
                                            0.0000  0.0000  0.0000  0.0000  0.0000
                                            0.0000  0.0251  0.0073  0.0075  0.0491
                                            0.0052 -0.0028  0.0000  0.0000 -0.0035
                                            0.0003  0.0028  0.0028  0.0000  0.0000
                                            0.0000  0.0000  0.0305 -0.0134  0.0213
                                           -0.0109
[...]
                                           -0.1177  0.1522 -0.0586
   158. (0.00034) RY*( 8) H   4           s( 22.62%)p 2.14( 48.53%)d 1.28( 28.85%)
                                           -0.0041  0.0129  0.2872  0.3789 -0.0824
                                            0.4515 -0.1700  0.0625 -0.2442  0.4268
                                           -0.0000 -0.0000 -0.0000 -0.4704  0.1333
                                           -0.0000 -0.0000 -0.0000 -0.0000  0.0270
                                           -0.1297  0.1439 -0.1060
   159. (0.00030) RY*( 9) H   4           s(  0.00%)p 1.00( 91.66%)d 0.09(  8.34%)
                                            0.0000  0.0000  0.0000  0.0000  0.0000
                                            0.0000  0.0000  0.0000  0.0000  0.0000
                                           -0.1073  0.9395  0.1499  0.0000  0.0000
                                           -0.0738  0.1056  0.1510  0.2098  0.0000
                                            0.0000  0.0000  0.0000
   160. (0.00027) RY*(10) H   4           s(  1.06%)p14.32( 15.13%)d79.33( 83.81%)
                                            0.0092  0.0369 -0.0091  0.0951 -0.0776
                                           -0.0119 -0.1428  0.0171 -0.0481 -0.3495
                                            0.0000  0.0000  0.0000 -0.3785  0.0056
                                            0.0000  0.0000  0.0000  0.0000  0.5523
                                            0.0656 -0.5718  0.2420
   161. (0.00026) RY*(11) H   4           s(  0.00%)p 1.00(  0.95%)d99.99( 99.05%)
                                            0.0000  0.0000  0.0000  0.0000  0.0000
                                            0.0000  0.0000  0.0000  0.0000  0.0000
                                           -0.0107  0.0892  0.0376  0.0000  0.0000
                                            0.9641 -0.2263 -0.0694  0.0711  0.0000
                                            0.0000  0.0000  0.0000
   162. (0.00022) RY*(12) H   4           s( 15.04%)p 1.24( 18.71%)d 4.40( 66.25%)
                                            0.0132  0.0155  0.0470  0.3844  0.0801
                                            0.0580  0.1070  0.0046 -0.2003 -0.3546
                                            0.0000  0.0000  0.0000  0.2579 -0.0443
                                            0.0000  0.0000  0.0000  0.0000  0.4746
                                            0.1963  0.5745  0.0127
   163. (0.00021) RY*(13) H   4           s(  8.73%)p 2.81( 24.52%)d 7.65( 66.75%)
                                           -0.0091 -0.0393  0.1638  0.2425  0.0623
                                           -0.0378  0.2434  0.0046  0.1171  0.4086
                                            0.0000  0.0000  0.0000  0.5291  0.2233
                                            0.0000  0.0000  0.0000  0.0000  0.3622
                                           -0.2094 -0.3764 -0.1449
   164. (0.00014) RY*(14) H   4           s( 69.49%)p 0.25( 17.49%)d 0.19( 13.02%)
                                           -0.0057 -0.0805 -0.4855  0.6728 -0.0020
                                            0.1671 -0.0782  0.0205  0.3564 -0.1159
                                            0.0000  0.0000  0.0000  0.0481 -0.1499
                                            0.0000  0.0000  0.0000  0.0000 -0.2908
                                           -0.0282 -0.1411  0.0101
   165. (0.00011) RY*(15) H   4           s(  0.00%)p 1.00( 31.77%)d 2.15( 68.23%)
                                            0.0000  0.0000  0.0000  0.0000  0.0000
                                            0.0000  0.0000  0.0000  0.0000  0.0000
                                           -0.0346 -0.1840  0.5317  0.0000  0.0000
                                           -0.0471  0.1670 -0.4647  0.6605  0.0000
                                            0.0000  0.0000  0.0000
   166. (0.00008) RY*(16) H   4           s( 20.45%)p 1.52( 31.07%)d 2.37( 48.48%)
   167. (0.00009) RY*(17) H   4           s(  4.15%)p 8.02( 33.31%)d15.06( 62.54%)
   168. (0.00006) RY*(18) H   4           s(  0.00%)p 1.00( 39.24%)d 1.55( 60.76%)
   169. (0.00004) RY*(19) H   4           s( 11.53%)p 4.42( 50.95%)d 3.25( 37.52%)
   170. (0.00004) RY*(20) H   4           s(  4.31%)p 3.53( 15.21%)d18.69( 80.48%)
   171. (0.00005) RY*(21) H   4           s(  0.00%)p 1.00(  0.04%)d99.99( 99.96%)
   172. (0.00004) RY*(22) H   4           s(  3.73%)p 0.64(  2.37%)d25.17( 93.90%)
   173. (0.05878) BD*( 1) O   1 -Cl   2  
                ( 41.58%)   0.6448* O   1 s( 10.43%)p 8.54( 89.04%)d 0.05(  0.51%)
                                                  f 0.00(  0.02%)
                                           -0.0003 -0.3191  0.0467  0.0159  0.0006
                                           -0.9417  0.0363  0.0105  0.0132  0.0377
                                            0.0263  0.0048 -0.0005 -0.0000 -0.0000
                                           -0.0000 -0.0000  0.0194  0.0016 -0.0020
                                           -0.0000 -0.0000 -0.0000 -0.0000 -0.0000
                                           -0.0000 -0.0543 -0.0043 -0.0025  0.0418
                                            0.0034 -0.0004 -0.0000 -0.0000  0.0111
                                           -0.0012  0.0001 -0.0002 -0.0000 -0.0000
                                           -0.0000 -0.0000 -0.0066 -0.0010  0.0007
                                           -0.0017
                ( 58.42%)  -0.7643*Cl   2 s(  8.80%)p10.22( 89.95%)d 0.13(  1.13%)
                                                  f 0.01(  0.12%)
                                            0.0000 -0.0005 -0.2912  0.0561  0.0101
                                            0.0026  0.0004  0.9460 -0.0651 -0.0139
                                            0.0043  0.0000  0.0122  0.0019 -0.0029
                                            0.0011 -0.0000 -0.0000 -0.0000 -0.0000
                                           -0.0000 -0.0131  0.0001 -0.0005 -0.0000
                                           -0.0000 -0.0000 -0.0000 -0.0000 -0.0000
                                           -0.0885  0.0112  0.0009  0.0562 -0.0066
                                           -0.0014 -0.0000 -0.0000 -0.0215  0.0031
                                           -0.0006  0.0002 -0.0000 -0.0000 -0.0000
                                           -0.0000  0.0262 -0.0029  0.0018 -0.0003
   174. (0.19069) BD*( 1) O   1 - H   4  
                ( 18.76%)   0.4331* O   1 s( 25.84%)p 2.85( 73.73%)d 0.02(  0.42%)
                                                  f 0.00(  0.01%)
                                            0.0002  0.5083 -0.0027 -0.0082  0.0024
                                           -0.2037  0.0146  0.0028  0.0044 -0.8340
                                           -0.0024  0.0050  0.0044 -0.0000 -0.0000
                                           -0.0000 -0.0000 -0.0040 -0.0025 -0.0005
                                           -0.0000 -0.0000 -0.0000 -0.0000 -0.0000
                                           -0.0000 -0.0551 -0.0064 -0.0004 -0.0327
                                           -0.0018  0.0039 -0.0000 -0.0000  0.0018
                                            0.0005  0.0091 -0.0003 -0.0000 -0.0000
                                           -0.0000 -0.0000  0.0023  0.0019 -0.0002
                                            0.0010
                ( 81.24%)  -0.9013* H   4 s( 99.78%)p 0.00(  0.21%)d 0.00(  0.01%)
                                            0.9979  0.0449  0.0102 -0.0011  0.0089
                                            0.0124 -0.0018 -0.0182  0.0370  0.0127
                                           -0.0000 -0.0000 -0.0000  0.0003  0.0001
                                           -0.0000 -0.0000 -0.0000 -0.0000 -0.0043
                                           -0.0031 -0.0008 -0.0054


 NHO Directionality and "Bond Bending" (deviations from line of nuclear centers)

         [Thresholds for printing:  angular deviation  >  1.0 degree]
                                    hybrid p-character > 25.0%
                                    orbital occupancy  >  0.10e

                                Line of Centers        Hybrid 1              Hybrid 2
                                ---------------  -------------------   ------------------
                NBO               Theta   Phi    Theta   Phi    Dev    Theta   Phi    Dev
 ========================================================================================
     1. BD (   1) O   1 -Cl   2    90.0    0.0    90.0  355.6   4.4      --     --    --
     2. BD (   1) O   1 - H   4    90.0  256.5    90.0  257.6   1.0      --     --    --
    18. LP (   1) O   1             --     --     90.0  114.5   --       --     --    --
    19. LP (   2) O   1             --     --      0.0    0.0   --       --     --    --
    21. LP (   2)Cl   2             --     --      0.0    0.0   --       --     --    --
    22. LP (   3)Cl   2             --     --     90.0   90.2   --       --     --    --
    24. LP (   2)Br   3             --     --      0.0    0.0   --       --     --    --
    25. LP (   3)Br   3             --     --     90.0  346.4   --       --     --    --
    26. LP (   4)Br   3             --     --     90.0   76.5   --       --     --    --
   174. BD*(   1) O   1 - H   4    90.0  256.5    90.0  257.6   1.0      --     --    --


 Natural Bond Orbitals (Summary):

           NBO                  Occupancy  
 -----------------------------------------------
 Molecular unit  1  (HOCl)
     1. BD (   1) O   1 -Cl   2          1.93840
     2. BD (   1) O   1 - H   4          1.96001
     3. CR (   1) O   1                  1.99974
     4. CR (   1)Cl   2                  2.00000
     5. CR (   2)Cl   2                  1.99977
     6. CR (   3)Cl   2                  1.99995
     7. CR (   4)Cl   2                  2.00003
     8. CR (   5)Cl   2                  2.00003
    18. LP (   1) O   1                  1.96610
    19. LP (   2) O   1                  1.95125
    20. LP (   1)Cl   2                  1.97353
    21. LP (   2)Cl   2                  1.95582
    22. LP (   3)Cl   2                  1.95438
    27. RY*(   1) O   1                  0.02059
    28. RY*(   2) O   1                  0.01693
    29. RY*(   3) O   1                  0.00834
    30. RY*(   4) O   1                  0.00706
    31. RY*(   5) O   1                  0.00656
    32. RY*(   6) O   1                  0.00625
    33. RY*(   7) O   1                  0.00575
    34. RY*(   8) O   1                  0.00398
    35. RY*(   9) O   1                  0.00244
    36. RY*(  10) O   1                  0.00078
    37. RY*(  11) O   1                  0.00065
    38. RY*(  12) O   1                  0.00064
    39. RY*(  13) O   1                  0.00060
    40. RY*(  14) O   1                  0.00052
    41. RY*(  15) O   1                  0.00052
    42. RY*(  16) O   1                  0.00048
    43. RY*(  17) O   1                  0.00049
    44. RY*(  18) O   1                  0.00048
    45. RY*(  19) O   1                  0.00046
    46. RY*(  20) O   1                  0.00045
    47. RY*(  21) O   1                  0.00046
    48. RY*(  22) O   1                  0.00043
    49. RY*(  23) O   1                  0.00038
    50. RY*(  24) O   1                  0.00032
    51. RY*(  25) O   1                  0.00026
    52. RY*(  26) O   1                  0.00019
    53. RY*(  27) O   1                  0.00013
    54. RY*(  28) O   1                  0.00013
    55. RY*(  29) O   1                  0.00013
    56. RY*(  30) O   1                  0.00009
    57. RY*(  31) O   1                  0.00008
    58. RY*(  32) O   1                  0.00009
    59. RY*(  33) O   1                  0.00008
    60. RY*(  34) O   1                  0.00008
    61. RY*(  35) O   1                  0.00007
    62. RY*(  36) O   1                  0.00007
    63. RY*(  37) O   1                  0.00006
    64. RY*(  38) O   1                  0.00006
    65. RY*(  39) O   1                  0.00004
    66. RY*(  40) O   1                  0.00003
    67. RY*(  41) O   1                 -0.00005
    68. RY*(   1)Cl   2                  0.02312
    69. RY*(   2)Cl   2                  0.01820
    70. RY*(   3)Cl   2                  0.01683
    71. RY*(   4)Cl   2                  0.01684
    72. RY*(   5)Cl   2                  0.01191
    73. RY*(   6)Cl   2                  0.00943
    74. RY*(   7)Cl   2                  0.00918
    75. RY*(   8)Cl   2                  0.00642
    76. RY*(   9)Cl   2                  0.00174
    77. RY*(  10)Cl   2                  0.00127
    78. RY*(  11)Cl   2                  0.00127
    79. RY*(  12)Cl   2                  0.00120
    80. RY*(  13)Cl   2                  0.00120
    81. RY*(  14)Cl   2                  0.00117
    82. RY*(  15)Cl   2                  0.00112
    83. RY*(  16)Cl   2                  0.00096
    84. RY*(  17)Cl   2                  0.00078
    85. RY*(  18)Cl   2                  0.00077
    86. RY*(  19)Cl   2                  0.00065
    87. RY*(  20)Cl   2                  0.00058
    88. RY*(  21)Cl   2                  0.00045
    89. RY*(  22)Cl   2                  0.00037
    90. RY*(  23)Cl   2                  0.00036
    91. RY*(  24)Cl   2                  0.00031
    92. RY*(  25)Cl   2                  0.00019
    93. RY*(  26)Cl   2                  0.00016
    94. RY*(  27)Cl   2                  0.00016
    95. RY*(  28)Cl   2                  0.00013
    96. RY*(  29)Cl   2                  0.00013
    97. RY*(  30)Cl   2                  0.00013
    98. RY*(  31)Cl   2                  0.00011
    99. RY*(  32)Cl   2                  0.00009
   100. RY*(  33)Cl   2                  0.00010
   101. RY*(  34)Cl   2                  0.00010
   102. RY*(  35)Cl   2                  0.00010
   103. RY*(  36)Cl   2                  0.00009
   104. RY*(  37)Cl   2                  0.00008
   105. RY*(  38)Cl   2                  0.00004
   106. RY*(  39)Cl   2                  0.00004
   107. RY*(  40)Cl   2                  0.00003
   108. RY*(  41)Cl   2                 -0.00000
   151. RY*(   1) H   4                  0.00978
   152. RY*(   2) H   4                  0.00574
   153. RY*(   3) H   4                  0.00488
   154. RY*(   4) H   4                  0.00403
   155. RY*(   5) H   4                  0.00124
   156. RY*(   6) H   4                  0.00061
   157. RY*(   7) H   4                  0.00043
   158. RY*(   8) H   4                  0.00034
   159. RY*(   9) H   4                  0.00030
   160. RY*(  10) H   4                  0.00027
   161. RY*(  11) H   4                  0.00026
   162. RY*(  12) H   4                  0.00022
   163. RY*(  13) H   4                  0.00021
   164. RY*(  14) H   4                  0.00014
   165. RY*(  15) H   4                  0.00011
   166. RY*(  16) H   4                  0.00008
   167. RY*(  17) H   4                  0.00009
   168. RY*(  18) H   4                  0.00006
   169. RY*(  19) H   4                  0.00004
   170. RY*(  20) H   4                  0.00004
   171. RY*(  21) H   4                  0.00005
   172. RY*(  22) H   4                  0.00004
   173. BD*(   1) O   1 -Cl   2          0.05878
   174. BD*(   1) O   1 - H   4          0.19069
       -------------------------------
              Total Lewis   25.69901  ( 98.1165%)
        Valence non-Lewis    0.24947  (  0.9525%)
        Rydberg non-Lewis    0.24387  (  0.9311%)
       -------------------------------
            Total unit  1   26.19235  (100.0000%)
           Charge unit  1   -0.19235

 Molecular unit  2  (Br)
     9. CR (   1)Br   3                  1.99973
    10. CR (   2)Br   3                  1.99998
    11. CR (   3)Br   3                  1.99988
    12. CR (   4)Br   3                  1.99999
    13. CR (   5)Br   3                  1.99766
    14. CR (   6)Br   3                  1.99770
    15. CR (   7)Br   3                  1.99768
    16. CR (   8)Br   3                  1.99762
    17. CR (   9)Br   3                  1.99767
    23. LP (   1)Br   3                  1.97762
    24. LP (   2)Br   3                  1.95427
    25. LP (   3)Br   3                  1.95390
    26. LP (   4)Br   3                  1.78573
   109. RY*(   1)Br   3                  0.01842
   110. RY*(   2)Br   3                  0.01836
   111. RY*(   3)Br   3                  0.01834
   112. RY*(   4)Br   3                  0.01831
   113. RY*(   5)Br   3                  0.01753
   114. RY*(   6)Br   3                  0.01100
   115. RY*(   7)Br   3                  0.01093
   116. RY*(   8)Br   3                  0.00870
   117. RY*(   9)Br   3                  0.00195
   118. RY*(  10)Br   3                  0.00175
   119. RY*(  11)Br   3                  0.00175
   120. RY*(  12)Br   3                  0.00173
   121. RY*(  13)Br   3                  0.00172
   122. RY*(  14)Br   3                  0.00171
   123. RY*(  15)Br   3                  0.00171
   124. RY*(  16)Br   3                  0.00171
   125. RY*(  17)Br   3                  0.00171
   126. RY*(  18)Br   3                  0.00171
   127. RY*(  19)Br   3                  0.00133
   128. RY*(  20)Br   3                  0.00128
   129. RY*(  21)Br   3                  0.00114
   130. RY*(  22)Br   3                  0.00076
   131. RY*(  23)Br   3                  0.00075
   132. RY*(  24)Br   3                  0.00066
   133. RY*(  25)Br   3                  0.00034
   134. RY*(  26)Br   3                  0.00029
   135. RY*(  27)Br   3                  0.00028
   136. RY*(  28)Br   3                  0.00024
   137. RY*(  29)Br   3                  0.00024
   138. RY*(  30)Br   3                  0.00024
   139. RY*(  31)Br   3                  0.00025
   140. RY*(  32)Br   3                  0.00024
   141. RY*(  33)Br   3                  0.00021
   142. RY*(  34)Br   3                  0.00019
   143. RY*(  35)Br   3                  0.00015
   144. RY*(  36)Br   3                  0.00014
   145. RY*(  37)Br   3                  0.00013
   146. RY*(  38)Br   3                  0.00011
   147. RY*(  39)Br   3                  0.00008
   148. RY*(  40)Br   3                  0.00009
   149. RY*(  41)Br   3                  0.00005
   150. RY*(  42)Br   3                  0.00000
       -------------------------------
              Total Lewis   35.65944  ( 99.5861%)
        Valence non-Lewis    0.00000  (  0.0000%)
        Rydberg non-Lewis    0.14822  (  0.4139%)
       -------------------------------
            Total unit  2   35.80765  (100.0000%)
           Charge unit  2   -0.80765
 Leave Link  607 at Tue Oct 19 14:35:19 2021, MaxMem= 16106127360 cpu:              79.5 elap:               2.9
 (Enter /sw/contrib/gaussian/g16/B01/g16/l9999.exe)
 1\1\GINC-N2207\SP\RMP2-FC\Gen\Br1Cl1H1O1(1-)\CGAVINH\19-Oct-2021\0\\#p
  pop=NBO SP NoSymm mp2/gen Pseudo=read density=current\\title\\-1,1\O\
 X,1,10.\Cl,1,1.68446532,2,90.\Br,1,3.06793175,2,90.,3,103.45029768,0\H
 ,1,1.1,2,90.,3,103.45029768,0\\Version=ES64L-G16RevB.01\HF=-950.515178
 9\MP2=-951.2234964\RMSD=6.642e-09\Dipole=0.9694707,1.0090353,0.\Quadru
 pole=6.5755116,-15.025639,8.4501274,-5.9096456,0.,0.\PG=CS [SG(Br1Cl1H
 1O1)]\\@


 THEREFORE SHALL EVIL COME UPON THEE...
 THOU SHALT NOT KNOW FROM WHENCE IT RISETH...
 AND MISCHIEF SHALL FALL UPON THEE...
 THOU SHALT NOT BE ABLE TO PUT IT OFF...
 AND DESOLATION SHALL COME UPON THEE SUDDENLY...
 WHICH THOU SHALT NOT KNOW...

                                         ISAIAH 47.11
 Job cpu time:       0 days  0 hours  5 minutes 50.3 seconds.
 Elapsed time:       0 days  0 hours  0 minutes 18.2 seconds.
 File lengths (MBytes):  RWF=     15 Int=      0 D2E=      0 Chk=      8 Scr=      1
 Normal termination of Gaussian 16 at Tue Oct 19 14:35:19 2021.
