 Entering Gaussian System, Link 0=g16
 Input=brhocl_pp_rOH_075_sp.gjf
 Output=brhocl_pp_rOH_075_sp.log
 Initial command:
 /sw/contrib/gaussian/g16/B01/g16/l1.exe "/scr/Gau-1394.inp" -scrdir="/scr/"
 Entering Link 1 = /sw/contrib/gaussian/g16/B01/g16/l1.exe PID=      1395.
  
 Copyright (c) 1988-2017, Gaussian, Inc.  All Rights Reserved.
  
 This is part of the Gaussian(R) 16 program.  It is based on
 the Gaussian(R) 09 system (copyright 2009, Gaussian, Inc.),
 the Gaussian(R) 03 system (copyright 2003, Gaussian, Inc.),
 the Gaussian(R) 98 system (copyright 1998, Gaussian, Inc.),
 the Gaussian(R) 94 system (copyright 1995, Gaussian, Inc.),
 the Gaussian 92(TM) system (copyright 1992, Gaussian, Inc.),
 the Gaussian 90(TM) system (copyright 1990, Gaussian, Inc.),
 the Gaussian 88(TM) system (copyright 1988, Gaussian, Inc.),
 the Gaussian 86(TM) system (copyright 1986, Carnegie Mellon
 University), and the Gaussian 82(TM) system (copyright 1983,
 Carnegie Mellon University). Gaussian is a federally registered
 trademark of Gaussian, Inc.
  
 This software contains proprietary and confidential information,
 including trade secrets, belonging to Gaussian, Inc.
  
 This software is provided under written license and may be
 used, copied, transmitted, or stored only in accord with that
 written license.
  
 The following legend is applicable only to US Government
 contracts under FAR:
  
                    RESTRICTED RIGHTS LEGEND
  
 Use, reproduction and disclosure by the US Government is
 subject to restrictions as set forth in subparagraphs (a)
 and (c) of the Commercial Computer Software - Restricted
 Rights clause in FAR 52.227-19.
  
 Gaussian, Inc.
 340 Quinnipiac St., Bldg. 40, Wallingford CT 06492
  
  
 ---------------------------------------------------------------
 Warning -- This program may not be used in any manner that
 competes with the business of Gaussian, Inc. or will provide
 assistance to any competitor of Gaussian, Inc.  The licensee
 of this program is prohibited from giving any competitor of
 Gaussian, Inc. access to this program.  By using this program,
 the user acknowledges that Gaussian, Inc. is engaged in the
 business of creating and licensing software in the field of
 computational chemistry and represents and warrants to the
 licensee that it is not a competitor of Gaussian, Inc. and that
 it will not use this program in any manner prohibited above.
 ---------------------------------------------------------------
  

 Cite this work as:
 Gaussian 16, Revision B.01,
 M. J. Frisch, G. W. Trucks, H. B. Schlegel, G. E. Scuseria, 
 M. A. Robb, J. R. Cheeseman, G. Scalmani, V. Barone, 
 G. A. Petersson, H. Nakatsuji, X. Li, M. Caricato, A. V. Marenich, 
 J. Bloino, B. G. Janesko, R. Gomperts, B. Mennucci, H. P. Hratchian, 
 J. V. Ortiz, A. F. Izmaylov, J. L. Sonnenberg, D. Williams-Young, 
 F. Ding, F. Lipparini, F. Egidi, J. Goings, B. Peng, A. Petrone, 
 T. Henderson, D. Ranasinghe, V. G. Zakrzewski, J. Gao, N. Rega, 
 G. Zheng, W. Liang, M. Hada, M. Ehara, K. Toyota, R. Fukuda, 
 J. Hasegawa, M. Ishida, T. Nakajima, Y. Honda, O. Kitao, H. Nakai, 
 T. Vreven, K. Throssell, J. A. Montgomery, Jr., J. E. Peralta, 
 F. Ogliaro, M. J. Bearpark, J. J. Heyd, E. N. Brothers, K. N. Kudin, 
 V. N. Staroverov, T. A. Keith, R. Kobayashi, J. Normand, 
 K. Raghavachari, A. P. Rendell, J. C. Burant, S. S. Iyengar, 
 J. Tomasi, M. Cossi, J. M. Millam, M. Klene, C. Adamo, R. Cammi, 
 J. W. Ochterski, R. L. Martin, K. Morokuma, O. Farkas, 
 J. B. Foresman, and D. J. Fox, Gaussian, Inc., Wallingford CT, 2016.
 
 ******************************************
 Gaussian 16:  ES64L-G16RevB.01 20-Dec-2017
                19-Oct-2021 
 ******************************************
 %nproc=28
 Will use up to   28 processors via shared memory.
 %mem=120GB
 %chk=/gscratch/ilahie/mccoygrp/coire_hocl/rOH_s_oop_0/brhocl_pp/brhocl_pp_rOH_07
 5_sp.chk
 --------------------------------------------------------
 #p pop=NBO SP NoSymm mp2/gen Pseudo=read density=current
 --------------------------------------------------------
 1/30=1,38=1,172=1/1;
 2/12=2,15=1,17=6,18=5,40=1/2;
 3/5=7,11=9,16=1,17=8,25=1,30=1,71=1/1,2,3;
 4//1;
 5/5=2,38=5/2;
 8/6=4,10=1/1;
 9/15=1,16=-3/6;
 10/5=1,13=10,31=1/2;
 6/7=2,8=2,9=2,10=2,22=-1,40=1/1,7;
 99/5=1,9=1/99;
 Leave Link    1 at Tue Oct 19 14:32:48 2021, MaxMem= 16106127360 cpu:               2.9 elap:               0.1
 (Enter /sw/contrib/gaussian/g16/B01/g16/l101.exe)
 -----
 title
 -----
 Symbolic Z-matrix:
 Charge = -1 Multiplicity = 1
 O
 X                    1     10. 
 Cl                   1    r1       2     90. 
 Br                   1    r2       2     90.      3    a1       0
 H                    1    r3       2    oop      3    a1       0
       Variables:
  r1                    1.68447                  
  r2                    3.06793                  
  r3                    0.75                     
  a1                  103.4503                   
  OOP                  90.                       
 
 ITRead=  0  0  0  0
 MicOpt= -1 -1 -1 -1
 NAtoms=      4 NQM=        4 NQMF=       0 NMMI=      0 NMMIF=      0
                NMic=       0 NMicF=      0.
                    Isotopes and Nuclear Properties:
 (Nuclear quadrupole moments (NQMom) in fm**2, nuclear magnetic moments (NMagM)
  in nuclear magnetons)

  Atom         1           2           3           4
 IAtWgt=          16          35          79           1
 AtmWgt=  15.9949146  34.9688527  78.9183361   1.0078250
 NucSpn=           0           3           3           1
 AtZEff=  -0.0000000  -0.0000000  -0.0000000  -0.0000000
 NQMom=    0.0000000  -8.1650000  31.3000000   0.0000000
 NMagM=    0.0000000   0.8218740   2.1063990   2.7928460
 AtZNuc=   8.0000000  17.0000000  35.0000000   1.0000000
 Leave Link  101 at Tue Oct 19 14:32:48 2021, MaxMem= 16106127360 cpu:               2.7 elap:               0.1
 (Enter /sw/contrib/gaussian/g16/B01/g16/l202.exe)
                          Input orientation:                          
 ---------------------------------------------------------------------
 Center     Atomic      Atomic             Coordinates (Angstroms)
 Number     Number       Type             X           Y           Z
 ---------------------------------------------------------------------
      1          8           0        0.000000    0.000000    0.000000
      2         17           0        1.684465    0.000000    0.000000
      3         35           0       -0.713606   -2.983785    0.000000
      4          1           0       -0.174451   -0.729429    0.000000
 ---------------------------------------------------------------------
                    Distance matrix (angstroms):
                    1          2          3          4
     1  O    0.000000
     2  Cl   1.684465   0.000000
     3  Br   3.067932   3.828018   0.000000
     4  H    0.750000   1.996907   2.317932   0.000000
 Symmetry turned off by external request.
 Stoichiometry    BrClHO(1-)
 Framework group  CS[SG(BrClHO)]
 Deg. of freedom     5
 Full point group                 CS      NOp   2
 Rotational constants (GHZ):          22.5358166           1.2832194           1.2140877
 Leave Link  202 at Tue Oct 19 14:32:48 2021, MaxMem= 16106127360 cpu:               2.9 elap:               0.1
 (Enter /sw/contrib/gaussian/g16/B01/g16/l301.exe)
 General basis read from cards:  (5D, 7F)
 Centers:       2      1      4
 aug-cc-pVTZ
 ****
 Centers:       3
 S 10 1.00
     Exponent=  9.6593900000D+03 Coefficients=  3.7100000000D-04
     Exponent=  1.4559600000D+03 Coefficients=  2.5710000000D-03
     Exponent=  3.2591400000D+02 Coefficients=  8.4850000000D-03
     Exponent=  4.6565700000D+01 Coefficients=  7.8222000000D-02
     Exponent=  1.8246900000D+01 Coefficients= -3.9714900000D-01
     Exponent=  3.8020100000D+00 Coefficients=  6.8586400000D-01
     Exponent=  1.7863200000D+00 Coefficients=  4.8681900000D-01
     Exponent=  6.0271400000D-01 Coefficients=  3.4913000000D-02
     Exponent=  2.8401400000D-01 Coefficients= -6.5730000000D-03
     Exponent=  1.2027100000D-01 Coefficients=  1.6420000000D-03
 S 10 1.00
     Exponent=  9.6593900000D+03 Coefficients= -1.5200000000D-04
     Exponent=  1.4559600000D+03 Coefficients= -1.0080000000D-03
     Exponent=  3.2591400000D+02 Coefficients= -3.6090000000D-03
     Exponent=  4.6565700000D+01 Coefficients= -2.7872000000D-02
     Exponent=  1.8246900000D+01 Coefficients=  1.5131700000D-01
     Exponent=  3.8020100000D+00 Coefficients= -3.5149700000D-01
     Exponent=  1.7863200000D+00 Coefficients= -4.1070300000D-01
     Exponent=  6.0271400000D-01 Coefficients=  3.4731600000D-01
     Exponent=  2.8401400000D-01 Coefficients=  6.7549100000D-01
     Exponent=  1.2027100000D-01 Coefficients=  2.4400800000D-01
 S 1 1.00
     Exponent=  6.0271400000D-01 Coefficients=  1.0000000000D+00
 S 1 1.00
     Exponent=  2.8401400000D-01 Coefficients=  1.0000000000D+00
 S 1 1.00
     Exponent=  1.2027100000D-01 Coefficients=  1.0000000000D+00
 S 1 1.00
     Exponent=  4.4500000000D-02 Coefficients=  1.0000000000D+00
 P 9 1.00
     Exponent=  4.9218700000D+02 Coefficients=  4.7200000000D-04
     Exponent=  9.2364200000D+01 Coefficients=  5.4940000000D-03
     Exponent=  2.7071800000D+01 Coefficients= -8.8030000000D-02
     Exponent=  7.2653900000D+00 Coefficients=  3.4348500000D-01
     Exponent=  3.4848100000D+00 Coefficients=  5.1020800000D-01
     Exponent=  1.6404800000D+00 Coefficients=  2.4863100000D-01
     Exponent=  6.4857000000D-01 Coefficients=  2.2201000000D-02
     Exponent=  2.5640700000D-01 Coefficients= -4.1900000000D-04
     Exponent=  9.5304000000D-02 Coefficients=  6.5600000000D-04
 P 9 1.00
     Exponent=  4.9218700000D+02 Coefficients= -1.5800000000D-04
     Exponent=  9.2364200000D+01 Coefficients= -1.3440000000D-03
     Exponent=  2.7071800000D+01 Coefficients=  2.4616000000D-02
     Exponent=  7.2653900000D+00 Coefficients= -1.1253200000D-01
     Exponent=  3.4848100000D+00 Coefficients= -1.7977500000D-01
     Exponent=  1.6404800000D+00 Coefficients= -7.3661000000D-02
     Exponent=  6.4857000000D-01 Coefficients=  3.4873400000D-01
     Exponent=  2.5640700000D-01 Coefficients=  5.5794800000D-01
     Exponent=  9.5304000000D-02 Coefficients=  2.6645600000D-01
 P 1 1.00
     Exponent=  7.6660000000D-01 Coefficients=  1.0000000000D+00
 P 1 1.00
     Exponent=  1.1820000000D-01 Coefficients=  1.0000000000D+00
 P 1 1.00
     Exponent=  3.9600000000D-02 Coefficients=  1.0000000000D+00
 D 8 1.00
     Exponent=  3.3899600000D+02 Coefficients=  1.5240000000D-03
     Exponent=  1.0321700000D+02 Coefficients=  1.5673000000D-02
     Exponent=  4.2363800000D+01 Coefficients=  7.2400000000D-02
     Exponent=  1.8435600000D+01 Coefficients=  1.8630300000D-01
     Exponent=  8.3725400000D+00 Coefficients=  3.2388100000D-01
     Exponent=  3.8022200000D+00 Coefficients=  3.7453400000D-01
     Exponent=  1.6867700000D+00 Coefficients=  2.5741800000D-01
     Exponent=  6.7752000000D-01 Coefficients=  6.8051000000D-02
 D 1 1.00
     Exponent=  6.7752000000D-01 Coefficients=  1.0000000000D+00
 D 1 1.00
     Exponent=  2.5530000000D-01 Coefficients=  1.0000000000D+00
 D 1 1.00
     Exponent=  1.0090000000D-01 Coefficients=  1.0000000000D+00
 F 1 1.00
     Exponent=  5.6060000000D-01 Coefficients=  1.0000000000D+00
 F 1 1.00
     Exponent=  2.4540000000D-01 Coefficients=  1.0000000000D+00
 ****
 ======================================================================================================
                                       Pseudopotential Parameters
 ======================================================================================================
  Center     Atomic      Valence      Angular      Power
  Number     Number     Electrons     Momentum     of R      Exponent        Coefficient   SO-Coeffient
 ======================================================================================================
    1          8
                                   No pseudopotential on this center.
    2         17
                                   No pseudopotential on this center.
    3         35           25
                                      G and up 
                                                     2        1.0000000        0.00000000    0.00000000
                                      S - G
                                                     2       70.0242570       49.96283400    0.00000000
                                                     2       31.1784120      370.01420500    0.00000000
                                                     2        7.1565930       10.24143900    0.00000000
                                      P - G
                                                     2       46.7734710       99.11224400    0.00000000
                                                     2       46.1841200      198.25304600    0.00000000
                                                     2       21.7138580       28.26174000    0.00000000
                                                     2       20.9417920       56.62336600    0.00000000
                                      D - G
                                                     2       50.6988390      -18.60585300    0.00000000
                                                     2       50.6447640      -27.92328000    0.00000000
                                                     2       15.4475090       -0.37969300    0.00000000
                                                     2       15.5002590       -0.78058300    0.00000000
                                                     2        2.8003910        0.03596800    0.00000000
                                                     2        1.0774800        0.09439700    0.00000000
                                      F - G
                                                     2       14.4656060       -1.09126900    0.00000000
                                                     2       21.2340650       -2.88769100    0.00000000
    4          1
                                   No pseudopotential on this center.
 ======================================================================================================
 Ernie: Thresh=  0.10000D-02 Tol=  0.10000D-05 Strict=F.
 Ernie:  25 primitive shells out of 163 were deleted.
   174 basis functions,   373 primitive gaussians,   204 cartesian basis functions
    26 alpha electrons       26 beta electrons
       nuclear repulsion energy       151.8299988359 Hartrees.
 IExCor=    0 DFT=F Ex=HF Corr=None ExCW=0 ScaHFX=  1.000000
 ScaDFX=  1.000000  1.000000  1.000000  1.000000 ScalE2=  1.000000  1.000000
 IRadAn=      5 IRanWt=     -1 IRanGd=            0 ICorTp=0 IEmpDi=  4
 NAtoms=    4 NActive=    4 NUniq=    4 SFac= 1.00D+00 NAtFMM=   60 NAOKFM=F Big=F
 Integral buffers will be    131072 words long.
 Raffenetti 1 integral format.
 Two-electron integral symmetry is turned off.
 Leave Link  301 at Tue Oct 19 14:32:49 2021, MaxMem= 16106127360 cpu:               2.6 elap:               0.1
 (Enter /sw/contrib/gaussian/g16/B01/g16/l302.exe)
 NPDir=0 NMtPBC=     1 NCelOv=     1 NCel=       1 NClECP=     1 NCelD=      1
         NCelK=      1 NCelE2=     1 NClLst=     1 CellRange=     0.0.
 One-electron integrals computed using PRISM.
   1 Symmetry operations used in ECPInt.
 ECPInt:  NShTT=    1596 NPrTT=    9902 LenC2=    1595 LenP2D=    7767.
 LDataN:  DoStor=T MaxTD1= 7 Len=  274
 NBasis=   174 RedAO= T EigKep=  1.61D-04  NBF=   174
 NBsUse=   174 1.00D-06 EigRej= -1.00D+00 NBFU=   174
 Leave Link  302 at Tue Oct 19 14:32:49 2021, MaxMem= 16106127360 cpu:               7.0 elap:               0.3
 (Enter /sw/contrib/gaussian/g16/B01/g16/l303.exe)
 DipDrv:  MaxL=1.
 Leave Link  303 at Tue Oct 19 14:32:49 2021, MaxMem= 16106127360 cpu:               1.5 elap:               0.1
 (Enter /sw/contrib/gaussian/g16/B01/g16/l401.exe)
 ExpMin= 2.53D-02 ExpMax= 4.56D+05 ExpMxC= 1.44D+03 IAcc=3 IRadAn=         5 AccDes= 0.00D+00
 Harris functional with IExCor=  205 and IRadAn=       5 diagonalized for initial guess.
 HarFok:  IExCor=  205 AccDes= 0.00D+00 IRadAn=         5 IDoV= 1 UseB2=F ITyADJ=14
 ICtDFT=  3500011 ScaDFX=  1.000000  1.000000  1.000000  1.000000
 FoFCou: FMM=F IPFlag=           0 FMFlag=      100000 FMFlg1=           0
         NFxFlg=           0 DoJE=T BraDBF=F KetDBF=T FulRan=T
         wScrn=  0.000000 ICntrl=       500 IOpCl=  0 I1Cent=   200000004 NGrid=           0
         NMat0=    1 NMatS0=      1 NMatT0=    0 NMatD0=    1 NMtDS0=    0 NMtDT0=    0
 Symmetry not used in FoFCou.
 Harris En= -951.882906272972    
 JPrj=0 DoOrth=F DoCkMO=F.
 Leave Link  401 at Tue Oct 19 14:32:49 2021, MaxMem= 16106127360 cpu:               6.9 elap:               0.3
 (Enter /sw/contrib/gaussian/g16/B01/g16/l502.exe)
 Keep R1 ints in memory in canonical form, NReq=152797452.
 FoFCou: FMM=F IPFlag=           0 FMFlag=           0 FMFlg1=           0
         NFxFlg=           0 DoJE=F BraDBF=F KetDBF=F FulRan=T
         wScrn=  0.000000 ICntrl=       600 IOpCl=  0 I1Cent=           0 NGrid=           0
         NMat0=    1 NMatS0=  15225 NMatT0=    0 NMatD0=    1 NMtDS0=    0 NMtDT0=    0
 Symmetry not used in FoFCou.
 Two-electron integral symmetry not used.
 Closed shell SCF:
 Using DIIS extrapolation, IDIIS=  1040.
 NGot= 16106127360 LenX= 15990129197 LenY= 15990087140
 Requested convergence on RMS density matrix=1.00D-08 within 128 cycles.
 Requested convergence on MAX density matrix=1.00D-06.
 Requested convergence on             energy=1.00D-06.
 No special actions if energy rises.

 Cycle   1  Pass 1  IDiag  1:
 E= -950.246775217462    
 DIIS: error= 3.32D-02 at cycle   1 NSaved=   1.
 NSaved= 1 IEnMin= 1 EnMin= -950.246775217462     IErMin= 1 ErrMin= 3.32D-02
 ErrMax= 3.32D-02  0.00D+00 EMaxC= 1.00D-01 BMatC= 4.22D-01 BMatP= 4.22D-01
 IDIUse=3 WtCom= 6.68D-01 WtEn= 3.32D-01
 Coeff-Com:  0.100D+01
 Coeff-En:   0.100D+01
 Coeff:      0.100D+01
 Gap=     0.590 Goal=   None    Shift=    0.000
 GapD=    0.590 DampG=2.000 DampE=0.500 DampFc=1.0000 IDamp=-1.
 RMSDP=4.23D-03 MaxDP=2.77D-01              OVMax= 1.42D-01

 Cycle   2  Pass 1  IDiag  1:
 E= -950.394230218909     Delta-E=       -0.147455001447 Rises=F Damp=F
 DIIS: error= 2.33D-02 at cycle   2 NSaved=   2.
 NSaved= 2 IEnMin= 2 EnMin= -950.394230218909     IErMin= 2 ErrMin= 2.33D-02
 ErrMax= 2.33D-02  0.00D+00 EMaxC= 1.00D-01 BMatC= 8.36D-02 BMatP= 4.22D-01
 IDIUse=3 WtCom= 7.67D-01 WtEn= 2.33D-01
 Coeff-Com:  0.253D+00 0.747D+00
 Coeff-En:   0.000D+00 0.100D+01
 Coeff:      0.194D+00 0.806D+00
 Gap=     0.320 Goal=   None    Shift=    0.000
 RMSDP=1.26D-03 MaxDP=5.20D-02 DE=-1.47D-01 OVMax= 9.36D-02

 Cycle   3  Pass 1  IDiag  1:
 E= -950.441323063395     Delta-E=       -0.047092844486 Rises=F Damp=F
 DIIS: error= 8.52D-03 at cycle   3 NSaved=   3.
 NSaved= 3 IEnMin= 3 EnMin= -950.441323063395     IErMin= 3 ErrMin= 8.52D-03
 ErrMax= 8.52D-03  0.00D+00 EMaxC= 1.00D-01 BMatC= 1.31D-02 BMatP= 8.36D-02
 IDIUse=3 WtCom= 9.15D-01 WtEn= 8.52D-02
 Coeff-Com: -0.142D-01 0.269D+00 0.745D+00
 Coeff-En:   0.000D+00 0.000D+00 0.100D+01
 Coeff:     -0.129D-01 0.246D+00 0.767D+00
 Gap=     0.315 Goal=   None    Shift=    0.000
 RMSDP=3.67D-04 MaxDP=1.48D-02 DE=-4.71D-02 OVMax= 3.68D-02

 Cycle   4  Pass 1  IDiag  1:
 E= -950.450155013006     Delta-E=       -0.008831949610 Rises=F Damp=F
 DIIS: error= 1.56D-03 at cycle   4 NSaved=   4.
 NSaved= 4 IEnMin= 4 EnMin= -950.450155013006     IErMin= 4 ErrMin= 1.56D-03
 ErrMax= 1.56D-03  0.00D+00 EMaxC= 1.00D-01 BMatC= 2.36D-04 BMatP= 1.31D-02
 IDIUse=3 WtCom= 9.84D-01 WtEn= 1.56D-02
 Coeff-Com: -0.439D-02 0.833D-02 0.113D+00 0.883D+00
 Coeff-En:   0.000D+00 0.000D+00 0.000D+00 0.100D+01
 Coeff:     -0.432D-02 0.820D-02 0.111D+00 0.885D+00
 Gap=     0.310 Goal=   None    Shift=    0.000
 RMSDP=7.07D-05 MaxDP=1.89D-03 DE=-8.83D-03 OVMax= 3.43D-03

 Cycle   5  Pass 1  IDiag  1:
 E= -950.450382844858     Delta-E=       -0.000227831852 Rises=F Damp=F
 DIIS: error= 4.44D-04 at cycle   5 NSaved=   5.
 NSaved= 5 IEnMin= 5 EnMin= -950.450382844858     IErMin= 5 ErrMin= 4.44D-04
 ErrMax= 4.44D-04  0.00D+00 EMaxC= 1.00D-01 BMatC= 2.45D-05 BMatP= 2.36D-04
 IDIUse=3 WtCom= 9.96D-01 WtEn= 4.44D-03
 Coeff-Com: -0.209D-03-0.300D-01-0.585D-01 0.115D+00 0.974D+00
 Coeff-En:   0.000D+00 0.000D+00 0.000D+00 0.000D+00 0.100D+01
 Coeff:     -0.208D-03-0.298D-01-0.583D-01 0.115D+00 0.974D+00
 Gap=     0.312 Goal=   None    Shift=    0.000
 RMSDP=3.73D-05 MaxDP=1.21D-03 DE=-2.28D-04 OVMax= 3.25D-03

 Cycle   6  Pass 1  IDiag  1:
 E= -950.450431411288     Delta-E=       -0.000048566430 Rises=F Damp=F
 DIIS: error= 1.97D-04 at cycle   6 NSaved=   6.
 NSaved= 6 IEnMin= 6 EnMin= -950.450431411288     IErMin= 6 ErrMin= 1.97D-04
 ErrMax= 1.97D-04  0.00D+00 EMaxC= 1.00D-01 BMatC= 3.72D-06 BMatP= 2.45D-05
 IDIUse=3 WtCom= 9.98D-01 WtEn= 1.97D-03
 Coeff-Com:  0.956D-03 0.166D-02-0.121D-02-0.119D+00-0.266D+00 0.138D+01
 Coeff-En:   0.000D+00 0.000D+00 0.000D+00 0.000D+00 0.000D+00 0.100D+01
 Coeff:      0.954D-03 0.166D-02-0.120D-02-0.119D+00-0.265D+00 0.138D+01
 Gap=     0.312 Goal=   None    Shift=    0.000
 RMSDP=2.13D-05 MaxDP=7.04D-04 DE=-4.86D-05 OVMax= 1.94D-03

 Cycle   7  Pass 1  IDiag  1:
 E= -950.450444036535     Delta-E=       -0.000012625247 Rises=F Damp=F
 DIIS: error= 6.87D-05 at cycle   7 NSaved=   7.
 NSaved= 7 IEnMin= 7 EnMin= -950.450444036535     IErMin= 7 ErrMin= 6.87D-05
 ErrMax= 6.87D-05  0.00D+00 EMaxC= 1.00D-01 BMatC= 2.71D-07 BMatP= 3.72D-06
 IDIUse=1 WtCom= 1.00D+00 WtEn= 0.00D+00
 Coeff-Com: -0.330D-03 0.202D-02 0.655D-02 0.235D-01 0.803D-02-0.468D+00
 Coeff-Com:  0.143D+01
 Coeff:     -0.330D-03 0.202D-02 0.655D-02 0.235D-01 0.803D-02-0.468D+00
 Coeff:      0.143D+01
 Gap=     0.312 Goal=   None    Shift=    0.000
 RMSDP=7.39D-06 MaxDP=2.24D-04 DE=-1.26D-05 OVMax= 7.94D-04

 Cycle   8  Pass 1  IDiag  1:
 E= -950.450445273443     Delta-E=       -0.000001236908 Rises=F Damp=F
 DIIS: error= 1.36D-05 at cycle   8 NSaved=   8.
 NSaved= 8 IEnMin= 8 EnMin= -950.450445273443     IErMin= 8 ErrMin= 1.36D-05
 ErrMax= 1.36D-05  0.00D+00 EMaxC= 1.00D-01 BMatC= 2.36D-08 BMatP= 2.71D-07
 IDIUse=1 WtCom= 1.00D+00 WtEn= 0.00D+00
 Coeff-Com: -0.504D-04-0.468D-03-0.566D-03 0.116D-01 0.299D-01-0.134D+00
 Coeff-Com:  0.118D-01 0.108D+01
 Coeff:     -0.504D-04-0.468D-03-0.566D-03 0.116D-01 0.299D-01-0.134D+00
 Coeff:      0.118D-01 0.108D+01
 Gap=     0.312 Goal=   None    Shift=    0.000
 RMSDP=1.76D-06 MaxDP=4.67D-05 DE=-1.24D-06 OVMax= 2.19D-04

 Cycle   9  Pass 1  IDiag  1:
 E= -950.450445354187     Delta-E=       -0.000000080744 Rises=F Damp=F
 DIIS: error= 4.35D-06 at cycle   9 NSaved=   9.
 NSaved= 9 IEnMin= 9 EnMin= -950.450445354187     IErMin= 9 ErrMin= 4.35D-06
 ErrMax= 4.35D-06  0.00D+00 EMaxC= 1.00D-01 BMatC= 3.31D-09 BMatP= 2.36D-08
 IDIUse=1 WtCom= 1.00D+00 WtEn= 0.00D+00
 Coeff-Com:  0.377D-04-0.194D-03-0.581D-03-0.388D-02-0.825D-02 0.787D-01
 Coeff-Com: -0.162D+00-0.236D+00 0.133D+01
 Coeff:      0.377D-04-0.194D-03-0.581D-03-0.388D-02-0.825D-02 0.787D-01
 Coeff:     -0.162D+00-0.236D+00 0.133D+01
 Gap=     0.312 Goal=   None    Shift=    0.000
 RMSDP=8.57D-07 MaxDP=2.61D-05 DE=-8.07D-08 OVMax= 1.10D-04

 Cycle  10  Pass 1  IDiag  1:
 E= -950.450445369656     Delta-E=       -0.000000015470 Rises=F Damp=F
 DIIS: error= 1.91D-06 at cycle  10 NSaved=  10.
 NSaved=10 IEnMin=10 EnMin= -950.450445369656     IErMin=10 ErrMin= 1.91D-06
 ErrMax= 1.91D-06  0.00D+00 EMaxC= 1.00D-01 BMatC= 4.05D-10 BMatP= 3.31D-09
 IDIUse=1 WtCom= 1.00D+00 WtEn= 0.00D+00
 Coeff-Com: -0.236D-05 0.117D-03 0.193D-03-0.447D-03-0.709D-03-0.601D-02
 Coeff-Com:  0.464D-01-0.840D-01-0.390D+00 0.143D+01
 Coeff:     -0.236D-05 0.117D-03 0.193D-03-0.447D-03-0.709D-03-0.601D-02
 Coeff:      0.464D-01-0.840D-01-0.390D+00 0.143D+01
 Gap=     0.312 Goal=   None    Shift=    0.000
 RMSDP=3.53D-07 MaxDP=1.20D-05 DE=-1.55D-08 OVMax= 4.68D-05

 Cycle  11  Pass 1  IDiag  1:
 E= -950.450445371819     Delta-E=       -0.000000002163 Rises=F Damp=F
 DIIS: error= 4.80D-07 at cycle  11 NSaved=  11.
 NSaved=11 IEnMin=11 EnMin= -950.450445371819     IErMin=11 ErrMin= 4.80D-07
 ErrMax= 4.80D-07  0.00D+00 EMaxC= 1.00D-01 BMatC= 2.30D-11 BMatP= 4.05D-10
 IDIUse=1 WtCom= 1.00D+00 WtEn= 0.00D+00
 Coeff-Com: -0.296D-05-0.202D-06 0.145D-04 0.433D-03 0.622D-03-0.526D-02
 Coeff-Com:  0.579D-02 0.281D-01-0.335D-01-0.259D+00 0.126D+01
 Coeff:     -0.296D-05-0.202D-06 0.145D-04 0.433D-03 0.622D-03-0.526D-02
 Coeff:      0.579D-02 0.281D-01-0.335D-01-0.259D+00 0.126D+01
 Gap=     0.312 Goal=   None    Shift=    0.000
 RMSDP=7.81D-08 MaxDP=2.68D-06 DE=-2.16D-09 OVMax= 9.46D-06

 Cycle  12  Pass 1  IDiag  1:
 E= -950.450445371919     Delta-E=       -0.000000000100 Rises=F Damp=F
 DIIS: error= 1.00D-07 at cycle  12 NSaved=  12.
 NSaved=12 IEnMin=12 EnMin= -950.450445371919     IErMin=12 ErrMin= 1.00D-07
 ErrMax= 1.00D-07  0.00D+00 EMaxC= 1.00D-01 BMatC= 9.63D-13 BMatP= 2.30D-11
 IDIUse=1 WtCom= 1.00D+00 WtEn= 0.00D+00
 Coeff-Com:  0.646D-07-0.781D-05-0.126D-04 0.515D-04 0.527D-04 0.261D-03
 Coeff-Com: -0.284D-02 0.631D-02 0.251D-01-0.937D-01 0.192D-01 0.105D+01
 Coeff:      0.646D-07-0.781D-05-0.126D-04 0.515D-04 0.527D-04 0.261D-03
 Coeff:     -0.284D-02 0.631D-02 0.251D-01-0.937D-01 0.192D-01 0.105D+01
 Gap=     0.312 Goal=   None    Shift=    0.000
 RMSDP=1.38D-08 MaxDP=6.33D-07 DE=-9.96D-11 OVMax= 1.02D-06

 Cycle  13  Pass 1  IDiag  1:
 E= -950.450445371922     Delta-E=       -0.000000000004 Rises=F Damp=F
 DIIS: error= 2.40D-08 at cycle  13 NSaved=  13.
 NSaved=13 IEnMin=13 EnMin= -950.450445371922     IErMin=13 ErrMin= 2.40D-08
 ErrMax= 2.40D-08  0.00D+00 EMaxC= 1.00D-01 BMatC= 7.85D-14 BMatP= 9.63D-13
 IDIUse=1 WtCom= 1.00D+00 WtEn= 0.00D+00
 Coeff-Com:  0.184D-06 0.128D-05 0.643D-06-0.390D-04-0.429D-04 0.286D-03
 Coeff-Com:  0.532D-04-0.248D-02-0.287D-02 0.331D-01-0.933D-01-0.141D+00
 Coeff-Com:  0.121D+01
 Coeff:      0.184D-06 0.128D-05 0.643D-06-0.390D-04-0.429D-04 0.286D-03
 Coeff:      0.532D-04-0.248D-02-0.287D-02 0.331D-01-0.933D-01-0.141D+00
 Coeff:      0.121D+01
 Gap=     0.312 Goal=   None    Shift=    0.000
 RMSDP=5.04D-09 MaxDP=2.76D-07 DE=-3.64D-12 OVMax= 3.32D-07

 SCF Done:  E(RHF) =  -950.450445372     A.U. after   13 cycles
            NFock= 13  Conv=0.50D-08     -V/T= 2.1435
 KE= 8.312122750804D+02 PE=-2.614214186597D+03 EE= 6.807214673089D+02
 Leave Link  502 at Tue Oct 19 14:32:53 2021, MaxMem= 16106127360 cpu:              37.2 elap:               3.8
 (Enter /sw/contrib/gaussian/g16/B01/g16/l801.exe)
 ExpMin= 2.53D-02 ExpMax= 4.56D+05 ExpMxC= 1.44D+03 IAcc=3 IRadAn=         5 AccDes= 0.00D+00
 HarFok:  IExCor=  205 AccDes= 0.00D+00 IRadAn=         5 IDoV=-2 UseB2=F ITyADJ=14
 ICtDFT= 12500011 ScaDFX=  1.000000  1.000000  1.000000  1.000000
 Largest valence mixing into a core orbital is  4.48D-04
 Largest core mixing into a valence orbital is  1.59D-04
 Range of M.O.s used for correlation:    11   174
 NBasis=   174 NAE=    26 NBE=    26 NFC=    10 NFV=     0
 NROrb=    164 NOA=    16 NOB=    16 NVA=   148 NVB=   148

 **** Warning!!: The largest alpha MO coefficient is  0.20634984D+02

 Leave Link  801 at Tue Oct 19 14:32:53 2021, MaxMem= 16106127360 cpu:               3.1 elap:               0.2
 (Enter /sw/contrib/gaussian/g16/B01/g16/l906.exe)
 Frozen-core derivative calculation, NFC=  10 NFV=   0.
 FulOut=F Deriv=T AODrv=F NAtomX=     4
   MMem=         130  MDisk=          16 MDiskD=          16
  W3Min=      922896 MinDsk=     1491158 NBas6D=         204
 NBas2D=       21411    NTT=       20910    LW2=    16556320
    MDV= 16105732606 MDiskM=      394699 NBas2p=       21383
 Fully in-core method, ICMem=   510791049.
 IMap=   1   2   3   4   5   6   7   8   9  10  11  12  13  14  15  16  17  18  19  20
 IMap=  21  22  23  24  25  26
 JobTyp=1 Pass  1 fully in-core, NPsUse= 28.
 Compute canonical integrals.
 FoFCou: FMM=F IPFlag=           0 FMFlag=           0 FMFlg1=           0
         NFxFlg=           0 DoJE=F BraDBF=F KetDBF=F FulRan=T
         wScrn=  0.000000 ICntrl=       600 IOpCl=  1 I1Cent=           0 NGrid=           0
         NMat0=    1 NMatS0=  21411 NMatT0=    0 NMatD0=    1 NMtDS0=    0 NMtDT0=    0
 Symmetry not used in FoFCou.
 Spin components of T(2) and E(2):
     alpha-alpha T2 =       0.2865614523D-01 E2=     -0.9122650889D-01
     alpha-beta  T2 =       0.1544899486D+00 E2=     -0.5059716068D+00
     beta-beta   T2 =       0.2865614523D-01 E2=     -0.9122650889D-01
 The integrals were generated   1 times.
 ANorm=    0.1100818895D+01
 E2 =    -0.6884246246D+00 EUMP2 =    -0.95113886999654D+03
 Leave Link  906 at Tue Oct 19 14:32:59 2021, MaxMem= 16106127360 cpu:             172.4 elap:               6.2
 (Enter /sw/contrib/gaussian/g16/B01/g16/l1002.exe)
 Minotr:  Closed shell wavefunction.
          Computing MP2/KS-MP2 derivatives.
          Using Z-Vector for PSCF gradient.
          Skipping F1 and S1 gradient terms here.
          Frozen-core window.
          Direct CPHF calculation.
          Differentiating once with respect to electric field.
                with respect to dipole field.
          Electric field/nuclear overlap derivatives assumed to be zero.
          Requested convergence is 1.0D-10 RMS, and 1.0D-09 maximum.
          NewPWx=F KeepS1=T KeepF1=T KeepIn=T MapXYZ=F SortEE=F KeepMc=T.
 Keep R1 ints in memory in canonical form, NReq=152802297.
 FoFCou: FMM=F IPFlag=           0 FMFlag=           0 FMFlg1=           0
         NFxFlg=           0 DoJE=F BraDBF=F KetDBF=F FulRan=T
         wScrn=  0.000000 ICntrl=       600 IOpCl=  0 I1Cent=           0 NGrid=           0
         NMat0=    1 NMatS0=  15225 NMatT0=    0 NMatD0=    1 NMtDS0=    0 NMtDT0=    0
 Symmetry not used in FoFCou.
 Two-electron integral symmetry not used.
          MDV=   16106127360 using IRadAn=       5.
          Solving linear equations separately, MaxMat=       0.
          There are     1 degrees of freedom in the 1st order CPHF.  IDoFFX=0 NUNeed=     1.
 LinEq1:  Iter=  0 NonCon=     1 RMS=2.60D-03 Max=3.97D-02 NDo=     1
 AX will form     1 AO Fock derivatives at one time.
 LinEq1:  Iter=  1 NonCon=     1 RMS=4.18D-04 Max=4.38D-03 NDo=     1
 LinEq1:  Iter=  2 NonCon=     1 RMS=1.83D-04 Max=2.67D-03 NDo=     1
 LinEq1:  Iter=  3 NonCon=     1 RMS=4.96D-05 Max=8.64D-04 NDo=     1
 LinEq1:  Iter=  4 NonCon=     1 RMS=1.40D-05 Max=3.59D-04 NDo=     1
 LinEq1:  Iter=  5 NonCon=     1 RMS=5.63D-06 Max=8.54D-05 NDo=     1
 LinEq1:  Iter=  6 NonCon=     1 RMS=1.65D-06 Max=2.38D-05 NDo=     1
 LinEq1:  Iter=  7 NonCon=     1 RMS=3.87D-07 Max=4.21D-06 NDo=     1
 LinEq1:  Iter=  8 NonCon=     1 RMS=1.02D-07 Max=1.25D-06 NDo=     1
 LinEq1:  Iter=  9 NonCon=     1 RMS=2.51D-08 Max=4.01D-07 NDo=     1
 LinEq1:  Iter= 10 NonCon=     1 RMS=7.11D-09 Max=1.51D-07 NDo=     1
 LinEq1:  Iter= 11 NonCon=     1 RMS=1.76D-09 Max=3.14D-08 NDo=     1
 LinEq1:  Iter= 12 NonCon=     1 RMS=3.90D-10 Max=6.27D-09 NDo=     1
 LinEq1:  Iter= 13 NonCon=     1 RMS=9.96D-11 Max=1.31D-09 NDo=     1
 LinEq1:  Iter= 14 NonCon=     0 RMS=1.79D-11 Max=2.47D-10 NDo=     1
 Linear equations converged to 1.000D-10 1.000D-09 after    14 iterations.
 End of Minotr F.D. properties file   721 does not exist.
 End of Minotr F.D. properties file   722 does not exist.
 End of Minotr F.D. properties file   788 does not exist.
 Leave Link 1002 at Tue Oct 19 14:33:04 2021, MaxMem= 16106127360 cpu:              36.5 elap:               4.3
 (Enter /sw/contrib/gaussian/g16/B01/g16/l601.exe)
 Copying SCF densities to generalized density rwf, IOpCl= 0 IROHF=0.

 **********************************************************************

            Population analysis using the MP2 Density.

 **********************************************************************

 Alpha  occ. eigenvalues -- -104.75069 -20.46066 -10.46990  -9.54341  -7.93710
 Alpha  occ. eigenvalues --   -7.93427  -7.93416  -7.29107  -7.29092  -7.29090
 Alpha  occ. eigenvalues --   -2.84205  -2.84202  -2.84200  -2.84191  -2.84191
 Alpha  occ. eigenvalues --   -1.32237  -0.93957  -0.73902  -0.61665  -0.46820
 Alpha  occ. eigenvalues --   -0.46041  -0.33066  -0.30203  -0.16762  -0.16000
 Alpha  occ. eigenvalues --   -0.15998
 Alpha virt. eigenvalues --    0.15214   0.17563   0.22399   0.22777   0.25410
 Alpha virt. eigenvalues --    0.26680   0.27104   0.27457   0.29713   0.30687
 Alpha virt. eigenvalues --    0.31982   0.32424   0.35562   0.42244   0.43589
 Alpha virt. eigenvalues --    0.46936   0.48168   0.48739   0.51595   0.53854
 Alpha virt. eigenvalues --    0.55611   0.56039   0.58223   0.59693   0.60079
 Alpha virt. eigenvalues --    0.61181   0.64415   0.71554   0.76670   0.77924
 Alpha virt. eigenvalues --    0.82054   0.84365   0.85179   0.85205   0.88063
 Alpha virt. eigenvalues --    0.88179   0.91746   0.94007   0.97542   0.98306
 Alpha virt. eigenvalues --    0.99833   1.00092   1.00236   1.02801   1.05716
 Alpha virt. eigenvalues --    1.06490   1.08527   1.10617   1.12391   1.12941
 Alpha virt. eigenvalues --    1.13747   1.16147   1.16348   1.18353   1.20788
 Alpha virt. eigenvalues --    1.21145   1.25480   1.27066   1.32156   1.32596
 Alpha virt. eigenvalues --    1.33051   1.37099   1.45319   1.49909   1.52160
 Alpha virt. eigenvalues --    1.56046   1.57846   1.62755   1.64945   1.66302
 Alpha virt. eigenvalues --    1.71865   1.72737   1.77199   1.91069   1.93618
 Alpha virt. eigenvalues --    1.97725   2.13875   2.36459   2.41046   2.46144
 Alpha virt. eigenvalues --    2.46708   2.48205   2.48744   2.51208   2.53662
 Alpha virt. eigenvalues --    2.54044   2.55290   2.55378   2.57404   2.58170
 Alpha virt. eigenvalues --    2.61101   2.61800   2.64733   2.65324   2.65814
 Alpha virt. eigenvalues --    2.68850   2.69518   2.70964   2.71592   2.72889
 Alpha virt. eigenvalues --    2.76495   2.77988   2.79782   2.83696   2.86038
 Alpha virt. eigenvalues --    2.88332   2.95614   3.07676   3.08446   3.13950
 Alpha virt. eigenvalues --    3.18556   3.20397   3.22132   3.27244   3.30736
 Alpha virt. eigenvalues --    3.31472   3.50273   3.53612   3.56046   3.75365
 Alpha virt. eigenvalues --    4.00538   4.22568   4.50846   4.59305   4.78364
 Alpha virt. eigenvalues --    4.80745   4.84868   5.12070   5.32336   6.01945
 Alpha virt. eigenvalues --    6.14525   6.40146   6.49826   6.67404   6.87808
 Alpha virt. eigenvalues --    6.90190   6.95625   7.05944   7.25762   7.36065
 Alpha virt. eigenvalues --    7.38920   7.90049   8.30053   8.32148   8.76172
 Alpha virt. eigenvalues --    9.46646  21.10557  79.89618
          Condensed to atoms (all electrons):
               1          2          3          4
     1  O    8.259369  -0.064999  -0.054465   0.095614
     2  Cl  -0.064999  17.015654   0.000293  -0.035317
     3  Br  -0.054465   0.000293  25.975563   0.025353
     4  H    0.095614  -0.035317   0.025353   0.816457
 Mulliken charges:
               1
     1  O   -0.235519
     2  Cl   0.084369
     3  Br  -0.946744
     4  H    0.097894
 Sum of Mulliken charges =  -1.00000
 Mulliken charges with hydrogens summed into heavy atoms:
               1
     1  O   -0.137625
     2  Cl   0.084369
     3  Br  -0.946744
 Electronic spatial extent (au):  <R**2>=           1139.2828
 Charge=             -1.0000 electrons
 Dipole moment (field-independent basis, Debye):
    X=              2.4956    Y=             11.6304    Z=              0.0000  Tot=             11.8951
 Quadrupole moment (field-independent basis, Debye-Ang):
   XX=            -44.4955   YY=            -80.4659   ZZ=            -42.8043
   XY=             -9.4020   XZ=              0.0000   YZ=             -0.0000
 Traceless Quadrupole moment (field-independent basis, Debye-Ang):
   XX=             11.4264   YY=            -24.5440   ZZ=             13.1176
   XY=             -9.4020   XZ=              0.0000   YZ=             -0.0000
 Octapole moment (field-independent basis, Debye-Ang**2):
  XXX=            -10.8016  YYY=            321.2894  ZZZ=              0.0000  XYY=             21.5267
  XXY=             75.4097  XXZ=             -0.0000  XZZ=             -6.0345  YZZ=             69.2995
  YYZ=              0.0000  XYZ=              0.0000
 Hexadecapole moment (field-independent basis, Debye-Ang**3):
 XXXX=           -334.9607 YYYY=          -1630.4721 ZZZZ=            -62.8487 XXXY=           -154.0697
 XXXZ=             -0.0000 YYYX=           -228.7328 YYYZ=             -0.0000 ZZZX=             -0.0000
 ZZZY=             -0.0000 XXYY=           -296.3428 XXZZ=            -71.5799 YYZZ=           -227.2596
 XXYZ=             -0.0000 YYXZ=             -0.0000 ZZXY=            -49.7000
 N-N= 1.518299988359D+02 E-N=-2.612996745502D+03  KE= 8.310074313487D+02
 No NMR shielding tensors so no spin-rotation constants.
 Leave Link  601 at Tue Oct 19 14:33:04 2021, MaxMem= 16106127360 cpu:               5.2 elap:               0.2
 (Enter /sw/contrib/gaussian/g16/B01/g16/l607.exe)
 ******************************Gaussian NBO Version 3.1******************************
             N A T U R A L   A T O M I C   O R B I T A L   A N D
          N A T U R A L   B O N D   O R B I T A L   A N A L Y S I S
 ******************************Gaussian NBO Version 3.1******************************
       /RESON  / : Allow strongly delocalized NBO set

 Analyzing the MP2 density

 Job title: title                                                           

 Storage needed:     91686 in NPA,    121697 in NBO (********** available)
 GSVD:  LWork=        2436 too small for GESVD, short by       52200 words or       52200 for optimal perf.


 NATURAL POPULATIONS:  Natural atomic orbital occupancies 
                                                          
   NAO  Atom  No  lang   Type(AO)    Occupancy
 --------------------------------------------
     1    O    1  S      Cor( 1S)     1.99935
     2    O    1  S      Val( 2S)     1.68541
     3    O    1  S      Ryd( 3S)     0.00981
     4    O    1  S      Ryd( 4S)     0.00088
     5    O    1  S      Ryd( 5S)     0.00020
     6    O    1  px     Val( 2p)     1.21981
     7    O    1  px     Ryd( 3p)     0.00577
     8    O    1  px     Ryd( 4p)     0.00061
     9    O    1  px     Ryd( 5p)     0.00022
    10    O    1  py     Val( 2p)     1.65971
    11    O    1  py     Ryd( 3p)     0.01223
    12    O    1  py     Ryd( 4p)     0.00066
    13    O    1  py     Ryd( 5p)     0.00031
    14    O    1  pz     Val( 2p)     1.94876
    15    O    1  pz     Ryd( 3p)     0.01853
    16    O    1  pz     Ryd( 4p)     0.00069
    17    O    1  pz     Ryd( 5p)     0.00013
    18    O    1  dxy    Ryd( 3d)     0.00863
    19    O    1  dxy    Ryd( 4d)     0.00043
    20    O    1  dxy    Ryd( 5d)     0.00015
    21    O    1  dxz    Ryd( 3d)     0.00816
    22    O    1  dxz    Ryd( 4d)     0.00052
    23    O    1  dxz    Ryd( 5d)     0.00010
    24    O    1  dyz    Ryd( 3d)     0.00798
    25    O    1  dyz    Ryd( 4d)     0.00055
    26    O    1  dyz    Ryd( 5d)     0.00035
    27    O    1  dx2y2  Ryd( 3d)     0.01216
    28    O    1  dx2y2  Ryd( 4d)     0.00031
    29    O    1  dx2y2  Ryd( 5d)     0.00026
    30    O    1  dz2    Ryd( 3d)     0.00915
    31    O    1  dz2    Ryd( 4d)     0.00042
    32    O    1  dz2    Ryd( 5d)     0.00011
    33    O    1  f(0)   Ryd( 4f)     0.00066
    34    O    1  f(0)   Ryd( 5f)     0.00009
    35    O    1  f(C1)  Ryd( 4f)     0.00065
    36    O    1  f(C1)  Ryd( 5f)     0.00011
    37    O    1  f(S1)  Ryd( 4f)     0.00049
    38    O    1  f(S1)  Ryd( 5f)     0.00011
    39    O    1  f(C2)  Ryd( 4f)     0.00055
    40    O    1  f(C2)  Ryd( 5f)     0.00013
    41    O    1  f(S2)  Ryd( 4f)     0.00050
    42    O    1  f(S2)  Ryd( 5f)     0.00013
    43    O    1  f(C3)  Ryd( 4f)     0.00050
    44    O    1  f(C3)  Ryd( 5f)     0.00016
    45    O    1  f(S3)  Ryd( 4f)     0.00048
    46    O    1  f(S3)  Ryd( 5f)     0.00019

    47   Cl    2  S      Cor( 1S)     2.00000
    48   Cl    2  S      Cor( 2S)     1.99985
    49   Cl    2  S      Val( 3S)     1.88859
    50   Cl    2  S      Ryd( 4S)     0.00760
    51   Cl    2  S      Ryd( 5S)     0.00050
    52   Cl    2  S      Ryd( 6S)     0.00013
    53   Cl    2  px     Cor( 2p)     1.99998
    54   Cl    2  px     Val( 3p)     0.89015
    55   Cl    2  px     Ryd( 4p)     0.00645
    56   Cl    2  px     Ryd( 5p)     0.00054
    57   Cl    2  px     Ryd( 6p)     0.00014
    58   Cl    2  py     Cor( 2p)     2.00003
    59   Cl    2  py     Val( 3p)     1.95354
    60   Cl    2  py     Ryd( 4p)     0.00932
    61   Cl    2  py     Ryd( 5p)     0.00051
    62   Cl    2  py     Ryd( 6p)     0.00009
    63   Cl    2  pz     Cor( 2p)     2.00003
    64   Cl    2  pz     Val( 3p)     1.95499
    65   Cl    2  pz     Ryd( 4p)     0.01000
    66   Cl    2  pz     Ryd( 5p)     0.00068
    67   Cl    2  pz     Ryd( 6p)     0.00002
    68   Cl    2  dxy    Ryd( 3d)     0.01601
    69   Cl    2  dxy    Ryd( 4d)     0.00066
    70   Cl    2  dxy    Ryd( 5d)     0.00029
    71   Cl    2  dxz    Ryd( 3d)     0.02153
    72   Cl    2  dxz    Ryd( 4d)     0.00096
    73   Cl    2  dxz    Ryd( 5d)     0.00034
    74   Cl    2  dyz    Ryd( 3d)     0.01667
    75   Cl    2  dyz    Ryd( 4d)     0.00074
    76   Cl    2  dyz    Ryd( 5d)     0.00017
    77   Cl    2  dx2y2  Ryd( 3d)     0.01906
    78   Cl    2  dx2y2  Ryd( 4d)     0.00047
    79   Cl    2  dx2y2  Ryd( 5d)     0.00015
    80   Cl    2  dz2    Ryd( 3d)     0.01750
    81   Cl    2  dz2    Ryd( 4d)     0.00061
    82   Cl    2  dz2    Ryd( 5d)     0.00014
    83   Cl    2  f(0)   Ryd( 4f)     0.00132
    84   Cl    2  f(0)   Ryd( 5f)     0.00013
    85   Cl    2  f(C1)  Ryd( 4f)     0.00141
    86   Cl    2  f(C1)  Ryd( 5f)     0.00013
    87   Cl    2  f(S1)  Ryd( 4f)     0.00126
    88   Cl    2  f(S1)  Ryd( 5f)     0.00013
    89   Cl    2  f(C2)  Ryd( 4f)     0.00136
    90   Cl    2  f(C2)  Ryd( 5f)     0.00013
    91   Cl    2  f(S2)  Ryd( 4f)     0.00119
    92   Cl    2  f(S2)  Ryd( 5f)     0.00013
    93   Cl    2  f(C3)  Ryd( 4f)     0.00149
    94   Cl    2  f(C3)  Ryd( 5f)     0.00013
    95   Cl    2  f(S3)  Ryd( 4f)     0.00125
    96   Cl    2  f(S3)  Ryd( 5f)     0.00013

    97   Br    3  S      Cor( 3S)     2.00001
    98   Br    3  S      Val( 4S)     1.97988
    99   Br    3  S      Ryd( 5S)     0.00250
   100   Br    3  S      Ryd( 6S)     0.00046
   101   Br    3  S      Ryd( 7S)     0.00014
   102   Br    3  S      Ryd( 8S)     0.00000
   103   Br    3  px     Cor( 3p)     2.00002
   104   Br    3  px     Val( 4p)     1.95250
   105   Br    3  px     Ryd( 5p)     0.01171
   106   Br    3  px     Ryd( 6p)     0.00080
   107   Br    3  px     Ryd( 7p)     0.00011
   108   Br    3  py     Cor( 3p)     2.00001
   109   Br    3  py     Val( 4p)     1.93193
   110   Br    3  py     Ryd( 5p)     0.01066
   111   Br    3  py     Ryd( 6p)     0.00075
   112   Br    3  py     Ryd( 7p)     0.00010
   113   Br    3  pz     Cor( 3p)     2.00002
   114   Br    3  pz     Val( 4p)     1.95395
   115   Br    3  pz     Ryd( 5p)     0.01186
   116   Br    3  pz     Ryd( 6p)     0.00081
   117   Br    3  pz     Ryd( 7p)     0.00010
   118   Br    3  dxy    Cor( 3d)     1.99768
   119   Br    3  dxy    Ryd( 4d)     0.01880
   120   Br    3  dxy    Ryd( 5d)     0.00154
   121   Br    3  dxy    Ryd( 6d)     0.00020
   122   Br    3  dxz    Cor( 3d)     1.99771
   123   Br    3  dxz    Ryd( 4d)     0.01858
   124   Br    3  dxz    Ryd( 5d)     0.00176
   125   Br    3  dxz    Ryd( 6d)     0.00023
   126   Br    3  dyz    Cor( 3d)     1.99769
   127   Br    3  dyz    Ryd( 4d)     0.01886
   128   Br    3  dyz    Ryd( 5d)     0.00153
   129   Br    3  dyz    Ryd( 6d)     0.00019
   130   Br    3  dx2y2  Cor( 3d)     1.99767
   131   Br    3  dx2y2  Ryd( 4d)     0.01864
   132   Br    3  dx2y2  Ryd( 5d)     0.00168
   133   Br    3  dx2y2  Ryd( 6d)     0.00024
   134   Br    3  dz2    Cor( 3d)     1.99769
   135   Br    3  dz2    Ryd( 4d)     0.01857
   136   Br    3  dz2    Ryd( 5d)     0.00175
   137   Br    3  dz2    Ryd( 6d)     0.00021
   138   Br    3  f(0)   Ryd( 4f)     0.00173
   139   Br    3  f(0)   Ryd( 5f)     0.00026
   140   Br    3  f(C1)  Ryd( 4f)     0.00174
   141   Br    3  f(C1)  Ryd( 5f)     0.00025
   142   Br    3  f(S1)  Ryd( 4f)     0.00174
   143   Br    3  f(S1)  Ryd( 5f)     0.00026
   144   Br    3  f(C2)  Ryd( 4f)     0.00172
   145   Br    3  f(C2)  Ryd( 5f)     0.00026
   146   Br    3  f(S2)  Ryd( 4f)     0.00175
   147   Br    3  f(S2)  Ryd( 5f)     0.00026
   148   Br    3  f(C3)  Ryd( 4f)     0.00171
   149   Br    3  f(C3)  Ryd( 5f)     0.00027
   150   Br    3  f(S3)  Ryd( 4f)     0.00171
   151   Br    3  f(S3)  Ryd( 5f)     0.00027

   152    H    4  S      Val( 1S)     0.56176
   153    H    4  S      Ryd( 2S)     0.00972
   154    H    4  S      Ryd( 3S)     0.00026
   155    H    4  S      Ryd( 4S)     0.00007
   156    H    4  px     Ryd( 2p)     0.00368
   157    H    4  px     Ryd( 3p)     0.00038
   158    H    4  px     Ryd( 4p)     0.00017
   159    H    4  py     Ryd( 2p)     0.00546
   160    H    4  py     Ryd( 3p)     0.00070
   161    H    4  py     Ryd( 4p)     0.00044
   162    H    4  pz     Ryd( 2p)     0.00560
   163    H    4  pz     Ryd( 3p)     0.00041
   164    H    4  pz     Ryd( 4p)     0.00018
   165    H    4  dxy    Ryd( 3d)     0.00025
   166    H    4  dxy    Ryd( 4d)     0.00012
   167    H    4  dxz    Ryd( 3d)     0.00020
   168    H    4  dxz    Ryd( 4d)     0.00010
   169    H    4  dyz    Ryd( 3d)     0.00043
   170    H    4  dyz    Ryd( 4d)     0.00009
   171    H    4  dx2y2  Ryd( 3d)     0.00021
   172    H    4  dx2y2  Ryd( 4d)     0.00018
   173    H    4  dz2    Ryd( 3d)     0.00020
   174    H    4  dz2    Ryd( 4d)     0.00017

 [ 10 electrons found in the effective core potential]

 WARNING:  5 low occupancy (<1.9990e) core orbitals found on Br    3


 Summary of Natural Population Analysis:                  
                                                          
                                       Natural Population 
                Natural  -----------------------------------------------
    Atom  No    Charge         Core      Valence    Rydberg      Total
 -----------------------------------------------------------------------
      O    1   -0.61710      1.99935     6.51369    0.10406     8.61710
     Cl    2    0.17135      9.99989     6.68727    0.14150    16.82865
     Br    3   -0.96348     27.98852     7.81826    0.15670    35.96348
      H    4    0.40923      0.00000     0.56176    0.02902     0.59077
 =======================================================================
   * Total *   -1.00000     39.98776    21.58097    0.43127    62.00000

                                 Natural Population      
 --------------------------------------------------------
   Effective Core            10.00000
   Core                      29.98776 ( 99.9592% of  30)
   Valence                   21.58097 ( 98.0953% of  22)
   Natural Minimal Basis     61.56873 ( 99.3044% of  62)
   Natural Rydberg Basis      0.43127 (  0.6956% of  62)
 --------------------------------------------------------

    Atom  No          Natural Electron Configuration
 ----------------------------------------------------------------------------
      O    1      [core]2S( 1.69)2p( 4.83)3S( 0.01)3p( 0.04)3d( 0.05)
     Cl    2      [core]3S( 1.89)3p( 4.80)4S( 0.01)3d( 0.09)4p( 0.03)4f( 0.01)
     Br    3      [core]4S( 1.98)4p( 5.84)4d( 0.09)5p( 0.03)4f( 0.01)5d( 0.01)
      H    4            1S( 0.56)2S( 0.01)2p( 0.01)


 NATURAL BOND ORBITAL ANALYSIS:

                       Occupancies       Lewis Structure    Low   High
           Occ.    -------------------  -----------------   occ   occ
  Cycle   Thresh.   Lewis   Non-Lewis     CR  BD  3C  LP    (L)   (NL)   Dev
 =============================================================================
   1(1)    1.90    61.53347   0.46653     15   2   0   9     0      0    0.03
 -----------------------------------------------------------------------------

 Structure accepted: No low occupancy Lewis orbitals

 WARNING:  5 low occupancy (<1.9990e) core orbitals found on Br    3

 --------------------------------------------------------
   Effective Core           10.00000
   Core                     29.98776 ( 99.959% of  30)
   Valence Lewis            21.54571 ( 97.935% of  22)
  ==================       ============================
   Total Lewis              61.53347 ( 99.248% of  62)
  -----------------------------------------------------
   Valence non-Lewis         0.08452 (  0.136% of  62)
   Rydberg non-Lewis         0.38201 (  0.616% of  62)
  ==================       ============================
   Total non-Lewis           0.46653 (  0.752% of  62)
 --------------------------------------------------------


       (Occupancy)   Bond orbital/ Coefficients/ Hybrids
 ---------------------------------------------------------------------------------
     1. (1.94251) BD ( 1) O   1 -Cl   2  
                ( 59.52%)   0.7715* O   1 s( 10.96%)p 8.08( 88.54%)d 0.04(  0.49%)
                                                  f 0.00(  0.02%)
                                            0.0003  0.3278 -0.0440 -0.0122 -0.0004
                                            0.9402 -0.0190 -0.0120 -0.0079  0.0106
                                           -0.0275 -0.0041 -0.0007  0.0000  0.0000
                                            0.0000  0.0000 -0.0281 -0.0008  0.0029
                                            0.0000  0.0000  0.0000  0.0000  0.0000
                                            0.0000  0.0499  0.0069  0.0022 -0.0390
                                           -0.0034  0.0010  0.0000  0.0000 -0.0114
                                            0.0009 -0.0005  0.0000  0.0000  0.0000
                                            0.0000  0.0000  0.0048 -0.0009 -0.0007
                                            0.0032
                ( 40.48%)   0.6362*Cl   2 s(  7.96%)p11.39( 90.66%)d 0.16(  1.28%)
                                                  f 0.01(  0.11%)
                                           -0.0000  0.0005  0.2766 -0.0543 -0.0104
                                            0.0018 -0.0003 -0.9497  0.0669  0.0148
                                           -0.0041 -0.0000 -0.0059 -0.0008  0.0024
                                           -0.0006  0.0000  0.0000  0.0000  0.0000
                                            0.0000  0.0129  0.0000  0.0010  0.0000
                                            0.0000  0.0000  0.0000  0.0000  0.0000
                                            0.0948 -0.0096  0.0003 -0.0590  0.0053
                                            0.0005  0.0000  0.0000  0.0206 -0.0031
                                            0.0002 -0.0000  0.0000  0.0000  0.0000
                                            0.0000 -0.0249  0.0030 -0.0005 -0.0002
     2. (1.97627) BD ( 1) O   1 - H   4  
                ( 72.59%)   0.8520* O   1 s( 39.19%)p 1.54( 60.36%)d 0.01(  0.45%)
                                                  f 0.00(  0.01%)
                                           -0.0003 -0.6258  0.0168  0.0036 -0.0007
                                            0.2075 -0.0220 -0.0006 -0.0010  0.7475
                                           -0.0357 -0.0048 -0.0029  0.0000  0.0000
                                            0.0000  0.0000 -0.0053  0.0050 -0.0012
                                            0.0000  0.0000  0.0000  0.0000  0.0000
                                            0.0000  0.0555  0.0006  0.0056  0.0359
                                           -0.0024 -0.0006  0.0000  0.0000 -0.0013
                                           -0.0011 -0.0071 -0.0029  0.0000  0.0000
                                            0.0000  0.0000 -0.0014 -0.0042  0.0006
                                           -0.0051
                ( 27.41%)   0.5235* H   4 s( 99.89%)p 0.00(  0.10%)d 0.00(  0.01%)
                                           -0.9993  0.0162 -0.0007  0.0002 -0.0123
                                           -0.0059 -0.0009  0.0046 -0.0280  0.0072
                                            0.0000  0.0000  0.0000  0.0013 -0.0001
                                            0.0000  0.0000  0.0000  0.0000 -0.0016
                                            0.0040 -0.0031  0.0056
     3. (1.99935) CR ( 1) O   1           s(100.00%)p 0.00(  0.00%)
                                            1.0000 -0.0005  0.0000  0.0000  0.0000
                                           -0.0002  0.0000  0.0000  0.0000  0.0001
                                           -0.0000 -0.0000 -0.0000  0.0000  0.0000
                                            0.0000  0.0000  0.0000  0.0000 -0.0000
                                            0.0000  0.0000  0.0000  0.0000  0.0000
                                            0.0000 -0.0000 -0.0000  0.0000  0.0000
                                            0.0000 -0.0000  0.0000  0.0000  0.0000
                                           -0.0000 -0.0000 -0.0000  0.0000  0.0000
                                            0.0000  0.0000 -0.0000 -0.0000 -0.0000
                                           -0.0000
     4. (2.00000) CR ( 1)Cl   2           s(100.00%)
                                            1.0000  0.0000  0.0000 -0.0000 -0.0000
                                            0.0000 -0.0000 -0.0000  0.0000  0.0000
                                           -0.0000 -0.0000 -0.0000 -0.0000  0.0000
                                           -0.0000  0.0000  0.0000  0.0000  0.0000
                                            0.0000  0.0000 -0.0000  0.0000  0.0000
                                            0.0000  0.0000  0.0000  0.0000  0.0000
                                            0.0000 -0.0000  0.0000 -0.0000  0.0000
                                            0.0000  0.0000  0.0000  0.0000 -0.0000
                                            0.0000 -0.0000  0.0000  0.0000  0.0000
                                            0.0000 -0.0000  0.0000 -0.0000 -0.0000
     5. (1.99986) CR ( 2)Cl   2           s(100.00%)p 0.00(  0.00%)
                                            0.0000  1.0000 -0.0004  0.0000  0.0000
                                           -0.0000  0.0000  0.0004 -0.0000 -0.0000
                                            0.0000  0.0000  0.0000  0.0000 -0.0000
                                            0.0000  0.0000  0.0000  0.0000  0.0000
                                            0.0000 -0.0000  0.0000 -0.0000  0.0000
                                            0.0000  0.0000  0.0000  0.0000  0.0000
                                           -0.0000  0.0000 -0.0000  0.0000 -0.0000
                                           -0.0000  0.0000  0.0000 -0.0000  0.0000
                                           -0.0000  0.0000  0.0000  0.0000  0.0000
                                            0.0000  0.0000 -0.0000  0.0000  0.0000
     6. (1.99997) CR ( 3)Cl   2           s(  0.00%)p 1.00(100.00%)
                                           -0.0000  0.0000  0.0001 -0.0000 -0.0000
                                            0.0000  1.0000 -0.0003  0.0000  0.0000
                                           -0.0000 -0.0000 -0.0000 -0.0000  0.0000
                                           -0.0000  0.0000  0.0000  0.0000  0.0000
                                            0.0000  0.0000 -0.0000  0.0000  0.0000
                                            0.0000  0.0000  0.0000  0.0000  0.0000
                                            0.0000 -0.0000  0.0000 -0.0000  0.0000
                                            0.0000  0.0000  0.0000  0.0000 -0.0000
                                            0.0000 -0.0000  0.0000  0.0000  0.0000
                                            0.0000 -0.0000  0.0000 -0.0000 -0.0000
     7. (2.00003) CR ( 4)Cl   2           s(  0.00%)p 1.00(100.00%)
                                           -0.0000  0.0000  0.0000  0.0000  0.0000
                                            0.0000 -0.0000 -0.0000  0.0000  0.0000
                                           -0.0000  1.0000  0.0002  0.0000  0.0000
                                            0.0000  0.0000  0.0000  0.0000  0.0000
                                            0.0000 -0.0000  0.0000  0.0000  0.0000
                                            0.0000  0.0000  0.0000  0.0000  0.0000
                                           -0.0000 -0.0000 -0.0000 -0.0000 -0.0000
                                           -0.0000  0.0000  0.0000  0.0000 -0.0000
                                           -0.0000 -0.0000  0.0000  0.0000  0.0000
                                            0.0000 -0.0000  0.0000  0.0000 -0.0000
     8. (2.00003) CR ( 5)Cl   2           s(  0.00%)p 1.00(100.00%)
                                            0.0000  0.0000  0.0000  0.0000  0.0000
                                            0.0000  0.0000  0.0000  0.0000  0.0000
                                            0.0000  0.0000  0.0000  0.0000  0.0000
                                            0.0000  1.0000  0.0002  0.0000  0.0000
                                           -0.0000  0.0000  0.0000  0.0000  0.0000
                                            0.0000  0.0000  0.0000  0.0000  0.0000
                                            0.0000  0.0000  0.0000  0.0000  0.0000
                                            0.0000 -0.0000  0.0000  0.0000  0.0000
                                            0.0000  0.0000  0.0000 -0.0000  0.0000
                                           -0.0000  0.0000  0.0000  0.0000  0.0000
     9. (2.00001) CR ( 1)Br   3           s(100.00%)
                                            1.0000 -0.0000  0.0000 -0.0000  0.0000
                                            0.0000 -0.0000  0.0000 -0.0000 -0.0000
                                            0.0000 -0.0000  0.0001 -0.0000 -0.0000
                                            0.0000  0.0000  0.0000  0.0000  0.0000
                                            0.0000 -0.0000  0.0000 -0.0000  0.0000
                                            0.0000  0.0000  0.0000  0.0000  0.0000
                                            0.0000  0.0000  0.0000  0.0000 -0.0000
                                            0.0000  0.0000  0.0000 -0.0000  0.0000
                                           -0.0000  0.0000  0.0000 -0.0000 -0.0000
                                           -0.0000 -0.0000  0.0000  0.0000  0.0000
                                            0.0000 -0.0000 -0.0000 -0.0000 -0.0000
    10. (2.00002) CR ( 2)Br   3           s(  0.00%)p 1.00(100.00%)
                                           -0.0000  0.0000  0.0000 -0.0000  0.0000
                                            0.0000  1.0000 -0.0000 -0.0000 -0.0000
                                            0.0000 -0.0000  0.0000 -0.0000 -0.0000
                                            0.0000  0.0000  0.0000  0.0000  0.0000
                                            0.0000 -0.0000 -0.0000  0.0000  0.0000
                                            0.0000  0.0000  0.0000  0.0000  0.0000
                                            0.0000  0.0000  0.0000  0.0000 -0.0000
                                            0.0000  0.0000  0.0000 -0.0000  0.0000
                                           -0.0000  0.0000  0.0000  0.0000  0.0000
                                           -0.0000 -0.0000  0.0000  0.0000  0.0000
                                            0.0000  0.0000  0.0000 -0.0000 -0.0000
    11. (2.00001) CR ( 3)Br   3           s(  0.00%)p 1.00(100.00%)
                                           -0.0000  0.0000  0.0000 -0.0000  0.0000
                                            0.0000 -0.0000  0.0000 -0.0000 -0.0000
                                            0.0000  1.0000  0.0001 -0.0000 -0.0000
                                            0.0000  0.0000  0.0000  0.0000  0.0000
                                            0.0000 -0.0000  0.0000 -0.0000  0.0000
                                            0.0000  0.0000  0.0000  0.0000  0.0000
                                            0.0000  0.0000  0.0000  0.0000 -0.0000
                                            0.0000  0.0000  0.0000 -0.0000  0.0000
                                           -0.0000  0.0000  0.0000 -0.0000 -0.0000
                                           -0.0000 -0.0000  0.0000  0.0000  0.0000
                                            0.0000 -0.0000 -0.0000 -0.0000 -0.0000
    12. (2.00002) CR ( 4)Br   3           s(  0.00%)p 1.00(100.00%)
                                            0.0000  0.0000  0.0000  0.0000  0.0000
                                            0.0000  0.0000  0.0000  0.0000  0.0000
                                            0.0000  0.0000  0.0000  0.0000  0.0000
                                            0.0000  1.0000 -0.0000 -0.0000 -0.0000
                                            0.0000  0.0000  0.0000  0.0000  0.0000
                                            0.0000 -0.0000  0.0000 -0.0000  0.0000
                                           -0.0000  0.0000 -0.0000  0.0000  0.0000
                                            0.0000  0.0000  0.0000  0.0000  0.0000
                                            0.0000  0.0000  0.0000  0.0000  0.0000
                                            0.0000  0.0000  0.0000  0.0000 -0.0000
                                           -0.0000  0.0000  0.0000  0.0000  0.0000
    13. (1.99768) CR ( 5)Br   3           s(  0.00%)p 0.00(  0.00%)d 1.00(100.00%)
                                           -0.0000  0.0000  0.0000 -0.0000  0.0000
                                            0.0000 -0.0000  0.0000 -0.0000 -0.0000
                                            0.0000 -0.0000  0.0000 -0.0000 -0.0000
                                            0.0000  0.0000  0.0000  0.0000  0.0000
                                            0.0000  1.0000  0.0000 -0.0000  0.0000
                                            0.0000  0.0000  0.0000  0.0000  0.0000
                                            0.0000  0.0000  0.0000  0.0000 -0.0000
                                            0.0000  0.0000  0.0000 -0.0000  0.0000
                                           -0.0000  0.0000  0.0000 -0.0000 -0.0000
                                           -0.0000 -0.0000  0.0000  0.0000  0.0000
                                            0.0000 -0.0000 -0.0000 -0.0000 -0.0000
    14. (1.99771) CR ( 6)Br   3           s(  0.00%)p 0.00(  0.00%)d 1.00(100.00%)
                                            0.0000  0.0000  0.0000  0.0000  0.0000
                                            0.0000  0.0000  0.0000  0.0000  0.0000
                                            0.0000  0.0000  0.0000  0.0000  0.0000
                                            0.0000  0.0000  0.0000  0.0000  0.0000
                                           -0.0000  0.0000  0.0000  0.0000  0.0000
                                            1.0000  0.0000 -0.0000  0.0000 -0.0000
                                            0.0000 -0.0000  0.0000  0.0000  0.0000
                                            0.0000  0.0000  0.0000  0.0000  0.0000
                                            0.0000 -0.0000 -0.0000  0.0000  0.0000
                                            0.0000  0.0000 -0.0000 -0.0000  0.0000
                                            0.0000  0.0000  0.0000  0.0000  0.0000
    15. (1.99769) CR ( 7)Br   3           s(  0.00%)p 0.00(  0.00%)d 1.00(100.00%)
                                            0.0000  0.0000  0.0000  0.0000  0.0000
                                            0.0000  0.0000  0.0000  0.0000  0.0000
                                            0.0000  0.0000  0.0000  0.0000  0.0000
                                            0.0000  0.0000  0.0000  0.0000  0.0000
                                           -0.0000  0.0000  0.0000  0.0000  0.0000
                                           -0.0000  0.0000 -0.0000  0.0000  1.0000
                                            0.0000 -0.0000  0.0000  0.0000  0.0000
                                            0.0000  0.0000  0.0000  0.0000  0.0000
                                            0.0000 -0.0000 -0.0000  0.0000  0.0000
                                            0.0000  0.0000 -0.0000 -0.0000  0.0000
                                            0.0000  0.0000  0.0000  0.0000  0.0000
    16. (1.99767) CR ( 8)Br   3           s(  0.00%)p 0.00(  0.00%)d 1.00(100.00%)
                                            0.0000 -0.0000 -0.0000  0.0000 -0.0000
                                           -0.0000  0.0000 -0.0000  0.0000  0.0000
                                           -0.0000  0.0000 -0.0001  0.0000  0.0000
                                           -0.0000  0.0000  0.0000  0.0000  0.0000
                                            0.0000  0.0000 -0.0000  0.0000 -0.0000
                                            0.0000  0.0000  0.0000  0.0000  0.0000
                                            0.0000  0.0000  0.0000  1.0000  0.0000
                                           -0.0000 -0.0000 -0.0000  0.0000 -0.0000
                                            0.0000  0.0000  0.0000  0.0000  0.0000
                                            0.0000  0.0000  0.0000  0.0000  0.0000
                                            0.0000  0.0000  0.0000  0.0000  0.0000
    17. (1.99769) CR ( 9)Br   3           s(  0.00%)p 0.00(  0.00%)d 1.00(100.00%)
                                            0.0000 -0.0000 -0.0000  0.0000 -0.0000
                                           -0.0000  0.0000 -0.0000  0.0000  0.0000
                                           -0.0000  0.0000 -0.0000  0.0000  0.0000
                                           -0.0000  0.0000  0.0000  0.0000  0.0000
                                            0.0000  0.0000 -0.0000  0.0000 -0.0000
                                            0.0000  0.0000  0.0000  0.0000  0.0000
                                            0.0000  0.0000  0.0000 -0.0000  0.0000
                                           -0.0000 -0.0000  1.0000  0.0000 -0.0000
                                            0.0000  0.0000  0.0000  0.0000  0.0000
                                            0.0000  0.0000  0.0000  0.0000  0.0000
                                            0.0000  0.0000  0.0000  0.0000  0.0000
    18. (1.96660) LP ( 1) O   1           s( 50.01%)p 1.00( 49.85%)d 0.00(  0.13%)
                                                  f 0.00(  0.01%)
                                            0.0002  0.7068  0.0224  0.0058 -0.0006
                                           -0.2523 -0.0085 -0.0027 -0.0017  0.6593
                                            0.0095  0.0053  0.0012  0.0000  0.0000
                                            0.0000  0.0000  0.0239  0.0030 -0.0036
                                            0.0000  0.0000  0.0000  0.0000  0.0000
                                            0.0000  0.0203 -0.0026 -0.0052  0.0159
                                           -0.0012 -0.0006  0.0000  0.0000  0.0000
                                            0.0007 -0.0033 -0.0005  0.0000  0.0000
                                            0.0000  0.0000  0.0031 -0.0025  0.0038
                                           -0.0034
    19. (1.95449) LP ( 2) O   1           s(  0.00%)p 1.00( 99.79%)d 0.00(  0.20%)
                                                  f 0.00(  0.01%)
                                            0.0000  0.0000  0.0000  0.0000  0.0000
                                            0.0000  0.0000  0.0000  0.0000  0.0000
                                            0.0000  0.0000  0.0000  0.9985  0.0277
                                            0.0052  0.0047  0.0000  0.0000  0.0000
                                            0.0270  0.0064 -0.0004 -0.0327  0.0060
                                            0.0112  0.0000  0.0000  0.0000  0.0000
                                            0.0000  0.0000 -0.0095 -0.0003  0.0000
                                            0.0000  0.0000  0.0000  0.0048 -0.0036
                                            0.0006  0.0020  0.0000  0.0000  0.0000
                                            0.0000
    20. (1.97513) LP ( 1)Cl   2           s( 92.29%)p 0.08(  7.69%)d 0.00(  0.02%)
                                                  f 0.00(  0.00%)
                                            0.0000  0.0003  0.9606  0.0062  0.0012
                                           -0.0002  0.0000  0.2772 -0.0059 -0.0028
                                            0.0009 -0.0000 -0.0020  0.0019  0.0002
                                           -0.0003  0.0000  0.0000  0.0000  0.0000
                                            0.0000  0.0002 -0.0001 -0.0004  0.0000
                                            0.0000  0.0000  0.0000  0.0000  0.0000
                                           -0.0118  0.0004 -0.0003  0.0074  0.0004
                                            0.0006  0.0000  0.0000 -0.0018 -0.0006
                                            0.0001 -0.0000  0.0000  0.0000  0.0000
                                            0.0000  0.0030  0.0002 -0.0005  0.0003
    21. (1.95647) LP ( 2)Cl   2           s(  0.00%)p 1.00( 99.95%)d 0.00(  0.04%)
                                                  f 0.00(  0.01%)
                                            0.0000  0.0000  0.0000  0.0000  0.0000
                                            0.0000  0.0000  0.0000  0.0000  0.0000
                                            0.0000  0.0000  0.0000  0.0000  0.0000
                                            0.0000 -0.0002  0.9996  0.0156  0.0051
                                           -0.0021  0.0000  0.0000  0.0000  0.0065
                                            0.0158  0.0091  0.0042  0.0036  0.0014
                                            0.0000  0.0000  0.0000  0.0000  0.0000
                                            0.0000 -0.0056  0.0007  0.0000  0.0000
                                            0.0000  0.0000  0.0070 -0.0011  0.0010
                                           -0.0007  0.0000  0.0000  0.0000  0.0000
    22. (1.95494) LP ( 3)Cl   2           s(  0.01%)p 1.00( 99.95%)d 0.00(  0.04%)
                                                  f 0.00(  0.01%)
                                            0.0000 -0.0000  0.0038  0.0065  0.0038
                                            0.0020  0.0000 -0.0063 -0.0004 -0.0002
                                           -0.0009 -0.0002  0.9996  0.0129  0.0017
                                            0.0002  0.0000  0.0000  0.0000  0.0000
                                            0.0000 -0.0035  0.0125  0.0081  0.0000
                                            0.0000  0.0000  0.0000  0.0000  0.0000
                                           -0.0087 -0.0055 -0.0036 -0.0013 -0.0031
                                           -0.0010  0.0000  0.0000  0.0003 -0.0000
                                           -0.0023 -0.0001  0.0000  0.0000  0.0000
                                            0.0000 -0.0015  0.0005  0.0091 -0.0014
    23. (1.98062) LP ( 1)Br   3           s( 98.62%)p 0.01(  1.38%)d 0.00(  0.00%)
                                                  f 0.00(  0.00%)
                                            0.0000  0.9931 -0.0002  0.0000 -0.0002
                                           -0.0000 -0.0000 -0.0304  0.0002 -0.0002
                                            0.0001 -0.0000 -0.1136  0.0008 -0.0007
                                            0.0003  0.0000  0.0000  0.0000  0.0000
                                            0.0000 -0.0000  0.0010 -0.0004  0.0001
                                            0.0000  0.0000  0.0000  0.0000  0.0000
                                            0.0000  0.0000  0.0000  0.0000 -0.0018
                                            0.0007 -0.0001  0.0000 -0.0012  0.0005
                                           -0.0001  0.0000  0.0000 -0.0001 -0.0001
                                           -0.0006 -0.0003  0.0000  0.0000  0.0000
                                            0.0000 -0.0005 -0.0002 -0.0005 -0.0002
    24. (1.95411) LP ( 2)Br   3           s(  0.00%)p 1.00( 99.99%)d 0.00(  0.01%)
                                                  f 0.00(  0.00%)
                                            0.0000  0.0000  0.0000  0.0000  0.0000
                                            0.0000  0.0000  0.0000  0.0000  0.0000
                                            0.0000  0.0000  0.0000  0.0000  0.0000
                                            0.0000  0.0000  1.0000  0.0008  0.0012
                                           -0.0006  0.0000  0.0000  0.0000  0.0000
                                           -0.0000  0.0020 -0.0007  0.0002 -0.0000
                                            0.0076 -0.0025  0.0000  0.0000  0.0000
                                            0.0000  0.0000  0.0000  0.0000  0.0000
                                            0.0000 -0.0017 -0.0012  0.0000  0.0000
                                            0.0000  0.0000 -0.0018 -0.0011  0.0010
                                            0.0008  0.0000  0.0000  0.0000  0.0000
    25. (1.95378) LP ( 3)Br   3           s(  0.00%)p 1.00( 99.99%)d 0.00(  0.01%)
                                                  f 0.00(  0.00%)
                                           -0.0000  0.0046  0.0004  0.0002  0.0005
                                           -0.0001  0.0000  0.9753  0.0009  0.0009
                                           -0.0005 -0.0000 -0.2208 -0.0000 -0.0003
                                            0.0002  0.0000  0.0000  0.0000  0.0000
                                            0.0000 -0.0000  0.0079 -0.0022 -0.0002
                                            0.0000  0.0000  0.0000  0.0000  0.0000
                                            0.0000  0.0000  0.0000 -0.0000  0.0032
                                           -0.0006 -0.0004  0.0000 -0.0002  0.0001
                                           -0.0000  0.0000  0.0000 -0.0007 -0.0005
                                            0.0000 -0.0000  0.0000  0.0000  0.0000
                                            0.0000 -0.0020 -0.0012  0.0015  0.0009
    26. (1.93078) LP ( 4)Br   3           s(  1.38%)p71.47( 98.59%)d 0.02(  0.03%)
                                                  f 0.00(  0.00%)
                                           -0.0001  0.1174  0.0016 -0.0003  0.0016
                                            0.0001 -0.0000  0.2187 -0.0008 -0.0006
                                            0.0010 -0.0001  0.9685 -0.0014 -0.0023
                                            0.0010  0.0000  0.0000  0.0000  0.0000
                                            0.0000 -0.0000  0.0068 -0.0019  0.0003
                                            0.0000  0.0000  0.0000  0.0000  0.0000
                                            0.0000  0.0000  0.0000  0.0001 -0.0131
                                            0.0028  0.0002  0.0000 -0.0090  0.0023
                                           -0.0003  0.0000  0.0000 -0.0007 -0.0005
                                           -0.0029 -0.0017  0.0000  0.0000  0.0000
                                            0.0000 -0.0024 -0.0014 -0.0025 -0.0010
    27. (0.01723) RY*( 1) O   1           s(  0.00%)p 1.00( 98.75%)d 0.01(  1.15%)
                                                  f 0.00(  0.10%)
                                            0.0000  0.0000  0.0000  0.0000  0.0000
                                            0.0000  0.0000  0.0000  0.0000  0.0000
                                            0.0000  0.0000  0.0000 -0.0314  0.9925
                                           -0.0378 -0.0115  0.0000  0.0000  0.0000
                                            0.0945  0.0316  0.0101 -0.0274  0.0109
                                            0.0251  0.0000  0.0000  0.0000  0.0000
                                            0.0000  0.0000 -0.0011  0.0080  0.0000
                                            0.0000  0.0000  0.0000  0.0241 -0.0157
                                           -0.0083  0.0025  0.0000  0.0000  0.0000
                                            0.0000
    28. (0.01448) RY*( 2) O   1           s( 32.22%)p 2.06( 66.25%)d 0.04(  1.35%)
                                                  f 0.01(  0.18%)
                                           -0.0000 -0.0097  0.5620 -0.0791  0.0067
                                            0.0483 -0.3293  0.0089  0.0166 -0.0095
                                            0.7415 -0.0143 -0.0348  0.0000  0.0000
                                            0.0000  0.0000  0.1075  0.0212  0.0008
                                            0.0000  0.0000  0.0000  0.0000  0.0000
                                            0.0000  0.0026  0.0074 -0.0032  0.0350
                                           -0.0027 -0.0142  0.0000  0.0000 -0.0055
                                            0.0030  0.0058  0.0032  0.0000  0.0000
                                            0.0000  0.0000  0.0268 -0.0100  0.0267
                                           -0.0126
    29. (0.00711) RY*( 3) O   1           s(  9.52%)p 0.53(  5.02%)d 8.82( 83.95%)
                                                  f 0.16(  1.51%)
                                           -0.0000  0.0177  0.3060 -0.0347  0.0019
                                           -0.0283 -0.1400  0.0051  0.0068 -0.0077
                                           -0.1604  0.0375 -0.0503 -0.0000 -0.0000
                                           -0.0000 -0.0000 -0.9122 -0.0313 -0.0225
                                           -0.0000 -0.0000 -0.0000 -0.0000 -0.0000
                                           -0.0000  0.0530  0.0219  0.0286  0.0405
                                            0.0059  0.0100 -0.0000 -0.0000 -0.0326
                                            0.0135  0.0116 -0.0072 -0.0000 -0.0000
                                           -0.0000 -0.0000 -0.0729  0.0162 -0.0823
                                            0.0365
    30. (0.00679) RY*( 4) O   1           s(  0.00%)p 1.00(  0.87%)d99.99( 97.67%)
                                                  f 1.67(  1.46%)
                                            0.0000  0.0000  0.0000  0.0000  0.0000
                                            0.0000  0.0000  0.0000  0.0000  0.0000
                                            0.0000  0.0000  0.0000 -0.0171 -0.0899
                                           -0.0178  0.0057  0.0000  0.0000  0.0000
                                            0.9629 -0.0038  0.0131  0.2214 -0.0171
                                           -0.0038  0.0000  0.0000  0.0000  0.0000
                                            0.0000  0.0000 -0.0484  0.0242  0.0000
                                            0.0000  0.0000  0.0000  0.0952 -0.0400
                                           -0.0299  0.0092  0.0000  0.0000  0.0000
                                            0.0000
    31. (0.00592) RY*( 5) O   1           s(  0.00%)p 1.00(  0.40%)d99.99( 98.52%)
                                                  f 2.72(  1.08%)
                                            0.0000  0.0000  0.0000  0.0000  0.0000
                                            0.0000  0.0000  0.0000  0.0000  0.0000
                                            0.0000  0.0000  0.0000  0.0367  0.0476
[...]
                                            0.2227  0.4038  0.0246 -0.2205  0.0592
                                           -0.0000 -0.0000 -0.0000 -0.6076  0.0151
                                           -0.0000 -0.0000 -0.0000 -0.0000  0.3006
                                            0.0066 -0.0905 -0.0107
   160. (0.00022) RY*(10) H   4           s(  1.59%)p29.50( 46.92%)d32.38( 51.49%)
                                            0.0128 -0.0112 -0.0687  0.1044 -0.0179
                                           -0.4125  0.0365 -0.1312 -0.5293 -0.0073
                                           -0.0000 -0.0000 -0.0000  0.0928 -0.0373
                                           -0.0000 -0.0000 -0.0000 -0.0000  0.3257
                                           -0.2351  0.5672 -0.1475
   161. (0.00019) RY*(11) H   4           s(  0.00%)p 1.00(  2.55%)d38.28( 97.45%)
                                            0.0000  0.0000  0.0000  0.0000  0.0000
                                            0.0000  0.0000  0.0000  0.0000  0.0000
                                           -0.0329  0.0065  0.1560  0.0000  0.0000
                                            0.9754  0.0828 -0.0222 -0.1260  0.0000
                                            0.0000  0.0000  0.0000
   162. (0.00019) RY*(12) H   4           s( 29.83%)p 0.33(  9.91%)d 2.02( 60.26%)
                                           -0.0052  0.0337  0.5436 -0.0400  0.1084
                                            0.2713 -0.0022  0.0407  0.1079  0.0202
                                            0.0000  0.0000  0.0000  0.2354  0.0311
                                            0.0000  0.0000  0.0000  0.0000 -0.3454
                                           -0.0342  0.5997  0.2569
   163. (0.00017) RY*(13) H   4           s(  0.00%)p 1.00( 60.30%)d 0.66( 39.70%)
                                            0.0000  0.0000  0.0000  0.0000  0.0000
                                            0.0000  0.0000  0.0000  0.0000  0.0000
                                           -0.0171 -0.0211  0.7760  0.0000  0.0000
                                           -0.1577 -0.2089  0.3484 -0.4551  0.0000
                                            0.0000  0.0000  0.0000
   164. (0.00015) RY*(14) H   4           s( 11.20%)p 4.67( 52.34%)d 3.26( 36.46%)
                                            0.0036  0.0168  0.3319 -0.0395 -0.0007
                                            0.1332 -0.6852 -0.0266 -0.1261  0.1398
                                           -0.0000 -0.0000 -0.0000  0.1122  0.3213
                                           -0.0000 -0.0000 -0.0000 -0.0000  0.3231
                                            0.2419 -0.0884 -0.2793
   165. (0.00013) RY*(15) H   4           s( 11.15%)p 2.02( 22.50%)d 5.95( 66.35%)
                                           -0.0126  0.0555  0.2940  0.1477  0.0774
                                           -0.0353  0.2498  0.0696  0.3581 -0.1495
                                            0.0000  0.0000  0.0000  0.4856 -0.3781
                                            0.0000  0.0000  0.0000  0.0000  0.4110
                                           -0.0532 -0.1247 -0.3122
   166. (0.00011) RY*(16) H   4           s( 36.48%)p 0.76( 27.76%)d 0.98( 35.77%)
                                           -0.0156  0.0465 -0.2776  0.5341 -0.0533
                                            0.1802 -0.0967  0.0356  0.4812 -0.0040
                                            0.0000  0.0000  0.0000 -0.3206  0.1380
                                            0.0000  0.0000  0.0000  0.0000  0.1249
                                            0.0414  0.4114 -0.2219
   167. (0.00010) RY*(17) H   4           s(  0.00%)p 1.00(  0.18%)d99.99( 99.82%)
                                            0.0000  0.0000  0.0000  0.0000  0.0000
                                            0.0000  0.0000  0.0000  0.0000  0.0000
                                            0.0168 -0.0271  0.0287  0.0000  0.0000
                                           -0.1211  0.9443  0.0581 -0.2974  0.0000
                                            0.0000  0.0000  0.0000
   168. (0.00008) RY*(18) H   4           s(  1.39%)p 2.84(  3.95%)d67.92( 94.65%)
   169. (0.00004) RY*(19) H   4           s( 40.14%)p 0.38( 15.20%)d 1.11( 44.66%)
   170. (0.00004) RY*(20) H   4           s(  0.00%)p 1.00( 23.25%)d 3.30( 76.75%)
   171. (0.00003) RY*(21) H   4           s(  4.95%)p 5.80( 28.68%)d13.42( 66.37%)
   172. (0.00002) RY*(22) H   4           s( 22.36%)p 1.28( 28.63%)d 2.19( 49.01%)
   173. (0.05625) BD*( 1) O   1 -Cl   2  
                ( 40.48%)   0.6362* O   1 s( 10.96%)p 8.08( 88.54%)d 0.04(  0.49%)
                                                  f 0.00(  0.02%)
                                           -0.0003 -0.3278  0.0440  0.0122  0.0004
                                           -0.9402  0.0190  0.0120  0.0079 -0.0106
                                            0.0275  0.0041  0.0007 -0.0000 -0.0000
                                           -0.0000 -0.0000  0.0281  0.0008 -0.0029
                                           -0.0000 -0.0000 -0.0000 -0.0000 -0.0000
                                           -0.0000 -0.0499 -0.0069 -0.0022  0.0390
                                            0.0034 -0.0010 -0.0000 -0.0000  0.0114
                                           -0.0009  0.0005 -0.0000 -0.0000 -0.0000
                                           -0.0000 -0.0000 -0.0048  0.0009  0.0007
                                           -0.0032
                ( 59.52%)  -0.7715*Cl   2 s(  7.96%)p11.39( 90.66%)d 0.16(  1.28%)
                                                  f 0.01(  0.11%)
                                            0.0000 -0.0005 -0.2766  0.0543  0.0104
                                           -0.0018  0.0003  0.9497 -0.0669 -0.0148
                                            0.0041  0.0000  0.0059  0.0008 -0.0024
                                            0.0006 -0.0000 -0.0000 -0.0000 -0.0000
                                           -0.0000 -0.0129 -0.0000 -0.0010 -0.0000
                                           -0.0000 -0.0000 -0.0000 -0.0000 -0.0000
                                           -0.0948  0.0096 -0.0003  0.0590 -0.0053
                                           -0.0005 -0.0000 -0.0000 -0.0206  0.0031
                                           -0.0002  0.0000 -0.0000 -0.0000 -0.0000
                                           -0.0000  0.0249 -0.0030  0.0005  0.0002
   174. (0.02827) BD*( 1) O   1 - H   4  
                ( 27.41%)   0.5235* O   1 s( 39.19%)p 1.54( 60.36%)d 0.01(  0.45%)
                                                  f 0.00(  0.01%)
                                            0.0003  0.6258 -0.0168 -0.0036  0.0007
                                           -0.2075  0.0220  0.0006  0.0010 -0.7475
                                            0.0357  0.0048  0.0029 -0.0000 -0.0000
                                           -0.0000 -0.0000  0.0053 -0.0050  0.0012
                                           -0.0000 -0.0000 -0.0000 -0.0000 -0.0000
                                           -0.0000 -0.0555 -0.0006 -0.0056 -0.0359
                                            0.0024  0.0006 -0.0000 -0.0000  0.0013
                                            0.0011  0.0071  0.0029 -0.0000 -0.0000
                                           -0.0000 -0.0000  0.0014  0.0042 -0.0006
                                            0.0051
                ( 72.59%)  -0.8520* H   4 s( 99.89%)p 0.00(  0.10%)d 0.00(  0.01%)
                                            0.9993 -0.0162  0.0007 -0.0002  0.0123
                                            0.0059  0.0009 -0.0046  0.0280 -0.0072
                                           -0.0000 -0.0000 -0.0000 -0.0013  0.0001
                                           -0.0000 -0.0000 -0.0000 -0.0000  0.0016
                                           -0.0040  0.0031 -0.0056


 NHO Directionality and "Bond Bending" (deviations from line of nuclear centers)

         [Thresholds for printing:  angular deviation  >  1.0 degree]
                                    hybrid p-character > 25.0%
                                    orbital occupancy  >  0.10e

                                Line of Centers        Hybrid 1              Hybrid 2
                                ---------------  -------------------   ------------------
                NBO               Theta   Phi    Theta   Phi    Dev    Theta   Phi    Dev
 ========================================================================================
     1. BD (   1) O   1 -Cl   2    90.0    0.0    90.0  358.6   1.4      --     --    --
     2. BD (   1) O   1 - H   4    90.0  256.5    90.0  255.4   1.2      --     --    --
    18. LP (   1) O   1             --     --     90.0  111.4   --       --     --    --
    19. LP (   2) O   1             --     --      0.0    0.0   --       --     --    --
    21. LP (   2)Cl   2             --     --      0.0    0.0   --       --     --    --
    22. LP (   3)Cl   2             --     --     90.0   90.4   --       --     --    --
    24. LP (   2)Br   3             --     --      0.0    0.0   --       --     --    --
    25. LP (   3)Br   3             --     --     90.0  347.3   --       --     --    --
    26. LP (   4)Br   3             --     --     90.0   77.3   --       --     --    --


 Natural Bond Orbitals (Summary):

           NBO                  Occupancy  
 -----------------------------------------------
 Molecular unit  1  (HOCl)
     1. BD (   1) O   1 -Cl   2          1.94251
     2. BD (   1) O   1 - H   4          1.97627
     3. CR (   1) O   1                  1.99935
     4. CR (   1)Cl   2                  2.00000
     5. CR (   2)Cl   2                  1.99986
     6. CR (   3)Cl   2                  1.99997
     7. CR (   4)Cl   2                  2.00003
     8. CR (   5)Cl   2                  2.00003
    18. LP (   1) O   1                  1.96660
    19. LP (   2) O   1                  1.95449
    20. LP (   1)Cl   2                  1.97513
    21. LP (   2)Cl   2                  1.95647
    22. LP (   3)Cl   2                  1.95494
    27. RY*(   1) O   1                  0.01723
    28. RY*(   2) O   1                  0.01448
    29. RY*(   3) O   1                  0.00711
    30. RY*(   4) O   1                  0.00679
    31. RY*(   5) O   1                  0.00592
    32. RY*(   6) O   1                  0.00562
    33. RY*(   7) O   1                  0.00542
    34. RY*(   8) O   1                  0.00250
    35. RY*(   9) O   1                  0.00181
    36. RY*(  10) O   1                  0.00082
    37. RY*(  11) O   1                  0.00066
    38. RY*(  12) O   1                  0.00055
    39. RY*(  13) O   1                  0.00052
    40. RY*(  14) O   1                  0.00048
    41. RY*(  15) O   1                  0.00048
    42. RY*(  16) O   1                  0.00045
    43. RY*(  17) O   1                  0.00042
    44. RY*(  18) O   1                  0.00043
    45. RY*(  19) O   1                  0.00043
    46. RY*(  20) O   1                  0.00042
    47. RY*(  21) O   1                  0.00040
    48. RY*(  22) O   1                  0.00038
    49. RY*(  23) O   1                  0.00031
    50. RY*(  24) O   1                  0.00026
    51. RY*(  25) O   1                  0.00021
    52. RY*(  26) O   1                  0.00016
    53. RY*(  27) O   1                  0.00013
    54. RY*(  28) O   1                  0.00012
    55. RY*(  29) O   1                  0.00012
    56. RY*(  30) O   1                  0.00009
    57. RY*(  31) O   1                  0.00008
    58. RY*(  32) O   1                  0.00008
    59. RY*(  33) O   1                  0.00008
    60. RY*(  34) O   1                  0.00008
    61. RY*(  35) O   1                  0.00007
    62. RY*(  36) O   1                  0.00008
    63. RY*(  37) O   1                  0.00006
    64. RY*(  38) O   1                  0.00004
    65. RY*(  39) O   1                  0.00003
    66. RY*(  40) O   1                  0.00003
    67. RY*(  41) O   1                  0.00003
    68. RY*(   1)Cl   2                  0.02241
    69. RY*(   2)Cl   2                  0.01707
    70. RY*(   3)Cl   2                  0.01662
    71. RY*(   4)Cl   2                  0.01604
    72. RY*(   5)Cl   2                  0.01127
    73. RY*(   6)Cl   2                  0.00898
    74. RY*(   7)Cl   2                  0.00874
    75. RY*(   8)Cl   2                  0.00606
    76. RY*(   9)Cl   2                  0.00167
    77. RY*(  10)Cl   2                  0.00126
    78. RY*(  11)Cl   2                  0.00126
    79. RY*(  12)Cl   2                  0.00119
    80. RY*(  13)Cl   2                  0.00118
    81. RY*(  14)Cl   2                  0.00116
    82. RY*(  15)Cl   2                  0.00108
    83. RY*(  16)Cl   2                  0.00091
    84. RY*(  17)Cl   2                  0.00075
    85. RY*(  18)Cl   2                  0.00075
    86. RY*(  19)Cl   2                  0.00062
    87. RY*(  20)Cl   2                  0.00052
    88. RY*(  21)Cl   2                  0.00040
    89. RY*(  22)Cl   2                  0.00036
    90. RY*(  23)Cl   2                  0.00034
    91. RY*(  24)Cl   2                  0.00027
    92. RY*(  25)Cl   2                  0.00017
    93. RY*(  26)Cl   2                  0.00014
    94. RY*(  27)Cl   2                  0.00013
    95. RY*(  28)Cl   2                  0.00012
    96. RY*(  29)Cl   2                  0.00012
    97. RY*(  30)Cl   2                  0.00013
    98. RY*(  31)Cl   2                  0.00010
    99. RY*(  32)Cl   2                  0.00010
   100. RY*(  33)Cl   2                  0.00009
   101. RY*(  34)Cl   2                  0.00009
   102. RY*(  35)Cl   2                  0.00009
   103. RY*(  36)Cl   2                  0.00007
   104. RY*(  37)Cl   2                  0.00005
   105. RY*(  38)Cl   2                  0.00006
   106. RY*(  39)Cl   2                  0.00003
   107. RY*(  40)Cl   2                  0.00003
   108. RY*(  41)Cl   2                  0.00001
   151. RY*(   1) H   4                  0.01073
   152. RY*(   2) H   4                  0.00579
   153. RY*(   3) H   4                  0.00518
   154. RY*(   4) H   4                  0.00334
   155. RY*(   5) H   4                  0.00063
   156. RY*(   6) H   4                  0.00043
   157. RY*(   7) H   4                  0.00041
   158. RY*(   8) H   4                  0.00029
   159. RY*(   9) H   4                  0.00026
   160. RY*(  10) H   4                  0.00022
   161. RY*(  11) H   4                  0.00019
   162. RY*(  12) H   4                  0.00019
   163. RY*(  13) H   4                  0.00017
   164. RY*(  14) H   4                  0.00015
   165. RY*(  15) H   4                  0.00013
   166. RY*(  16) H   4                  0.00011
   167. RY*(  17) H   4                  0.00010
   168. RY*(  18) H   4                  0.00008
   169. RY*(  19) H   4                  0.00004
   170. RY*(  20) H   4                  0.00004
   171. RY*(  21) H   4                  0.00003
   172. RY*(  22) H   4                  0.00002
   173. BD*(   1) O   1 -Cl   2          0.05625
   174. BD*(   1) O   1 - H   4          0.02827
       -------------------------------
              Total Lewis   25.72566  ( 98.8060%)
        Valence non-Lewis    0.08452  (  0.3246%)
        Rydberg non-Lewis    0.22634  (  0.8693%)
       -------------------------------
            Total unit  1   26.03652  (100.0000%)
           Charge unit  1   -0.03652

 Molecular unit  2  (Br)
     9. CR (   1)Br   3                  2.00001
    10. CR (   2)Br   3                  2.00002
    11. CR (   3)Br   3                  2.00001
    12. CR (   4)Br   3                  2.00002
    13. CR (   5)Br   3                  1.99768
    14. CR (   6)Br   3                  1.99771
    15. CR (   7)Br   3                  1.99769
    16. CR (   8)Br   3                  1.99767
    17. CR (   9)Br   3                  1.99769
    23. LP (   1)Br   3                  1.98062
    24. LP (   2)Br   3                  1.95411
    25. LP (   3)Br   3                  1.95378
    26. LP (   4)Br   3                  1.93078
   109. RY*(   1)Br   3                  0.01876
   110. RY*(   2)Br   3                  0.01872
   111. RY*(   3)Br   3                  0.01856
   112. RY*(   4)Br   3                  0.01856
   113. RY*(   5)Br   3                  0.01816
   114. RY*(   6)Br   3                  0.01186
   115. RY*(   7)Br   3                  0.01178
   116. RY*(   8)Br   3                  0.01055
   117. RY*(   9)Br   3                  0.00289
   118. RY*(  10)Br   3                  0.00180
   119. RY*(  11)Br   3                  0.00179
   120. RY*(  12)Br   3                  0.00174
   121. RY*(  13)Br   3                  0.00174
   122. RY*(  14)Br   3                  0.00173
   123. RY*(  15)Br   3                  0.00174
   124. RY*(  16)Br   3                  0.00174
   125. RY*(  17)Br   3                  0.00174
   126. RY*(  18)Br   3                  0.00174
   127. RY*(  19)Br   3                  0.00150
   128. RY*(  20)Br   3                  0.00146
   129. RY*(  21)Br   3                  0.00136
   130. RY*(  22)Br   3                  0.00079
   131. RY*(  23)Br   3                  0.00079
   132. RY*(  24)Br   3                  0.00074
   133. RY*(  25)Br   3                  0.00041
   134. RY*(  26)Br   3                  0.00028
   135. RY*(  27)Br   3                  0.00025
   136. RY*(  28)Br   3                  0.00025
   137. RY*(  29)Br   3                  0.00025
   138. RY*(  30)Br   3                  0.00025
   139. RY*(  31)Br   3                  0.00026
   140. RY*(  32)Br   3                  0.00025
   141. RY*(  33)Br   3                  0.00022
   142. RY*(  34)Br   3                  0.00022
   143. RY*(  35)Br   3                  0.00017
   144. RY*(  36)Br   3                  0.00016
   145. RY*(  37)Br   3                  0.00013
   146. RY*(  38)Br   3                  0.00011
   147. RY*(  39)Br   3                  0.00008
   148. RY*(  40)Br   3                  0.00007
   149. RY*(  41)Br   3                  0.00005
   150. RY*(  42)Br   3                  0.00000
       -------------------------------
              Total Lewis   35.80781  ( 99.5672%)
        Valence non-Lewis    0.00000  (  0.0000%)
        Rydberg non-Lewis    0.15567  (  0.4328%)
       -------------------------------
            Total unit  2   35.96348  (100.0000%)
           Charge unit  2   -0.96348
 Leave Link  607 at Tue Oct 19 14:33:07 2021, MaxMem= 16106127360 cpu:              72.6 elap:               2.6
 (Enter /sw/contrib/gaussian/g16/B01/g16/l9999.exe)
 1\1\GINC-N2207\SP\RMP2-FC\Gen\Br1Cl1H1O1(1-)\CGAVINH\19-Oct-2021\0\\#p
  pop=NBO SP NoSymm mp2/gen Pseudo=read density=current\\title\\-1,1\O\
 X,1,10.\Cl,1,1.68446532,2,90.\Br,1,3.06793175,2,90.,3,103.45029768,0\H
 ,1,0.75,2,90.,3,103.45029768,0\\Version=ES64L-G16RevB.01\HF=-950.45044
 54\MP2=-951.13887\RMSD=5.039e-09\Dipole=1.3754115,1.7847168,0.\Quadrup
 ole=8.4952341,-18.2478555,9.7526214,-6.9901839,0.,0.\PG=CS [SG(Br1Cl1H
 1O1)]\\@


 "WOULD YOU TELL ME PLEASE, WHICH WAY I OUGHT TO WALK FROM HERE?"
 "THAT DEPENDS A GREAT DEAL ON WHERE YOU WANT TO GO," SAID THE CAT.
 "I DON'T MUCH CARE WHERE -- ", SAID ALICE.
 "THEN IT DOESN'T MATTER WHICH WAY YOU WALK," SAID THE CAT.

                                      -- LEWIS CARROLL
 Job cpu time:       0 days  0 hours  5 minutes 56.7 seconds.
 Elapsed time:       0 days  0 hours  0 minutes 18.6 seconds.
 File lengths (MBytes):  RWF=     15 Int=      0 D2E=      0 Chk=      8 Scr=      1
 Normal termination of Gaussian 16 at Tue Oct 19 14:33:07 2021.
