 Entering Gaussian System, Link 0=g16
 Input=brhocl_pp_rOH_130_sp.gjf
 Output=brhocl_pp_rOH_130_sp.log
 Initial command:
 /sw/contrib/gaussian/g16/B01/g16/l1.exe "/scr/Gau-6855.inp" -scrdir="/scr/"
 Entering Link 1 = /sw/contrib/gaussian/g16/B01/g16/l1.exe PID=      6856.
  
 Copyright (c) 1988-2017, Gaussian, Inc.  All Rights Reserved.
  
 This is part of the Gaussian(R) 16 program.  It is based on
 the Gaussian(R) 09 system (copyright 2009, Gaussian, Inc.),
 the Gaussian(R) 03 system (copyright 2003, Gaussian, Inc.),
 the Gaussian(R) 98 system (copyright 1998, Gaussian, Inc.),
 the Gaussian(R) 94 system (copyright 1995, Gaussian, Inc.),
 the Gaussian 92(TM) system (copyright 1992, Gaussian, Inc.),
 the Gaussian 90(TM) system (copyright 1990, Gaussian, Inc.),
 the Gaussian 88(TM) system (copyright 1988, Gaussian, Inc.),
 the Gaussian 86(TM) system (copyright 1986, Carnegie Mellon
 University), and the Gaussian 82(TM) system (copyright 1983,
 Carnegie Mellon University). Gaussian is a federally registered
 trademark of Gaussian, Inc.
  
 This software contains proprietary and confidential information,
 including trade secrets, belonging to Gaussian, Inc.
  
 This software is provided under written license and may be
 used, copied, transmitted, or stored only in accord with that
 written license.
  
 The following legend is applicable only to US Government
 contracts under FAR:
  
                    RESTRICTED RIGHTS LEGEND
  
 Use, reproduction and disclosure by the US Government is
 subject to restrictions as set forth in subparagraphs (a)
 and (c) of the Commercial Computer Software - Restricted
 Rights clause in FAR 52.227-19.
  
 Gaussian, Inc.
 340 Quinnipiac St., Bldg. 40, Wallingford CT 06492
  
  
 ---------------------------------------------------------------
 Warning -- This program may not be used in any manner that
 competes with the business of Gaussian, Inc. or will provide
 assistance to any competitor of Gaussian, Inc.  The licensee
 of this program is prohibited from giving any competitor of
 Gaussian, Inc. access to this program.  By using this program,
 the user acknowledges that Gaussian, Inc. is engaged in the
 business of creating and licensing software in the field of
 computational chemistry and represents and warrants to the
 licensee that it is not a competitor of Gaussian, Inc. and that
 it will not use this program in any manner prohibited above.
 ---------------------------------------------------------------
  

 Cite this work as:
 Gaussian 16, Revision B.01,
 M. J. Frisch, G. W. Trucks, H. B. Schlegel, G. E. Scuseria, 
 M. A. Robb, J. R. Cheeseman, G. Scalmani, V. Barone, 
 G. A. Petersson, H. Nakatsuji, X. Li, M. Caricato, A. V. Marenich, 
 J. Bloino, B. G. Janesko, R. Gomperts, B. Mennucci, H. P. Hratchian, 
 J. V. Ortiz, A. F. Izmaylov, J. L. Sonnenberg, D. Williams-Young, 
 F. Ding, F. Lipparini, F. Egidi, J. Goings, B. Peng, A. Petrone, 
 T. Henderson, D. Ranasinghe, V. G. Zakrzewski, J. Gao, N. Rega, 
 G. Zheng, W. Liang, M. Hada, M. Ehara, K. Toyota, R. Fukuda, 
 J. Hasegawa, M. Ishida, T. Nakajima, Y. Honda, O. Kitao, H. Nakai, 
 T. Vreven, K. Throssell, J. A. Montgomery, Jr., J. E. Peralta, 
 F. Ogliaro, M. J. Bearpark, J. J. Heyd, E. N. Brothers, K. N. Kudin, 
 V. N. Staroverov, T. A. Keith, R. Kobayashi, J. Normand, 
 K. Raghavachari, A. P. Rendell, J. C. Burant, S. S. Iyengar, 
 J. Tomasi, M. Cossi, J. M. Millam, M. Klene, C. Adamo, R. Cammi, 
 J. W. Ochterski, R. L. Martin, K. Morokuma, O. Farkas, 
 J. B. Foresman, and D. J. Fox, Gaussian, Inc., Wallingford CT, 2016.
 
 ******************************************
 Gaussian 16:  ES64L-G16RevB.01 20-Dec-2017
                19-Oct-2021 
 ******************************************
 %nproc=28
 Will use up to   28 processors via shared memory.
 %mem=120GB
 %chk=/gscratch/ilahie/mccoygrp/coire_hocl/rOH_s_oop_0/brhocl_pp/brhocl_pp_rOH_13
 0_sp.chk
 --------------------------------------------------------
 #p pop=NBO SP NoSymm mp2/gen Pseudo=read density=current
 --------------------------------------------------------
 1/30=1,38=1,172=1/1;
 2/12=2,15=1,17=6,18=5,40=1/2;
 3/5=7,11=9,16=1,17=8,25=1,30=1,71=1/1,2,3;
 4//1;
 5/5=2,38=5/2;
 8/6=4,10=1/1;
 9/15=1,16=-3/6;
 10/5=1,13=10,31=1/2;
 6/7=2,8=2,9=2,10=2,22=-1,40=1/1,7;
 99/5=1,9=1/99;
 Leave Link    1 at Tue Oct 19 14:36:17 2021, MaxMem= 16106127360 cpu:               2.5 elap:               0.1
 (Enter /sw/contrib/gaussian/g16/B01/g16/l101.exe)
 -----
 title
 -----
 Symbolic Z-matrix:
 Charge = -1 Multiplicity = 1
 O
 X                    1     10. 
 Cl                   1    r1       2     90. 
 Br                   1    r2       2     90.      3    a1       0
 H                    1    r3       2    oop      3    a1       0
       Variables:
  r1                    1.68447                  
  r2                    3.06793                  
  r3                    1.3                      
  a1                  103.4503                   
  OOP                  90.                       
 
 ITRead=  0  0  0  0
 MicOpt= -1 -1 -1 -1
 NAtoms=      4 NQM=        4 NQMF=       0 NMMI=      0 NMMIF=      0
                NMic=       0 NMicF=      0.
                    Isotopes and Nuclear Properties:
 (Nuclear quadrupole moments (NQMom) in fm**2, nuclear magnetic moments (NMagM)
  in nuclear magnetons)

  Atom         1           2           3           4
 IAtWgt=          16          35          79           1
 AtmWgt=  15.9949146  34.9688527  78.9183361   1.0078250
 NucSpn=           0           3           3           1
 AtZEff=  -0.0000000  -0.0000000  -0.0000000  -0.0000000
 NQMom=    0.0000000  -8.1650000  31.3000000   0.0000000
 NMagM=    0.0000000   0.8218740   2.1063990   2.7928460
 AtZNuc=   8.0000000  17.0000000  35.0000000   1.0000000
 Leave Link  101 at Tue Oct 19 14:36:17 2021, MaxMem= 16106127360 cpu:               2.1 elap:               0.1
 (Enter /sw/contrib/gaussian/g16/B01/g16/l202.exe)
                          Input orientation:                          
 ---------------------------------------------------------------------
 Center     Atomic      Atomic             Coordinates (Angstroms)
 Number     Number       Type             X           Y           Z
 ---------------------------------------------------------------------
      1          8           0        0.000000    0.000000    0.000000
      2         17           0        1.684465    0.000000    0.000000
      3         35           0       -0.713606   -2.983785    0.000000
      4          1           0       -0.302382   -1.264344    0.000000
 ---------------------------------------------------------------------
                    Distance matrix (angstroms):
                    1          2          3          4
     1  O    0.000000
     2  Cl   1.684465   0.000000
     3  Br   3.067932   3.828018   0.000000
     4  H    1.300000   2.355022   1.767932   0.000000
 Symmetry turned off by external request.
 Stoichiometry    BrClHO(1-)
 Framework group  CS[SG(BrClHO)]
 Deg. of freedom     5
 Full point group                 CS      NOp   2
 Rotational constants (GHZ):          22.8018343           1.2849990           1.2164461
 Leave Link  202 at Tue Oct 19 14:36:17 2021, MaxMem= 16106127360 cpu:               1.1 elap:               0.1
 (Enter /sw/contrib/gaussian/g16/B01/g16/l301.exe)
 General basis read from cards:  (5D, 7F)
 Centers:       2      1      4
 aug-cc-pVTZ
 ****
 Centers:       3
 S 10 1.00
     Exponent=  9.6593900000D+03 Coefficients=  3.7100000000D-04
     Exponent=  1.4559600000D+03 Coefficients=  2.5710000000D-03
     Exponent=  3.2591400000D+02 Coefficients=  8.4850000000D-03
     Exponent=  4.6565700000D+01 Coefficients=  7.8222000000D-02
     Exponent=  1.8246900000D+01 Coefficients= -3.9714900000D-01
     Exponent=  3.8020100000D+00 Coefficients=  6.8586400000D-01
     Exponent=  1.7863200000D+00 Coefficients=  4.8681900000D-01
     Exponent=  6.0271400000D-01 Coefficients=  3.4913000000D-02
     Exponent=  2.8401400000D-01 Coefficients= -6.5730000000D-03
     Exponent=  1.2027100000D-01 Coefficients=  1.6420000000D-03
 S 10 1.00
     Exponent=  9.6593900000D+03 Coefficients= -1.5200000000D-04
     Exponent=  1.4559600000D+03 Coefficients= -1.0080000000D-03
     Exponent=  3.2591400000D+02 Coefficients= -3.6090000000D-03
     Exponent=  4.6565700000D+01 Coefficients= -2.7872000000D-02
     Exponent=  1.8246900000D+01 Coefficients=  1.5131700000D-01
     Exponent=  3.8020100000D+00 Coefficients= -3.5149700000D-01
     Exponent=  1.7863200000D+00 Coefficients= -4.1070300000D-01
     Exponent=  6.0271400000D-01 Coefficients=  3.4731600000D-01
     Exponent=  2.8401400000D-01 Coefficients=  6.7549100000D-01
     Exponent=  1.2027100000D-01 Coefficients=  2.4400800000D-01
 S 1 1.00
     Exponent=  6.0271400000D-01 Coefficients=  1.0000000000D+00
 S 1 1.00
     Exponent=  2.8401400000D-01 Coefficients=  1.0000000000D+00
 S 1 1.00
     Exponent=  1.2027100000D-01 Coefficients=  1.0000000000D+00
 S 1 1.00
     Exponent=  4.4500000000D-02 Coefficients=  1.0000000000D+00
 P 9 1.00
     Exponent=  4.9218700000D+02 Coefficients=  4.7200000000D-04
     Exponent=  9.2364200000D+01 Coefficients=  5.4940000000D-03
     Exponent=  2.7071800000D+01 Coefficients= -8.8030000000D-02
     Exponent=  7.2653900000D+00 Coefficients=  3.4348500000D-01
     Exponent=  3.4848100000D+00 Coefficients=  5.1020800000D-01
     Exponent=  1.6404800000D+00 Coefficients=  2.4863100000D-01
     Exponent=  6.4857000000D-01 Coefficients=  2.2201000000D-02
     Exponent=  2.5640700000D-01 Coefficients= -4.1900000000D-04
     Exponent=  9.5304000000D-02 Coefficients=  6.5600000000D-04
 P 9 1.00
     Exponent=  4.9218700000D+02 Coefficients= -1.5800000000D-04
     Exponent=  9.2364200000D+01 Coefficients= -1.3440000000D-03
     Exponent=  2.7071800000D+01 Coefficients=  2.4616000000D-02
     Exponent=  7.2653900000D+00 Coefficients= -1.1253200000D-01
     Exponent=  3.4848100000D+00 Coefficients= -1.7977500000D-01
     Exponent=  1.6404800000D+00 Coefficients= -7.3661000000D-02
     Exponent=  6.4857000000D-01 Coefficients=  3.4873400000D-01
     Exponent=  2.5640700000D-01 Coefficients=  5.5794800000D-01
     Exponent=  9.5304000000D-02 Coefficients=  2.6645600000D-01
 P 1 1.00
     Exponent=  7.6660000000D-01 Coefficients=  1.0000000000D+00
 P 1 1.00
     Exponent=  1.1820000000D-01 Coefficients=  1.0000000000D+00
 P 1 1.00
     Exponent=  3.9600000000D-02 Coefficients=  1.0000000000D+00
 D 8 1.00
     Exponent=  3.3899600000D+02 Coefficients=  1.5240000000D-03
     Exponent=  1.0321700000D+02 Coefficients=  1.5673000000D-02
     Exponent=  4.2363800000D+01 Coefficients=  7.2400000000D-02
     Exponent=  1.8435600000D+01 Coefficients=  1.8630300000D-01
     Exponent=  8.3725400000D+00 Coefficients=  3.2388100000D-01
     Exponent=  3.8022200000D+00 Coefficients=  3.7453400000D-01
     Exponent=  1.6867700000D+00 Coefficients=  2.5741800000D-01
     Exponent=  6.7752000000D-01 Coefficients=  6.8051000000D-02
 D 1 1.00
     Exponent=  6.7752000000D-01 Coefficients=  1.0000000000D+00
 D 1 1.00
     Exponent=  2.5530000000D-01 Coefficients=  1.0000000000D+00
 D 1 1.00
     Exponent=  1.0090000000D-01 Coefficients=  1.0000000000D+00
 F 1 1.00
     Exponent=  5.6060000000D-01 Coefficients=  1.0000000000D+00
 F 1 1.00
     Exponent=  2.4540000000D-01 Coefficients=  1.0000000000D+00
 ****
 ======================================================================================================
                                       Pseudopotential Parameters
 ======================================================================================================
  Center     Atomic      Valence      Angular      Power
  Number     Number     Electrons     Momentum     of R      Exponent        Coefficient   SO-Coeffient
 ======================================================================================================
    1          8
                                   No pseudopotential on this center.
    2         17
                                   No pseudopotential on this center.
    3         35           25
                                      G and up 
                                                     2        1.0000000        0.00000000    0.00000000
                                      S - G
                                                     2       70.0242570       49.96283400    0.00000000
                                                     2       31.1784120      370.01420500    0.00000000
                                                     2        7.1565930       10.24143900    0.00000000
                                      P - G
                                                     2       46.7734710       99.11224400    0.00000000
                                                     2       46.1841200      198.25304600    0.00000000
                                                     2       21.7138580       28.26174000    0.00000000
                                                     2       20.9417920       56.62336600    0.00000000
                                      D - G
                                                     2       50.6988390      -18.60585300    0.00000000
                                                     2       50.6447640      -27.92328000    0.00000000
                                                     2       15.4475090       -0.37969300    0.00000000
                                                     2       15.5002590       -0.78058300    0.00000000
                                                     2        2.8003910        0.03596800    0.00000000
                                                     2        1.0774800        0.09439700    0.00000000
                                      F - G
                                                     2       14.4656060       -1.09126900    0.00000000
                                                     2       21.2340650       -2.88769100    0.00000000
    4          1
                                   No pseudopotential on this center.
 ======================================================================================================
 Ernie: Thresh=  0.10000D-02 Tol=  0.10000D-05 Strict=F.
 Ernie:  25 primitive shells out of 163 were deleted.
   174 basis functions,   373 primitive gaussians,   204 cartesian basis functions
    26 alpha electrons       26 beta electrons
       nuclear repulsion energy       150.5324408118 Hartrees.
 IExCor=    0 DFT=F Ex=HF Corr=None ExCW=0 ScaHFX=  1.000000
 ScaDFX=  1.000000  1.000000  1.000000  1.000000 ScalE2=  1.000000  1.000000
 IRadAn=      5 IRanWt=     -1 IRanGd=            0 ICorTp=0 IEmpDi=  4
 NAtoms=    4 NActive=    4 NUniq=    4 SFac= 1.00D+00 NAtFMM=   60 NAOKFM=F Big=F
 Integral buffers will be    131072 words long.
 Raffenetti 1 integral format.
 Two-electron integral symmetry is turned off.
 Leave Link  301 at Tue Oct 19 14:36:17 2021, MaxMem= 16106127360 cpu:               2.9 elap:               0.1
 (Enter /sw/contrib/gaussian/g16/B01/g16/l302.exe)
 NPDir=0 NMtPBC=     1 NCelOv=     1 NCel=       1 NClECP=     1 NCelD=      1
         NCelK=      1 NCelE2=     1 NClLst=     1 CellRange=     0.0.
 One-electron integrals computed using PRISM.
   1 Symmetry operations used in ECPInt.
 ECPInt:  NShTT=    1596 NPrTT=    9902 LenC2=    1595 LenP2D=    7770.
 LDataN:  DoStor=T MaxTD1= 7 Len=  274
 NBasis=   174 RedAO= T EigKep=  2.61D-04  NBF=   174
 NBsUse=   174 1.00D-06 EigRej= -1.00D+00 NBFU=   174
 Leave Link  302 at Tue Oct 19 14:36:17 2021, MaxMem= 16106127360 cpu:               6.3 elap:               0.3
 (Enter /sw/contrib/gaussian/g16/B01/g16/l303.exe)
 DipDrv:  MaxL=1.
 Leave Link  303 at Tue Oct 19 14:36:17 2021, MaxMem= 16106127360 cpu:               0.8 elap:               0.1
 (Enter /sw/contrib/gaussian/g16/B01/g16/l401.exe)
 ExpMin= 2.53D-02 ExpMax= 4.56D+05 ExpMxC= 1.44D+03 IAcc=3 IRadAn=         5 AccDes= 0.00D+00
 Harris functional with IExCor=  205 and IRadAn=       5 diagonalized for initial guess.
 HarFok:  IExCor=  205 AccDes= 0.00D+00 IRadAn=         5 IDoV= 1 UseB2=F ITyADJ=14
 ICtDFT=  3500011 ScaDFX=  1.000000  1.000000  1.000000  1.000000
 FoFCou: FMM=F IPFlag=           0 FMFlag=      100000 FMFlg1=           0
         NFxFlg=           0 DoJE=T BraDBF=F KetDBF=T FulRan=T
         wScrn=  0.000000 ICntrl=       500 IOpCl=  0 I1Cent=   200000004 NGrid=           0
         NMat0=    1 NMatS0=      1 NMatT0=    0 NMatD0=    1 NMtDS0=    0 NMtDT0=    0
 Symmetry not used in FoFCou.
 Harris En= -951.897326318089    
 JPrj=0 DoOrth=F DoCkMO=F.
 Leave Link  401 at Tue Oct 19 14:36:18 2021, MaxMem= 16106127360 cpu:               6.8 elap:               0.3
 (Enter /sw/contrib/gaussian/g16/B01/g16/l502.exe)
 Keep R1 ints in memory in canonical form, NReq=152797444.
 FoFCou: FMM=F IPFlag=           0 FMFlag=           0 FMFlg1=           0
         NFxFlg=           0 DoJE=F BraDBF=F KetDBF=F FulRan=T
         wScrn=  0.000000 ICntrl=       600 IOpCl=  0 I1Cent=           0 NGrid=           0
         NMat0=    1 NMatS0=  15225 NMatT0=    0 NMatD0=    1 NMtDS0=    0 NMtDT0=    0
 Symmetry not used in FoFCou.
 Two-electron integral symmetry not used.
 Closed shell SCF:
 Using DIIS extrapolation, IDIIS=  1040.
 NGot= 16106127360 LenX= 15990129205 LenY= 15990087148
 Requested convergence on RMS density matrix=1.00D-08 within 128 cycles.
 Requested convergence on MAX density matrix=1.00D-06.
 Requested convergence on             energy=1.00D-06.
 No special actions if energy rises.

 Cycle   1  Pass 1  IDiag  1:
 E= -950.352173516127    
 DIIS: error= 3.12D-02 at cycle   1 NSaved=   1.
 NSaved= 1 IEnMin= 1 EnMin= -950.352173516127     IErMin= 1 ErrMin= 3.12D-02
 ErrMax= 3.12D-02  0.00D+00 EMaxC= 1.00D-01 BMatC= 3.33D-01 BMatP= 3.33D-01
 IDIUse=3 WtCom= 6.88D-01 WtEn= 3.12D-01
 Coeff-Com:  0.100D+01
 Coeff-En:   0.100D+01
 Coeff:      0.100D+01
 Gap=     0.546 Goal=   None    Shift=    0.000
 GapD=    0.546 DampG=2.000 DampE=0.500 DampFc=1.0000 IDamp=-1.
 RMSDP=3.38D-03 MaxDP=2.06D-01              OVMax= 1.32D-01

 Cycle   2  Pass 1  IDiag  1:
 E= -950.459730712923     Delta-E=       -0.107557196796 Rises=F Damp=F
 DIIS: error= 1.74D-02 at cycle   2 NSaved=   2.
 NSaved= 2 IEnMin= 2 EnMin= -950.459730712923     IErMin= 2 ErrMin= 1.74D-02
 ErrMax= 1.74D-02  0.00D+00 EMaxC= 1.00D-01 BMatC= 4.32D-02 BMatP= 3.33D-01
 IDIUse=3 WtCom= 8.26D-01 WtEn= 1.74D-01
 Coeff-Com:  0.180D+00 0.820D+00
 Coeff-En:   0.000D+00 0.100D+01
 Coeff:      0.148D+00 0.852D+00
 Gap=     0.386 Goal=   None    Shift=    0.000
 RMSDP=1.01D-03 MaxDP=3.79D-02 DE=-1.08D-01 OVMax= 7.18D-02

 Cycle   3  Pass 1  IDiag  1:
 E= -950.480482218544     Delta-E=       -0.020751505621 Rises=F Damp=F
 DIIS: error= 9.30D-03 at cycle   3 NSaved=   3.
 NSaved= 3 IEnMin= 3 EnMin= -950.480482218544     IErMin= 3 ErrMin= 9.30D-03
 ErrMax= 9.30D-03  0.00D+00 EMaxC= 1.00D-01 BMatC= 1.44D-02 BMatP= 4.32D-02
 IDIUse=3 WtCom= 9.07D-01 WtEn= 9.30D-02
 Coeff-Com: -0.128D-01 0.356D+00 0.657D+00
 Coeff-En:   0.000D+00 0.175D+00 0.825D+00
 Coeff:     -0.116D-01 0.339D+00 0.672D+00
 Gap=     0.368 Goal=   None    Shift=    0.000
 RMSDP=3.92D-04 MaxDP=1.65D-02 DE=-2.08D-02 OVMax= 3.75D-02

 Cycle   4  Pass 1  IDiag  1:
 E= -950.490560691763     Delta-E=       -0.010078473219 Rises=F Damp=F
 DIIS: error= 1.43D-03 at cycle   4 NSaved=   4.
 NSaved= 4 IEnMin= 4 EnMin= -950.490560691763     IErMin= 4 ErrMin= 1.43D-03
 ErrMax= 1.43D-03  0.00D+00 EMaxC= 1.00D-01 BMatC= 2.70D-04 BMatP= 1.44D-02
 IDIUse=3 WtCom= 9.86D-01 WtEn= 1.43D-02
 Coeff-Com: -0.491D-02 0.351D-01 0.135D+00 0.835D+00
 Coeff-En:   0.000D+00 0.000D+00 0.000D+00 0.100D+01
 Coeff:     -0.483D-02 0.346D-01 0.133D+00 0.837D+00
 Gap=     0.363 Goal=   None    Shift=    0.000
 RMSDP=8.31D-05 MaxDP=2.50D-03 DE=-1.01D-02 OVMax= 4.99D-03

 Cycle   5  Pass 1  IDiag  1:
 E= -950.490864761091     Delta-E=       -0.000304069328 Rises=F Damp=F
 DIIS: error= 2.67D-04 at cycle   5 NSaved=   5.
 NSaved= 5 IEnMin= 5 EnMin= -950.490864761091     IErMin= 5 ErrMin= 2.67D-04
 ErrMax= 2.67D-04  0.00D+00 EMaxC= 1.00D-01 BMatC= 3.36D-05 BMatP= 2.70D-04
 IDIUse=3 WtCom= 9.97D-01 WtEn= 2.67D-03
 Coeff-Com:  0.204D-03-0.457D-01-0.751D-01 0.658D-01 0.105D+01
 Coeff-En:   0.000D+00 0.000D+00 0.000D+00 0.000D+00 0.100D+01
 Coeff:      0.204D-03-0.456D-01-0.749D-01 0.656D-01 0.105D+01
 Gap=     0.363 Goal=   None    Shift=    0.000
 RMSDP=5.04D-05 MaxDP=1.72D-03 DE=-3.04D-04 OVMax= 4.55D-03

 Cycle   6  Pass 1  IDiag  1:
 E= -950.490949943292     Delta-E=       -0.000085182201 Rises=F Damp=F
 DIIS: error= 1.45D-04 at cycle   6 NSaved=   6.
 NSaved= 6 IEnMin= 6 EnMin= -950.490949943292     IErMin= 6 ErrMin= 1.45D-04
 ErrMax= 1.45D-04  0.00D+00 EMaxC= 1.00D-01 BMatC= 4.65D-06 BMatP= 3.36D-05
 IDIUse=3 WtCom= 9.99D-01 WtEn= 1.45D-03
 Coeff-Com:  0.104D-02 0.375D-02 0.336D-02-0.992D-01-0.382D+00 0.147D+01
 Coeff-En:   0.000D+00 0.000D+00 0.000D+00 0.000D+00 0.000D+00 0.100D+01
 Coeff:      0.104D-02 0.375D-02 0.335D-02-0.990D-01-0.381D+00 0.147D+01
 Gap=     0.364 Goal=   None    Shift=    0.000
 RMSDP=3.02D-05 MaxDP=1.02D-03 DE=-8.52D-05 OVMax= 2.84D-03

 Cycle   7  Pass 1  IDiag  1:
 E= -950.490969859721     Delta-E=       -0.000019916429 Rises=F Damp=F
 DIIS: error= 5.16D-05 at cycle   7 NSaved=   7.
 NSaved= 7 IEnMin= 7 EnMin= -950.490969859721     IErMin= 7 ErrMin= 5.16D-05
 ErrMax= 5.16D-05  0.00D+00 EMaxC= 1.00D-01 BMatC= 2.90D-07 BMatP= 4.65D-06
 IDIUse=1 WtCom= 1.00D+00 WtEn= 0.00D+00
 Coeff-Com: -0.379D-03 0.253D-02 0.593D-02 0.225D-01 0.558D-01-0.525D+00
 Coeff-Com:  0.144D+01
 Coeff:     -0.379D-03 0.253D-02 0.593D-02 0.225D-01 0.558D-01-0.525D+00
 Coeff:      0.144D+01
 Gap=     0.364 Goal=   None    Shift=    0.000
 RMSDP=8.79D-06 MaxDP=4.09D-04 DE=-1.99D-05 OVMax= 8.22D-04

 Cycle   8  Pass 1  IDiag  1:
 E= -950.490971132532     Delta-E=       -0.000001272811 Rises=F Damp=F
 DIIS: error= 7.47D-06 at cycle   8 NSaved=   8.
 NSaved= 8 IEnMin= 8 EnMin= -950.490971132532     IErMin= 8 ErrMin= 7.47D-06
 ErrMax= 7.47D-06  0.00D+00 EMaxC= 1.00D-01 BMatC= 1.28D-08 BMatP= 2.90D-07
 IDIUse=1 WtCom= 1.00D+00 WtEn= 0.00D+00
 Coeff-Com: -0.459D-04-0.414D-03-0.231D-03 0.627D-02 0.249D-01-0.105D+00
 Coeff-Com:  0.731D-01 0.100D+01
 Coeff:     -0.459D-04-0.414D-03-0.231D-03 0.627D-02 0.249D-01-0.105D+00
 Coeff:      0.731D-01 0.100D+01
 Gap=     0.364 Goal=   None    Shift=    0.000
 RMSDP=1.27D-06 MaxDP=7.21D-05 DE=-1.27D-06 OVMax= 9.62D-05

 Cycle   9  Pass 1  IDiag  1:
 E= -950.490971162339     Delta-E=       -0.000000029808 Rises=F Damp=F
 DIIS: error= 1.76D-06 at cycle   9 NSaved=   9.
 NSaved= 9 IEnMin= 9 EnMin= -950.490971162339     IErMin= 9 ErrMin= 1.76D-06
 ErrMax= 1.76D-06  0.00D+00 EMaxC= 1.00D-01 BMatC= 1.01D-09 BMatP= 1.28D-08
 IDIUse=1 WtCom= 1.00D+00 WtEn= 0.00D+00
 Coeff-Com:  0.218D-04-0.226D-03-0.362D-03-0.132D-02-0.517D-02 0.413D-01
 Coeff-Com: -0.119D+00 0.251D-01 0.106D+01
 Coeff:      0.218D-04-0.226D-03-0.362D-03-0.132D-02-0.517D-02 0.413D-01
 Coeff:     -0.119D+00 0.251D-01 0.106D+01
 Gap=     0.364 Goal=   None    Shift=    0.000
 RMSDP=4.13D-07 MaxDP=2.51D-05 DE=-2.98D-08 OVMax= 2.28D-05

 Cycle  10  Pass 1  IDiag  1:
 E= -950.490971164869     Delta-E=       -0.000000002530 Rises=F Damp=F
 DIIS: error= 5.86D-07 at cycle  10 NSaved=  10.
 NSaved=10 IEnMin=10 EnMin= -950.490971164869     IErMin=10 ErrMin= 5.86D-07
 ErrMax= 5.86D-07  0.00D+00 EMaxC= 1.00D-01 BMatC= 8.20D-11 BMatP= 1.01D-09
 IDIUse=1 WtCom= 1.00D+00 WtEn= 0.00D+00
 Coeff-Com: -0.162D-05 0.662D-04 0.870D-04-0.224D-03 0.206D-04-0.280D-02
 Coeff-Com:  0.205D-01-0.650D-01-0.203D+00 0.125D+01
 Coeff:     -0.162D-05 0.662D-04 0.870D-04-0.224D-03 0.206D-04-0.280D-02
 Coeff:      0.205D-01-0.650D-01-0.203D+00 0.125D+01
 Gap=     0.364 Goal=   None    Shift=    0.000
 RMSDP=1.40D-07 MaxDP=6.76D-06 DE=-2.53D-09 OVMax= 8.26D-06

 Cycle  11  Pass 1  IDiag  1:
 E= -950.490971165209     Delta-E=       -0.000000000340 Rises=F Damp=F
 DIIS: error= 3.61D-07 at cycle  11 NSaved=  11.
 NSaved=11 IEnMin=11 EnMin= -950.490971165209     IErMin=11 ErrMin= 3.61D-07
 ErrMax= 3.61D-07  0.00D+00 EMaxC= 1.00D-01 BMatC= 1.71D-11 BMatP= 8.20D-11
 IDIUse=1 WtCom= 1.00D+00 WtEn= 0.00D+00
 Coeff-Com: -0.154D-05-0.107D-04-0.559D-05 0.288D-03 0.449D-03-0.286D-02
 Coeff-Com:  0.233D-02 0.252D-01 0.166D-01-0.723D+00 0.168D+01
 Coeff:     -0.154D-05-0.107D-04-0.559D-05 0.288D-03 0.449D-03-0.286D-02
 Coeff:      0.233D-02 0.252D-01 0.166D-01-0.723D+00 0.168D+01
 Gap=     0.364 Goal=   None    Shift=    0.000
 RMSDP=8.16D-08 MaxDP=1.82D-06 DE=-3.40D-10 OVMax= 6.36D-06

 Cycle  12  Pass 1  IDiag  1:
 E= -950.490971165306     Delta-E=       -0.000000000097 Rises=F Damp=F
 DIIS: error= 1.44D-07 at cycle  12 NSaved=  12.
 NSaved=12 IEnMin=12 EnMin= -950.490971165306     IErMin=12 ErrMin= 1.44D-07
 ErrMax= 1.44D-07  0.00D+00 EMaxC= 1.00D-01 BMatC= 2.49D-12 BMatP= 1.71D-11
 IDIUse=1 WtCom= 1.00D+00 WtEn= 0.00D+00
 Coeff-Com: -0.241D-06-0.114D-04-0.120D-04 0.743D-04 0.414D-04 0.126D-03
 Coeff-Com: -0.307D-02 0.129D-01 0.419D-01-0.269D+00-0.160D-01 0.123D+01
 Coeff:     -0.241D-06-0.114D-04-0.120D-04 0.743D-04 0.414D-04 0.126D-03
 Coeff:     -0.307D-02 0.129D-01 0.419D-01-0.269D+00-0.160D-01 0.123D+01
 Gap=     0.364 Goal=   None    Shift=    0.000
 RMSDP=3.60D-08 MaxDP=7.89D-07 DE=-9.69D-11 OVMax= 2.96D-06

 Cycle  13  Pass 1  IDiag  1:
 E= -950.490971165327     Delta-E=       -0.000000000021 Rises=F Damp=F
 DIIS: error= 3.56D-08 at cycle  13 NSaved=  13.
 NSaved=13 IEnMin=13 EnMin= -950.490971165327     IErMin=13 ErrMin= 3.56D-08
 ErrMax= 3.56D-08  0.00D+00 EMaxC= 1.00D-01 BMatC= 1.43D-13 BMatP= 2.49D-12
 IDIUse=1 WtCom= 1.00D+00 WtEn= 0.00D+00
 Coeff-Com:  0.280D-06 0.163D-05 0.203D-06-0.418D-04-0.523D-04 0.342D-03
 Coeff-Com: -0.153D-03-0.379D-02-0.434D-02 0.992D-01-0.158D+00-0.170D+00
 Coeff-Com:  0.124D+01
 Coeff:      0.280D-06 0.163D-05 0.203D-06-0.418D-04-0.523D-04 0.342D-03
 Coeff:     -0.153D-03-0.379D-02-0.434D-02 0.992D-01-0.158D+00-0.170D+00
 Coeff:      0.124D+01
 Gap=     0.364 Goal=   None    Shift=    0.000
 RMSDP=9.25D-09 MaxDP=4.06D-07 DE=-2.09D-11 OVMax= 6.64D-07

 SCF Done:  E(RHF) =  -950.490971165     A.U. after   13 cycles
            NFock= 13  Conv=0.92D-08     -V/T= 2.1446
 KE= 8.304023432548D+02 PE=-2.611562917171D+03 EE= 6.801371619391D+02
 Leave Link  502 at Tue Oct 19 14:36:21 2021, MaxMem= 16106127360 cpu:              37.0 elap:               3.9
 (Enter /sw/contrib/gaussian/g16/B01/g16/l801.exe)
 ExpMin= 2.53D-02 ExpMax= 4.56D+05 ExpMxC= 1.44D+03 IAcc=3 IRadAn=         5 AccDes= 0.00D+00
 HarFok:  IExCor=  205 AccDes= 0.00D+00 IRadAn=         5 IDoV=-2 UseB2=F ITyADJ=14
 ICtDFT= 12500011 ScaDFX=  1.000000  1.000000  1.000000  1.000000
 Largest valence mixing into a core orbital is  4.46D-04
 Largest core mixing into a valence orbital is  1.51D-04
 Range of M.O.s used for correlation:    11   174
 NBasis=   174 NAE=    26 NBE=    26 NFC=    10 NFV=     0
 NROrb=    164 NOA=    16 NOB=    16 NVA=   148 NVB=   148

 **** Warning!!: The largest alpha MO coefficient is  0.14269036D+02

 Leave Link  801 at Tue Oct 19 14:36:22 2021, MaxMem= 16106127360 cpu:               2.4 elap:               0.1
 (Enter /sw/contrib/gaussian/g16/B01/g16/l906.exe)
 Frozen-core derivative calculation, NFC=  10 NFV=   0.
 FulOut=F Deriv=T AODrv=F NAtomX=     4
   MMem=         130  MDisk=          16 MDiskD=          16
  W3Min=      922896 MinDsk=     1491158 NBas6D=         204
 NBas2D=       21411    NTT=       20910    LW2=    16556320
    MDV= 16105732760 MDiskM=      394699 NBas2p=       21383
 Fully in-core method, ICMem=   510791049.
 IMap=   1   2   3   4   5   6   7   8   9  10  11  12  13  14  15  16  17  18  19  20
 IMap=  21  22  23  24  25  26
 JobTyp=1 Pass  1 fully in-core, NPsUse= 28.
 Compute canonical integrals.
 FoFCou: FMM=F IPFlag=           0 FMFlag=           0 FMFlg1=           0
         NFxFlg=           0 DoJE=F BraDBF=F KetDBF=F FulRan=T
         wScrn=  0.000000 ICntrl=       600 IOpCl=  1 I1Cent=           0 NGrid=           0
         NMat0=    1 NMatS0=  21411 NMatT0=    0 NMatD0=    1 NMtDS0=    0 NMtDT0=    0
 Symmetry not used in FoFCou.
 Spin components of T(2) and E(2):
     alpha-alpha T2 =       0.3198619315D-01 E2=     -0.9644514991D-01
     alpha-beta  T2 =       0.1682042133D+00 E2=     -0.5243763278D+00
     beta-beta   T2 =       0.3198619315D-01 E2=     -0.9644514991D-01
 The integrals were generated   1 times.
 ANorm=    0.1110034504D+01
 E2 =    -0.7172666276D+00 EUMP2 =    -0.95120823779290D+03
 Leave Link  906 at Tue Oct 19 14:36:27 2021, MaxMem= 16106127360 cpu:             159.8 elap:               5.7
 (Enter /sw/contrib/gaussian/g16/B01/g16/l1002.exe)
 Minotr:  Closed shell wavefunction.
          Computing MP2/KS-MP2 derivatives.
          Using Z-Vector for PSCF gradient.
          Skipping F1 and S1 gradient terms here.
          Frozen-core window.
          Direct CPHF calculation.
          Differentiating once with respect to electric field.
                with respect to dipole field.
          Electric field/nuclear overlap derivatives assumed to be zero.
          Requested convergence is 1.0D-10 RMS, and 1.0D-09 maximum.
          NewPWx=F KeepS1=T KeepF1=T KeepIn=T MapXYZ=F SortEE=F KeepMc=T.
 Keep R1 ints in memory in canonical form, NReq=152802157.
 FoFCou: FMM=F IPFlag=           0 FMFlag=           0 FMFlg1=           0
         NFxFlg=           0 DoJE=F BraDBF=F KetDBF=F FulRan=T
         wScrn=  0.000000 ICntrl=       600 IOpCl=  0 I1Cent=           0 NGrid=           0
         NMat0=    1 NMatS0=  15225 NMatT0=    0 NMatD0=    1 NMtDS0=    0 NMtDT0=    0
 Symmetry not used in FoFCou.
 Two-electron integral symmetry not used.
          MDV=   16106127360 using IRadAn=       5.
          Solving linear equations separately, MaxMat=       0.
          There are     1 degrees of freedom in the 1st order CPHF.  IDoFFX=0 NUNeed=     1.
 LinEq1:  Iter=  0 NonCon=     1 RMS=3.36D-03 Max=5.58D-02 NDo=     1
 AX will form     1 AO Fock derivatives at one time.
 LinEq1:  Iter=  1 NonCon=     1 RMS=5.54D-04 Max=6.90D-03 NDo=     1
 LinEq1:  Iter=  2 NonCon=     1 RMS=2.35D-04 Max=3.03D-03 NDo=     1
 LinEq1:  Iter=  3 NonCon=     1 RMS=8.06D-05 Max=1.11D-03 NDo=     1
 LinEq1:  Iter=  4 NonCon=     1 RMS=2.20D-05 Max=4.38D-04 NDo=     1
 LinEq1:  Iter=  5 NonCon=     1 RMS=1.04D-05 Max=1.19D-04 NDo=     1
 LinEq1:  Iter=  6 NonCon=     1 RMS=2.60D-06 Max=2.90D-05 NDo=     1
 LinEq1:  Iter=  7 NonCon=     1 RMS=6.71D-07 Max=9.43D-06 NDo=     1
 LinEq1:  Iter=  8 NonCon=     1 RMS=1.87D-07 Max=2.01D-06 NDo=     1
 LinEq1:  Iter=  9 NonCon=     1 RMS=5.96D-08 Max=6.40D-07 NDo=     1
 LinEq1:  Iter= 10 NonCon=     1 RMS=1.78D-08 Max=2.42D-07 NDo=     1
 LinEq1:  Iter= 11 NonCon=     1 RMS=4.84D-09 Max=4.80D-08 NDo=     1
 LinEq1:  Iter= 12 NonCon=     1 RMS=7.55D-10 Max=8.70D-09 NDo=     1
 LinEq1:  Iter= 13 NonCon=     1 RMS=1.40D-10 Max=2.21D-09 NDo=     1
 LinEq1:  Iter= 14 NonCon=     0 RMS=3.75D-11 Max=5.08D-10 NDo=     1
 Linear equations converged to 1.000D-10 1.000D-09 after    14 iterations.
 End of Minotr F.D. properties file   721 does not exist.
 End of Minotr F.D. properties file   722 does not exist.
 End of Minotr F.D. properties file   788 does not exist.
 Leave Link 1002 at Tue Oct 19 14:36:32 2021, MaxMem= 16106127360 cpu:              37.4 elap:               4.4
 (Enter /sw/contrib/gaussian/g16/B01/g16/l601.exe)
 Copying SCF densities to generalized density rwf, IOpCl= 0 IROHF=0.

 **********************************************************************

            Population analysis using the MP2 Density.

 **********************************************************************

 Alpha  occ. eigenvalues -- -104.69552 -20.41491 -10.41524  -9.59539  -7.88236
 Alpha  occ. eigenvalues --   -7.88006  -7.87999  -7.34439  -7.34221  -7.34219
 Alpha  occ. eigenvalues --   -2.89562  -2.89466  -2.89464  -2.89241  -2.89241
 Alpha  occ. eigenvalues --   -1.15347  -0.84643  -0.79743  -0.45823  -0.39575
 Alpha  occ. eigenvalues --   -0.38705  -0.28234  -0.24041  -0.20930  -0.20610
 Alpha  occ. eigenvalues --   -0.20464
 Alpha virt. eigenvalues --    0.15902   0.19224   0.22326   0.23835   0.24929
 Alpha virt. eigenvalues --    0.25768   0.26132   0.29697   0.31492   0.32695
 Alpha virt. eigenvalues --    0.33522   0.33815   0.36734   0.43166   0.43367
 Alpha virt. eigenvalues --    0.45079   0.45314   0.47716   0.49743   0.54720
 Alpha virt. eigenvalues --    0.55207   0.57177   0.59090   0.59595   0.61421
 Alpha virt. eigenvalues --    0.62186   0.67801   0.69042   0.74908   0.79574
 Alpha virt. eigenvalues --    0.80304   0.80785   0.82479   0.86014   0.91472
 Alpha virt. eigenvalues --    0.92943   0.93448   0.94713   0.95843   0.96664
 Alpha virt. eigenvalues --    0.99620   1.01432   1.01527   1.03936   1.04953
 Alpha virt. eigenvalues --    1.05457   1.10190   1.11108   1.12762   1.13311
 Alpha virt. eigenvalues --    1.13494   1.17641   1.17886   1.22615   1.22715
 Alpha virt. eigenvalues --    1.24458   1.28500   1.31408   1.33413   1.33656
 Alpha virt. eigenvalues --    1.35201   1.40737   1.45735   1.48886   1.50452
 Alpha virt. eigenvalues --    1.56086   1.60679   1.62896   1.68635   1.72815
 Alpha virt. eigenvalues --    1.73136   1.76417   1.77865   1.85661   1.89125
 Alpha virt. eigenvalues --    2.01393   2.16421   2.31368   2.41861   2.43256
 Alpha virt. eigenvalues --    2.43674   2.47802   2.48458   2.50412   2.50768
 Alpha virt. eigenvalues --    2.51051   2.52351   2.53790   2.54564   2.55413
 Alpha virt. eigenvalues --    2.55851   2.59107   2.59369   2.61417   2.64308
 Alpha virt. eigenvalues --    2.65712   2.68947   2.70472   2.71883   2.75096
 Alpha virt. eigenvalues --    2.75215   2.78606   2.80970   2.85904   2.90679
 Alpha virt. eigenvalues --    2.91960   3.11151   3.11695   3.20553   3.21639
 Alpha virt. eigenvalues --    3.22748   3.27733   3.28649   3.32961   3.33031
 Alpha virt. eigenvalues --    3.37710   3.55475   3.57226   3.63707   3.64852
 Alpha virt. eigenvalues --    3.94025   4.16702   4.18359   4.32470   4.40706
 Alpha virt. eigenvalues --    4.53355   4.64133   4.71728   4.77138   4.78671
 Alpha virt. eigenvalues --    5.18038   5.39860   6.30309   6.55188   6.86077
 Alpha virt. eigenvalues --    6.91656   6.95691   7.00426   7.07508   7.16934
 Alpha virt. eigenvalues --    7.38327   7.38350   7.54995   7.56630   7.87728
 Alpha virt. eigenvalues --    8.16340  12.84688  79.84925
          Condensed to atoms (all electrons):
               1          2          3          4
     1  O    8.699427  -0.142531  -0.137792   0.157891
     2  Cl  -0.142531  17.154475   0.020149  -0.029988
     3  Br  -0.137792   0.020149  25.741854   0.013496
     4  H    0.157891  -0.029988   0.013496   0.641794
 Mulliken charges:
               1
     1  O   -0.576995
     2  Cl  -0.002105
     3  Br  -0.637708
     4  H    0.216808
 Sum of Mulliken charges =  -1.00000
 Mulliken charges with hydrogens summed into heavy atoms:
               1
     1  O   -0.360188
     2  Cl  -0.002105
     3  Br  -0.637708
 Electronic spatial extent (au):  <R**2>=           1134.8826
 Charge=             -1.0000 electrons
 Dipole moment (field-independent basis, Debye):
    X=              0.6079    Y=              7.8357    Z=             -0.0000  Tot=              7.8593
 Quadrupole moment (field-independent basis, Debye-Ang):
   XX=            -45.6636   YY=            -68.2225   ZZ=            -42.5455
   XY=             -6.5052   XZ=              0.0000   YZ=              0.0000
 Traceless Quadrupole moment (field-independent basis, Debye-Ang):
   XX=              6.4803   YY=            -16.0786   ZZ=              9.5984
   XY=             -6.5052   XZ=              0.0000   YZ=              0.0000
 Octapole moment (field-independent basis, Debye-Ang**2):
  XXX=            -21.7941  YYY=            271.7793  ZZZ=             -0.0000  XYY=             10.9267
  XXY=             69.6109  XXZ=              0.0000  XZZ=             -7.9325  YZZ=             65.2098
  YYZ=             -0.0000  XYZ=             -0.0000
 Hexadecapole moment (field-independent basis, Debye-Ang**3):
 XXXX=           -346.9096 YYYY=          -1424.9284 ZZZZ=            -58.9958 XXXY=           -142.8183
 XXXZ=              0.0000 YYYX=           -190.4475 YYYZ=             -0.0000 ZZZX=              0.0000
 ZZZY=              0.0000 XXYY=           -276.9406 XXZZ=            -71.6724 YYZZ=           -213.0647
 XXYZ=              0.0000 YYXZ=              0.0000 ZZXY=            -46.5825
 N-N= 1.505324408118D+02 E-N=-2.610314783817D+03  KE= 8.302334699795D+02
 No NMR shielding tensors so no spin-rotation constants.
 Leave Link  601 at Tue Oct 19 14:36:32 2021, MaxMem= 16106127360 cpu:               4.2 elap:               0.2
 (Enter /sw/contrib/gaussian/g16/B01/g16/l607.exe)
 ******************************Gaussian NBO Version 3.1******************************
             N A T U R A L   A T O M I C   O R B I T A L   A N D
          N A T U R A L   B O N D   O R B I T A L   A N A L Y S I S
 ******************************Gaussian NBO Version 3.1******************************
       /RESON  / : Allow strongly delocalized NBO set

 Analyzing the MP2 density

 Job title: title                                                           

 Storage needed:     91686 in NPA,    121697 in NBO (********** available)
 GSVD:  LWork=        2436 too small for GESVD, short by       52200 words or       52200 for optimal perf.


 NATURAL POPULATIONS:  Natural atomic orbital occupancies 
                                                          
   NAO  Atom  No  lang   Type(AO)    Occupancy
 --------------------------------------------
     1    O    1  S      Cor( 1S)     1.99982
     2    O    1  S      Val( 2S)     1.84410
     3    O    1  S      Ryd( 3S)     0.01204
     4    O    1  S      Ryd( 4S)     0.00123
     5    O    1  S      Ryd( 5S)     0.00018
     6    O    1  px     Val( 2p)     1.17640
     7    O    1  px     Ryd( 3p)     0.00799
     8    O    1  px     Ryd( 4p)     0.00068
     9    O    1  px     Ryd( 5p)     0.00068
    10    O    1  py     Val( 2p)     1.74655
    11    O    1  py     Ryd( 3p)     0.01495
    12    O    1  py     Ryd( 4p)     0.00066
    13    O    1  py     Ryd( 5p)     0.00035
    14    O    1  pz     Val( 2p)     1.94451
    15    O    1  pz     Ryd( 3p)     0.02279
    16    O    1  pz     Ryd( 4p)     0.00060
    17    O    1  pz     Ryd( 5p)     0.00014
    18    O    1  dxy    Ryd( 3d)     0.00847
    19    O    1  dxy    Ryd( 4d)     0.00054
    20    O    1  dxy    Ryd( 5d)     0.00013
    21    O    1  dxz    Ryd( 3d)     0.00882
    22    O    1  dxz    Ryd( 4d)     0.00061
    23    O    1  dxz    Ryd( 5d)     0.00011
    24    O    1  dyz    Ryd( 3d)     0.00682
    25    O    1  dyz    Ryd( 4d)     0.00067
    26    O    1  dyz    Ryd( 5d)     0.00027
    27    O    1  dx2y2  Ryd( 3d)     0.01071
    28    O    1  dx2y2  Ryd( 4d)     0.00042
    29    O    1  dx2y2  Ryd( 5d)     0.00015
    30    O    1  dz2    Ryd( 3d)     0.00815
    31    O    1  dz2    Ryd( 4d)     0.00064
    32    O    1  dz2    Ryd( 5d)     0.00016
    33    O    1  f(0)   Ryd( 4f)     0.00066
    34    O    1  f(0)   Ryd( 5f)     0.00011
    35    O    1  f(C1)  Ryd( 4f)     0.00066
    36    O    1  f(C1)  Ryd( 5f)     0.00012
    37    O    1  f(S1)  Ryd( 4f)     0.00063
    38    O    1  f(S1)  Ryd( 5f)     0.00012
    39    O    1  f(C2)  Ryd( 4f)     0.00066
    40    O    1  f(C2)  Ryd( 5f)     0.00014
    41    O    1  f(S2)  Ryd( 4f)     0.00056
    42    O    1  f(S2)  Ryd( 5f)     0.00012
    43    O    1  f(C3)  Ryd( 4f)     0.00065
    44    O    1  f(C3)  Ryd( 5f)     0.00014
    45    O    1  f(S3)  Ryd( 4f)     0.00061
    46    O    1  f(S3)  Ryd( 5f)     0.00012

    47   Cl    2  S      Cor( 1S)     2.00000
    48   Cl    2  S      Cor( 2S)     1.99975
    49   Cl    2  S      Val( 3S)     1.87593
    50   Cl    2  S      Ryd( 4S)     0.00878
    51   Cl    2  S      Ryd( 5S)     0.00058
    52   Cl    2  S      Ryd( 6S)     0.00018
    53   Cl    2  px     Cor( 2p)     1.99995
    54   Cl    2  px     Val( 3p)     0.94408
    55   Cl    2  px     Ryd( 4p)     0.00717
    56   Cl    2  px     Ryd( 5p)     0.00056
    57   Cl    2  px     Ryd( 6p)     0.00022
    58   Cl    2  py     Cor( 2p)     2.00003
    59   Cl    2  py     Val( 3p)     1.95181
    60   Cl    2  py     Ryd( 4p)     0.01089
    61   Cl    2  py     Ryd( 5p)     0.00057
    62   Cl    2  py     Ryd( 6p)     0.00007
    63   Cl    2  pz     Cor( 2p)     2.00003
    64   Cl    2  pz     Val( 3p)     1.95323
    65   Cl    2  pz     Ryd( 4p)     0.01164
    66   Cl    2  pz     Ryd( 5p)     0.00074
    67   Cl    2  pz     Ryd( 6p)     0.00003
    68   Cl    2  dxy    Ryd( 3d)     0.01959
    69   Cl    2  dxy    Ryd( 4d)     0.00116
    70   Cl    2  dxy    Ryd( 5d)     0.00037
    71   Cl    2  dxz    Ryd( 3d)     0.02325
    72   Cl    2  dxz    Ryd( 4d)     0.00136
    73   Cl    2  dxz    Ryd( 5d)     0.00038
    74   Cl    2  dyz    Ryd( 3d)     0.01700
    75   Cl    2  dyz    Ryd( 4d)     0.00071
    76   Cl    2  dyz    Ryd( 5d)     0.00024
    77   Cl    2  dx2y2  Ryd( 3d)     0.01895
    78   Cl    2  dx2y2  Ryd( 4d)     0.00050
    79   Cl    2  dx2y2  Ryd( 5d)     0.00020
    80   Cl    2  dz2    Ryd( 3d)     0.01783
    81   Cl    2  dz2    Ryd( 4d)     0.00060
    82   Cl    2  dz2    Ryd( 5d)     0.00021
    83   Cl    2  f(0)   Ryd( 4f)     0.00133
    84   Cl    2  f(0)   Ryd( 5f)     0.00015
    85   Cl    2  f(C1)  Ryd( 4f)     0.00153
    86   Cl    2  f(C1)  Ryd( 5f)     0.00015
    87   Cl    2  f(S1)  Ryd( 4f)     0.00128
    88   Cl    2  f(S1)  Ryd( 5f)     0.00013
    89   Cl    2  f(C2)  Ryd( 4f)     0.00137
    90   Cl    2  f(C2)  Ryd( 5f)     0.00014
    91   Cl    2  f(S2)  Ryd( 4f)     0.00122
    92   Cl    2  f(S2)  Ryd( 5f)     0.00014
    93   Cl    2  f(C3)  Ryd( 4f)     0.00169
    94   Cl    2  f(C3)  Ryd( 5f)     0.00014
    95   Cl    2  f(S3)  Ryd( 4f)     0.00133
    96   Cl    2  f(S3)  Ryd( 5f)     0.00016

    97   Br    3  S      Cor( 3S)     1.99949
    98   Br    3  S      Val( 4S)     1.93431
    99   Br    3  S      Ryd( 5S)     0.00135
   100   Br    3  S      Ryd( 6S)     0.00049
   101   Br    3  S      Ryd( 7S)     0.00020
   102   Br    3  S      Ryd( 8S)     0.00000
   103   Br    3  px     Cor( 3p)     1.99995
   104   Br    3  px     Val( 4p)     1.93929
   105   Br    3  px     Ryd( 5p)     0.01019
   106   Br    3  px     Ryd( 6p)     0.00075
   107   Br    3  px     Ryd( 7p)     0.00014
   108   Br    3  py     Cor( 3p)     1.99981
   109   Br    3  py     Val( 4p)     1.69773
   110   Br    3  py     Ryd( 5p)     0.00852
   111   Br    3  py     Ryd( 6p)     0.00068
   112   Br    3  py     Ryd( 7p)     0.00015
   113   Br    3  pz     Cor( 3p)     1.99996
   114   Br    3  pz     Val( 4p)     1.95445
   115   Br    3  pz     Ryd( 5p)     0.01030
   116   Br    3  pz     Ryd( 6p)     0.00075
   117   Br    3  pz     Ryd( 7p)     0.00011
   118   Br    3  dxy    Cor( 3d)     1.99764
   119   Br    3  dxy    Ryd( 4d)     0.01813
   120   Br    3  dxy    Ryd( 5d)     0.00125
   121   Br    3  dxy    Ryd( 6d)     0.00021
   122   Br    3  dxz    Cor( 3d)     1.99770
   123   Br    3  dxz    Ryd( 4d)     0.01802
   124   Br    3  dxz    Ryd( 5d)     0.00163
   125   Br    3  dxz    Ryd( 6d)     0.00023
   126   Br    3  dyz    Cor( 3d)     1.99767
   127   Br    3  dyz    Ryd( 4d)     0.01806
   128   Br    3  dyz    Ryd( 5d)     0.00127
   129   Br    3  dyz    Ryd( 6d)     0.00022
   130   Br    3  dx2y2  Cor( 3d)     1.99757
   131   Br    3  dx2y2  Ryd( 4d)     0.01864
   132   Br    3  dx2y2  Ryd( 5d)     0.00143
   133   Br    3  dx2y2  Ryd( 6d)     0.00024
   134   Br    3  dz2    Cor( 3d)     1.99765
   135   Br    3  dz2    Ryd( 4d)     0.01831
   136   Br    3  dz2    Ryd( 5d)     0.00160
   137   Br    3  dz2    Ryd( 6d)     0.00018
   138   Br    3  f(0)   Ryd( 4f)     0.00168
   139   Br    3  f(0)   Ryd( 5f)     0.00025
   140   Br    3  f(C1)  Ryd( 4f)     0.00171
   141   Br    3  f(C1)  Ryd( 5f)     0.00024
   142   Br    3  f(S1)  Ryd( 4f)     0.00177
   143   Br    3  f(S1)  Ryd( 5f)     0.00028
   144   Br    3  f(C2)  Ryd( 4f)     0.00166
   145   Br    3  f(C2)  Ryd( 5f)     0.00025
   146   Br    3  f(S2)  Ryd( 4f)     0.00169
   147   Br    3  f(S2)  Ryd( 5f)     0.00024
   148   Br    3  f(C3)  Ryd( 4f)     0.00170
   149   Br    3  f(C3)  Ryd( 5f)     0.00026
   150   Br    3  f(S3)  Ryd( 4f)     0.00173
   151   Br    3  f(S3)  Ryd( 5f)     0.00028

   152    H    4  S      Val( 1S)     0.60761
   153    H    4  S      Ryd( 2S)     0.00541
   154    H    4  S      Ryd( 3S)     0.00083
   155    H    4  S      Ryd( 4S)     0.00019
   156    H    4  px     Ryd( 2p)     0.00480
   157    H    4  px     Ryd( 3p)     0.00048
   158    H    4  px     Ryd( 4p)     0.00012
   159    H    4  py     Ryd( 2p)     0.00500
   160    H    4  py     Ryd( 3p)     0.00149
   161    H    4  py     Ryd( 4p)     0.00020
   162    H    4  pz     Ryd( 2p)     0.00616
   163    H    4  pz     Ryd( 3p)     0.00042
   164    H    4  pz     Ryd( 4p)     0.00027
   165    H    4  dxy    Ryd( 3d)     0.00031
   166    H    4  dxy    Ryd( 4d)     0.00011
   167    H    4  dxz    Ryd( 3d)     0.00026
   168    H    4  dxz    Ryd( 4d)     0.00007
   169    H    4  dyz    Ryd( 3d)     0.00036
   170    H    4  dyz    Ryd( 4d)     0.00008
   171    H    4  dx2y2  Ryd( 3d)     0.00029
   172    H    4  dx2y2  Ryd( 4d)     0.00017
   173    H    4  dz2    Ryd( 3d)     0.00027
   174    H    4  dz2    Ryd( 4d)     0.00014

 [ 10 electrons found in the effective core potential]

 WARNING:  5 low occupancy (<1.9990e) core orbitals found on Br    3


 Summary of Natural Population Analysis:                  
                                                          
                                       Natural Population 
                Natural  -----------------------------------------------
    Atom  No    Charge         Core      Valence    Rydberg      Total
 -----------------------------------------------------------------------
      O    1   -0.82562      1.99982     6.71156    0.11423     8.82562
     Cl    2    0.12070      9.99976     6.72505    0.15449    16.87930
     Br    3   -0.66004     27.98747     7.52577    0.14680    35.66004
      H    4    0.36496      0.00000     0.60761    0.02743     0.63504
 =======================================================================
   * Total *   -1.00000     39.98705    21.56999    0.44296    62.00000

                                 Natural Population      
 --------------------------------------------------------
   Effective Core            10.00000
   Core                      29.98705 ( 99.9568% of  30)
   Valence                   21.56999 ( 98.0454% of  22)
   Natural Minimal Basis     61.55704 ( 99.2856% of  62)
   Natural Rydberg Basis      0.44296 (  0.7144% of  62)
 --------------------------------------------------------

    Atom  No          Natural Electron Configuration
 ----------------------------------------------------------------------------
      O    1      [core]2S( 1.84)2p( 4.87)3S( 0.01)3p( 0.05)3d( 0.04)
     Cl    2      [core]3S( 1.88)3p( 4.85)4S( 0.01)3d( 0.10)4p( 0.03)4f( 0.01)
     Br    3      [core]4S( 1.93)4p( 5.59)4d( 0.09)5p( 0.03)4f( 0.01)5d( 0.01)
      H    4            1S( 0.61)2S( 0.01)2p( 0.02)


 NATURAL BOND ORBITAL ANALYSIS:
 Warning:  a bond orbital has occupanc of -0.00018

                       Occupancies       Lewis Structure    Low   High
           Occ.    -------------------  -----------------   occ   occ
  Cycle   Thresh.   Lewis   Non-Lewis     CR  BD  3C  LP    (L)   (NL)   Dev
 =============================================================================
   1(1)    1.90    61.20286   0.79714     15   2   0   9     1      1    0.42
 Warning:  a bond orbital has occupanc of -0.00018
   2(2)    1.90    61.23762   0.76238     15   2   0   9     1      1    0.37
 Warning:  a bond orbital has occupanc of -0.00018
   3(3)    1.90    61.20286   0.79714     15   2   0   9     1      1    0.42
 Warning:  a bond orbital has occupanc of -0.00018
   4(4)    1.90    61.23762   0.76238     15   2   0   9     1      1    0.37
 Warning:  a bond orbital has occupanc of -0.00018
   5(1)    1.80    61.23762   0.76238     15   2   0   9     1      1    0.37
 Warning:  a bond orbital has occupanc of -0.00018
   6(2)    1.80    61.20286   0.79714     15   2   0   9     1      1    0.42
 Warning:  a bond orbital has occupanc of -0.00018
   7(3)    1.80    61.23762   0.76238     15   2   0   9     1      1    0.37
 Warning:  a bond orbital has occupanc of -0.00018
   8(1)    1.70    61.23762   0.76238     15   2   0   9     1      1    0.37
 Warning:  a bond orbital has occupanc of -0.00018
   9(2)    1.70    61.20286   0.79714     15   2   0   9     1      1    0.42
 Warning:  a bond orbital has occupanc of -0.00018
  10(3)    1.70    61.23762   0.76238     15   2   0   9     1      1    0.37
 Warning:  a bond orbital has occupanc of -0.00018
  11(1)    1.60    60.93893   1.06107     15   1   0  10     0      1    0.42
 Warning:  a bond orbital has occupanc of -0.00018
  12(2)    1.60    60.93893   1.06107     15   1   0  10     0      1    0.42
 Warning:  a bond orbital has occupanc of -0.00018
  13(1)    1.50    60.93893   1.06107     15   1   0  10     0      1    0.42
 Warning:  a bond orbital has occupanc of -0.00018
  14(2)    1.50    60.93893   1.06107     15   1   0  10     0      1    0.42
 Warning:  a bond orbital has occupanc of -0.00018
  15(1)    1.90    61.23762   0.76238     15   2   0   9     1      1    0.37
 -----------------------------------------------------------------------------

 Structure accepted: RESONANCE keyword permits strongly delocalized structure

 WARNING:  5 low occupancy (<1.9990e) core orbitals found on Br    3

 --------------------------------------------------------
   Effective Core           10.00000
   Core                     29.98705 ( 99.957% of  30)
   Valence Lewis            21.25057 ( 96.594% of  22)
  ==================       ============================
   Total Lewis              61.23762 ( 98.770% of  62)
  -----------------------------------------------------
   Valence non-Lewis         0.36515 (  0.589% of  62)
   Rydberg non-Lewis         0.39722 (  0.641% of  62)
  ==================       ============================
   Total non-Lewis           0.76238 (  1.230% of  62)
 --------------------------------------------------------


       (Occupancy)   Bond orbital/ Coefficients/ Hybrids
 ---------------------------------------------------------------------------------
     1. (1.93754) BD ( 1) O   1 -Cl   2  
                ( 57.46%)   0.7580* O   1 s( 11.99%)p 7.30( 87.52%)d 0.04(  0.47%)
                                                  f 0.00(  0.02%)
                                            0.0003  0.3410 -0.0581  0.0174 -0.0008
                                            0.9282 -0.0436 -0.0109 -0.0167 -0.1045
                                           -0.0226 -0.0036  0.0025  0.0000  0.0000
                                            0.0000  0.0000 -0.0149 -0.0018  0.0011
                                            0.0000  0.0000  0.0000  0.0000  0.0000
                                            0.0000  0.0515  0.0033  0.0019 -0.0419
                                           -0.0036  0.0003  0.0000  0.0000 -0.0104
                                            0.0009  0.0005 -0.0001  0.0000  0.0000
                                            0.0000  0.0000  0.0083  0.0009 -0.0010
                                            0.0011
                ( 42.54%)   0.6522*Cl   2 s(  9.38%)p 9.53( 89.41%)d 0.12(  1.09%)
                                                  f 0.01(  0.12%)
                                           -0.0000  0.0006  0.3000 -0.0608 -0.0106
                                           -0.0026 -0.0004 -0.9431  0.0660  0.0136
                                           -0.0034 -0.0000 -0.0109 -0.0012  0.0032
                                           -0.0015  0.0000  0.0000  0.0000  0.0000
                                            0.0000  0.0134 -0.0002  0.0001  0.0000
                                            0.0000  0.0000  0.0000  0.0000  0.0000
                                            0.0865 -0.0128 -0.0019 -0.0548  0.0081
                                            0.0022  0.0000  0.0000  0.0219 -0.0028
                                            0.0006 -0.0001  0.0000  0.0000  0.0000
                                            0.0000 -0.0269  0.0029 -0.0023  0.0003
     2. (1.95278) BD ( 1)Br   3 - H   4  
                ( 81.38%)   0.9021*Br   3 s( 12.73%)p 6.84( 87.05%)d 0.02(  0.21%)
                                                  f 0.00(  0.02%)
                                            0.0003  0.3567 -0.0025  0.0040  0.0009
                                            0.0005  0.0001  0.2178 -0.0025 -0.0011
                                            0.0006  0.0005  0.9071 -0.0140 -0.0062
                                            0.0028  0.0000  0.0000  0.0000  0.0000
                                            0.0000  0.0000  0.0174 -0.0025  0.0004
                                            0.0000  0.0000  0.0000  0.0000  0.0000
                                            0.0000  0.0000  0.0000 -0.0000 -0.0343
                                            0.0039 -0.0003 -0.0000 -0.0232  0.0031
                                           -0.0008  0.0000  0.0000 -0.0019 -0.0002
                                           -0.0079 -0.0006  0.0000  0.0000  0.0000
                                            0.0000 -0.0067 -0.0006 -0.0076 -0.0001
                ( 18.62%)   0.4315* H   4 s( 99.76%)p 0.00(  0.21%)d 0.00(  0.03%)
                                            0.9985 -0.0028  0.0235  0.0005 -0.0069
                                           -0.0038 -0.0039 -0.0347 -0.0280 -0.0038
                                            0.0000  0.0000  0.0000 -0.0000  0.0076
                                            0.0000  0.0000  0.0000  0.0000 -0.0012
                                           -0.0130 -0.0022 -0.0092
     3. (1.99982) CR ( 1) O   1           s(100.00%)p 0.00(  0.00%)
                                            1.0000 -0.0002  0.0000 -0.0000  0.0000
                                           -0.0002  0.0000  0.0000  0.0000 -0.0001
                                            0.0000  0.0000 -0.0000  0.0000  0.0000
                                            0.0000  0.0000  0.0000  0.0000  0.0000
                                            0.0000  0.0000  0.0000  0.0000  0.0000
                                            0.0000 -0.0000 -0.0000  0.0000  0.0000
                                            0.0000 -0.0000  0.0000  0.0000  0.0000
                                           -0.0000  0.0000  0.0000  0.0000  0.0000
                                            0.0000  0.0000 -0.0000  0.0000 -0.0000
                                           -0.0000
     4. (2.00000) CR ( 1)Cl   2           s(100.00%)
                                            1.0000  0.0000 -0.0000 -0.0000 -0.0000
                                           -0.0000 -0.0000 -0.0000  0.0000  0.0000
                                           -0.0000 -0.0000 -0.0000 -0.0000  0.0000
                                           -0.0000  0.0000  0.0000  0.0000  0.0000
                                            0.0000  0.0000 -0.0000 -0.0000  0.0000
                                            0.0000  0.0000  0.0000  0.0000  0.0000
                                            0.0000 -0.0000 -0.0000 -0.0000  0.0000
                                            0.0000  0.0000  0.0000  0.0000 -0.0000
                                            0.0000 -0.0000  0.0000  0.0000  0.0000
                                            0.0000 -0.0000  0.0000 -0.0000  0.0000
     5. (1.99975) CR ( 2)Cl   2           s(100.00%)p 0.00(  0.00%)
                                            0.0000  1.0000 -0.0004  0.0000  0.0000
                                            0.0000  0.0000  0.0005 -0.0000 -0.0000
                                            0.0000 -0.0000  0.0000  0.0000 -0.0000
                                            0.0000  0.0000  0.0000  0.0000  0.0000
                                            0.0000 -0.0000  0.0000  0.0000  0.0000
                                            0.0000  0.0000  0.0000  0.0000  0.0000
                                           -0.0000  0.0000  0.0000  0.0000 -0.0000
                                           -0.0000  0.0000  0.0000 -0.0000  0.0000
                                           -0.0000  0.0000  0.0000  0.0000  0.0000
                                            0.0000  0.0000 -0.0000  0.0000 -0.0000
     6. (1.99995) CR ( 3)Cl   2           s(  0.00%)p 1.00(100.00%)
                                           -0.0000  0.0000  0.0001 -0.0000 -0.0000
                                           -0.0000  1.0000 -0.0004  0.0000  0.0000
                                           -0.0000  0.0000 -0.0000 -0.0000  0.0000
                                           -0.0000  0.0000  0.0000  0.0000  0.0000
                                            0.0000  0.0000 -0.0000 -0.0000  0.0000
                                            0.0000  0.0000  0.0000  0.0000  0.0000
                                            0.0000 -0.0000 -0.0000 -0.0000  0.0000
                                            0.0000  0.0000  0.0000  0.0000 -0.0000
                                            0.0000 -0.0000  0.0000  0.0000  0.0000
                                            0.0000 -0.0000  0.0000 -0.0000  0.0000
     7. (2.00003) CR ( 4)Cl   2           s(  0.00%)p 1.00(100.00%)
                                           -0.0000 -0.0000  0.0000  0.0000  0.0000
                                           -0.0000  0.0000 -0.0000  0.0000  0.0000
                                           -0.0000  1.0000  0.0001  0.0000  0.0000
                                            0.0000  0.0000  0.0000  0.0000  0.0000
                                            0.0000  0.0000  0.0000  0.0000  0.0000
                                            0.0000  0.0000  0.0000  0.0000  0.0000
                                           -0.0000 -0.0000 -0.0000 -0.0000 -0.0000
                                            0.0000  0.0000  0.0000  0.0000  0.0000
                                           -0.0000  0.0000  0.0000  0.0000  0.0000
                                            0.0000 -0.0000  0.0000  0.0000 -0.0000
     8. (2.00003) CR ( 5)Cl   2           s(  0.00%)p 1.00(100.00%)
                                            0.0000  0.0000  0.0000  0.0000  0.0000
                                            0.0000  0.0000  0.0000  0.0000  0.0000
                                            0.0000  0.0000  0.0000  0.0000  0.0000
                                            0.0000  1.0000  0.0001  0.0000  0.0000
                                           -0.0000  0.0000  0.0000  0.0000  0.0000
                                            0.0000  0.0000  0.0000  0.0000  0.0000
                                            0.0000  0.0000  0.0000  0.0000  0.0000
                                            0.0000 -0.0000  0.0000  0.0000  0.0000
                                            0.0000  0.0000  0.0000 -0.0000  0.0000
                                           -0.0000  0.0000  0.0000  0.0000  0.0000
     9. (1.99949) CR ( 1)Br   3           s(100.00%)p 0.00(  0.00%)
                                            1.0000 -0.0006  0.0000 -0.0000 -0.0000
                                           -0.0000 -0.0000 -0.0000  0.0000  0.0000
                                           -0.0000 -0.0000 -0.0001  0.0000  0.0000
                                           -0.0000  0.0000  0.0000  0.0000  0.0000
                                            0.0000  0.0000 -0.0000  0.0000 -0.0000
                                            0.0000  0.0000  0.0000  0.0000  0.0000
                                            0.0000  0.0000  0.0000 -0.0000  0.0000
                                           -0.0000 -0.0000 -0.0000  0.0000 -0.0000
                                            0.0000  0.0000  0.0000  0.0000  0.0000
                                            0.0000  0.0000  0.0000  0.0000  0.0000
                                            0.0000  0.0000  0.0000  0.0000  0.0000
    10. (1.99995) CR ( 2)Br   3           s(  0.00%)p 1.00(100.00%)
                                           -0.0000  0.0000  0.0000 -0.0000 -0.0000
                                           -0.0000  1.0000 -0.0004 -0.0000 -0.0000
                                            0.0000 -0.0000 -0.0000  0.0000  0.0000
                                           -0.0000  0.0000  0.0000  0.0000  0.0000
                                            0.0000  0.0000 -0.0000  0.0000  0.0000
                                            0.0000  0.0000  0.0000  0.0000  0.0000
                                            0.0000  0.0000  0.0000  0.0000  0.0000
                                           -0.0000  0.0000  0.0000  0.0000 -0.0000
                                           -0.0000  0.0000  0.0000  0.0000  0.0000
                                            0.0000  0.0000  0.0000  0.0000  0.0000
                                            0.0000  0.0000  0.0000 -0.0000 -0.0000
    11. (1.99982) CR ( 3)Br   3           s(  0.00%)p 1.00(100.00%)
                                           -0.0000  0.0001  0.0000 -0.0000 -0.0000
                                           -0.0000 -0.0000 -0.0000  0.0000  0.0000
                                           -0.0000  1.0000 -0.0006  0.0000  0.0000
                                           -0.0000  0.0000  0.0000  0.0000  0.0000
                                            0.0000 -0.0000 -0.0000  0.0000 -0.0000
                                            0.0000  0.0000  0.0000  0.0000  0.0000
                                            0.0000  0.0000  0.0000  0.0000  0.0000
                                           -0.0000 -0.0000  0.0000  0.0000 -0.0000
                                            0.0000  0.0000  0.0000  0.0000  0.0000
                                            0.0000  0.0000  0.0000  0.0000  0.0000
                                            0.0000  0.0000  0.0000  0.0000  0.0000
    12. (1.99996) CR ( 4)Br   3           s(  0.00%)p 1.00(100.00%)
                                            0.0000  0.0000  0.0000  0.0000  0.0000
                                            0.0000  0.0000  0.0000  0.0000  0.0000
                                            0.0000  0.0000  0.0000  0.0000  0.0000
                                            0.0000  1.0000 -0.0004 -0.0000 -0.0000
                                            0.0000  0.0000  0.0000  0.0000  0.0000
                                            0.0000 -0.0000 -0.0000  0.0000  0.0000
                                           -0.0000  0.0000  0.0000  0.0000  0.0000
                                            0.0000  0.0000  0.0000  0.0000  0.0000
                                            0.0000  0.0000  0.0000  0.0000  0.0000
                                            0.0000  0.0000  0.0000  0.0000 -0.0000
                                           -0.0000  0.0000  0.0000  0.0000  0.0000
    13. (1.99764) CR ( 5)Br   3           s(  0.00%)p 0.00(  0.00%)d 1.00(100.00%)
                                            0.0000  0.0000  0.0000 -0.0000 -0.0000
                                           -0.0000  0.0000  0.0000  0.0000  0.0000
                                           -0.0000 -0.0000 -0.0000  0.0000 -0.0000
                                           -0.0000  0.0000  0.0000  0.0000  0.0000
                                            0.0000  1.0000  0.0000  0.0000 -0.0000
                                            0.0000  0.0000  0.0000  0.0000  0.0000
                                            0.0000  0.0000  0.0000  0.0000  0.0000
                                            0.0000 -0.0000  0.0000  0.0000 -0.0000
                                            0.0000  0.0000  0.0000 -0.0000 -0.0000
                                            0.0000  0.0000  0.0000  0.0000  0.0000
                                            0.0000 -0.0000 -0.0000  0.0000  0.0000
    14. (1.99770) CR ( 6)Br   3           s(  0.00%)p 0.00(  0.00%)d 1.00(100.00%)
                                            0.0000  0.0000  0.0000  0.0000  0.0000
                                            0.0000  0.0000  0.0000  0.0000  0.0000
                                            0.0000  0.0000  0.0000  0.0000  0.0000
                                            0.0000  0.0000  0.0000  0.0000  0.0000
                                           -0.0000  0.0000  0.0000  0.0000  0.0000
                                            1.0000  0.0000  0.0000 -0.0000 -0.0000
                                            0.0000 -0.0000 -0.0000  0.0000  0.0000
                                            0.0000  0.0000  0.0000  0.0000  0.0000
                                            0.0000 -0.0000 -0.0000  0.0000  0.0000
                                            0.0000  0.0000 -0.0000 -0.0000  0.0000
                                            0.0000  0.0000  0.0000  0.0000  0.0000
    15. (1.99767) CR ( 7)Br   3           s(  0.00%)p 0.00(  0.00%)d 1.00(100.00%)
                                            0.0000  0.0000  0.0000  0.0000  0.0000
                                            0.0000  0.0000  0.0000  0.0000  0.0000
                                            0.0000  0.0000  0.0000  0.0000  0.0000
                                            0.0000  0.0000  0.0000  0.0000  0.0000
                                           -0.0000  0.0000  0.0000  0.0000  0.0000
                                           -0.0000  0.0000  0.0000 -0.0000  1.0000
                                            0.0000 -0.0000 -0.0000  0.0000  0.0000
                                            0.0000  0.0000  0.0000  0.0000  0.0000
                                            0.0000 -0.0000 -0.0000  0.0000  0.0000
                                            0.0000  0.0000 -0.0000 -0.0000  0.0000
                                            0.0000  0.0000  0.0000  0.0000  0.0000
    16. (1.99757) CR ( 8)Br   3           s(  0.00%)p 0.00(  0.00%)d 1.00(100.00%)
                                           -0.0000 -0.0001 -0.0000  0.0000  0.0000
                                            0.0000  0.0000  0.0000  0.0000  0.0000
                                           -0.0000  0.0000  0.0000 -0.0000 -0.0000
                                            0.0000  0.0000  0.0000  0.0000  0.0000
                                            0.0000  0.0000  0.0000 -0.0000 -0.0000
                                            0.0000  0.0000  0.0000  0.0000  0.0000
                                            0.0000  0.0000  0.0000  1.0000 -0.0000
                                            0.0000 -0.0000 -0.0000 -0.0000  0.0000
                                           -0.0000  0.0000  0.0000 -0.0000 -0.0000
                                           -0.0000  0.0000  0.0000  0.0000  0.0000
                                            0.0000 -0.0000 -0.0000  0.0000  0.0000
    17. (1.99765) CR ( 9)Br   3           s(  0.00%)p 0.00(  0.00%)d 1.00(100.00%)
                                           -0.0000 -0.0000 -0.0000  0.0000  0.0000
                                            0.0000  0.0000  0.0000 -0.0000  0.0000
                                            0.0000  0.0000  0.0000 -0.0000 -0.0000
                                            0.0000  0.0000  0.0000  0.0000  0.0000
                                            0.0000  0.0000  0.0000 -0.0000  0.0000
                                            0.0000  0.0000  0.0000  0.0000  0.0000
                                            0.0000  0.0000  0.0000 -0.0000 -0.0000
                                            0.0000 -0.0000  1.0000 -0.0000  0.0000
                                           -0.0000  0.0000  0.0000 -0.0000 -0.0000
                                           -0.0000  0.0000  0.0000  0.0000  0.0000
                                            0.0000 -0.0000  0.0000 -0.0000  0.0000
    18. (1.96660) LP ( 1) O   1           s( 70.99%)p 0.41( 28.96%)d 0.00(  0.05%)
                                                  f 0.00(  0.00%)
                                            0.0002  0.8425  0.0099 -0.0075 -0.0013
                                           -0.2550  0.0019 -0.0041 -0.0005  0.4738
                                            0.0066  0.0045  0.0014  0.0000  0.0000
                                            0.0000  0.0000  0.0198  0.0027 -0.0021
                                            0.0000  0.0000  0.0000  0.0000  0.0000
                                            0.0000  0.0068 -0.0001 -0.0030  0.0055
                                            0.0001  0.0011  0.0000  0.0000 -0.0003
                                            0.0005 -0.0013 -0.0001  0.0000  0.0000
                                            0.0000  0.0000  0.0033 -0.0021  0.0045
                                           -0.0010
    19. (1.94830) LP ( 2) O   1           s(  0.00%)p 1.00( 99.85%)d 0.00(  0.14%)
                                                  f 0.00(  0.01%)
                                            0.0000  0.0000  0.0000  0.0000  0.0000
                                            0.0000  0.0000  0.0000  0.0000  0.0000
                                            0.0000  0.0000  0.0000  0.9990  0.0161
                                            0.0042  0.0115  0.0000  0.0000  0.0000
                                            0.0322  0.0045 -0.0023 -0.0157  0.0039
                                            0.0094  0.0000  0.0000  0.0000  0.0000
                                            0.0000  0.0000 -0.0085  0.0001  0.0000
                                            0.0000  0.0000  0.0000  0.0075 -0.0023
                                            0.0001  0.0011  0.0000  0.0000  0.0000
                                            0.0000
    20. (1.67769) LP ( 3) O   1           s( 17.35%)p 4.75( 82.40%)d 0.01(  0.25%)
                                                  f 0.00(  0.01%)
                                           -0.0000  0.4163  0.0091  0.0073  0.0034
                                           -0.2488  0.0131  0.0027  0.0082 -0.8728
                                           -0.0092  0.0015  0.0024 -0.0000 -0.0000
                                           -0.0000 -0.0000 -0.0143 -0.0030 -0.0005
                                           -0.0000 -0.0000 -0.0000 -0.0000 -0.0000
                                           -0.0000 -0.0435 -0.0059  0.0015 -0.0175
                                           -0.0010  0.0044 -0.0000 -0.0000  0.0022
                                            0.0002  0.0086 -0.0016 -0.0000 -0.0000
                                           -0.0000 -0.0000  0.0017  0.0002 -0.0021
                                           -0.0007
    21. (1.97382) LP ( 1)Cl   2           s( 90.85%)p 0.10(  9.13%)d 0.00(  0.03%)
                                                  f 0.00(  0.00%)
                                            0.0000  0.0003  0.9531  0.0079  0.0014
                                            0.0003  0.0001  0.3006 -0.0064 -0.0033
                                            0.0014  0.0000 -0.0293  0.0009  0.0000
                                           -0.0006  0.0000  0.0000  0.0000  0.0000
                                            0.0000 -0.0004 -0.0002 -0.0002  0.0000
                                            0.0000  0.0000  0.0000  0.0000  0.0000
                                           -0.0136  0.0001  0.0004  0.0083  0.0005
                                            0.0000  0.0000  0.0000 -0.0024 -0.0003
                                            0.0001 -0.0000  0.0000  0.0000  0.0000
                                            0.0000  0.0037 -0.0001 -0.0002  0.0001
    22. (1.95507) LP ( 2)Cl   2           s(  0.00%)p 1.00( 99.93%)d 0.00(  0.06%)
                                                  f 0.00(  0.01%)
                                            0.0000  0.0000  0.0000  0.0000  0.0000
                                            0.0000  0.0000  0.0000  0.0000  0.0000
                                            0.0000  0.0000  0.0000  0.0000  0.0000
                                            0.0000 -0.0001  0.9995  0.0155  0.0050
                                           -0.0022  0.0000  0.0000  0.0000  0.0116
                                            0.0201  0.0074  0.0022  0.0017  0.0001
                                            0.0000  0.0000  0.0000  0.0000  0.0000
                                            0.0000 -0.0055  0.0015  0.0000  0.0000
                                            0.0000  0.0000  0.0063 -0.0013  0.0006
                                           -0.0005  0.0000  0.0000  0.0000  0.0000
    23. (1.95346) LP ( 3)Cl   2           s(  0.10%)p99.99( 99.84%)d 0.45(  0.05%)
                                                  f 0.08(  0.01%)
                                            0.0000 -0.0000  0.0314  0.0042  0.0038
                                           -0.0026  0.0000 -0.0022  0.0006  0.0002
                                           -0.0005 -0.0001  0.9991  0.0142  0.0016
                                            0.0004  0.0000  0.0000  0.0000  0.0000
                                            0.0000  0.0045  0.0183  0.0073  0.0000
                                            0.0000  0.0000  0.0000  0.0000  0.0000
                                           -0.0051 -0.0038 -0.0023  0.0000 -0.0017
                                            0.0001  0.0000  0.0000  0.0001  0.0001
                                           -0.0025  0.0005  0.0000  0.0000  0.0000
                                            0.0000 -0.0010  0.0003  0.0083 -0.0019
    24. (1.97595) LP ( 1)Br   3           s( 87.25%)p 0.15( 12.74%)d 0.00(  0.00%)
                                                  f 0.00(  0.00%)
                                            0.0005  0.9341  0.0010 -0.0019 -0.0005
                                           -0.0001 -0.0001 -0.0913  0.0005 -0.0001
                                           -0.0001 -0.0003 -0.3451  0.0042  0.0002
                                           -0.0007  0.0000  0.0000  0.0000  0.0000
                                            0.0000 -0.0000 -0.0020  0.0003 -0.0003
                                            0.0000  0.0000  0.0000  0.0000  0.0000
                                            0.0000  0.0000  0.0000  0.0001  0.0038
                                           -0.0004  0.0003  0.0000  0.0028 -0.0004
                                            0.0005  0.0000  0.0000  0.0001  0.0000
                                            0.0004 -0.0001  0.0000  0.0000  0.0000
                                            0.0000  0.0004 -0.0001  0.0004 -0.0001
    25. (1.95484) LP ( 2)Br   3           s(  0.00%)p 1.00( 99.98%)d 0.00(  0.01%)
                                                  f 0.00(  0.00%)
                                            0.0000  0.0000  0.0000  0.0000  0.0000
                                            0.0000  0.0000  0.0000  0.0000  0.0000
                                            0.0000  0.0000  0.0000  0.0000  0.0000
                                            0.0000  0.0004  0.9999  0.0053  0.0024
                                           -0.0009  0.0000  0.0000  0.0000  0.0000
                                           -0.0000  0.0017  0.0004 -0.0016 -0.0000
                                            0.0101 -0.0004 -0.0046  0.0000  0.0000
                                            0.0000  0.0000  0.0000  0.0000  0.0000
                                            0.0000 -0.0037 -0.0015  0.0000  0.0000
                                            0.0000  0.0000 -0.0042 -0.0016  0.0021
                                            0.0008  0.0000  0.0000  0.0000  0.0000
    26. (1.95452) LP ( 3)Br   3           s(  0.01%)p 1.00( 99.98%)d 0.00(  0.01%)
                                                  f 0.00(  0.00%)
                                            0.0000  0.0076 -0.0006  0.0007  0.0006
                                           -0.0001  0.0004  0.9715  0.0051  0.0022
                                           -0.0010 -0.0001 -0.2364 -0.0012 -0.0008
                                            0.0003  0.0000  0.0000  0.0000  0.0000
                                            0.0000 -0.0000  0.0102 -0.0002 -0.0041
                                            0.0000  0.0000  0.0000  0.0000  0.0000
                                            0.0000  0.0000  0.0000 -0.0000  0.0035
                                            0.0007 -0.0032  0.0000  0.0004 -0.0003
                                            0.0004  0.0000  0.0000 -0.0014 -0.0006
                                            0.0003  0.0001  0.0000  0.0000  0.0000
                                            0.0000 -0.0044 -0.0016  0.0034  0.0012
    27. (0.02245) RY*( 1) O   1           s(  0.00%)p 1.00( 99.22%)d 0.01(  0.74%)
                                                  f 0.00(  0.04%)
                                            0.0000  0.0000  0.0000  0.0000  0.0000
                                            0.0000  0.0000  0.0000  0.0000  0.0000
                                            0.0000  0.0000  0.0000 -0.0190  0.9954
                                           -0.0296 -0.0145  0.0000  0.0000  0.0000
                                            0.0661  0.0257  0.0054 -0.0466 -0.0011
                                            0.0109  0.0000  0.0000  0.0000  0.0000
                                            0.0000  0.0000 -0.0122  0.0094  0.0000
                                            0.0000  0.0000  0.0000  0.0103 -0.0093
                                           -0.0011  0.0010  0.0000  0.0000  0.0000
                                            0.0000
    28. (0.01826) RY*( 2) O   1           s( 24.41%)p 3.03( 73.94%)d 0.06(  1.53%)
                                                  f 0.00(  0.11%)
                                           -0.0000  0.0060  0.4936  0.0134 -0.0177
                                            0.0351 -0.3026 -0.0154  0.0266 -0.0172
                                            0.8013 -0.0114 -0.0557  0.0000  0.0000
                                            0.0000  0.0000  0.1153  0.0344  0.0148
                                            0.0000  0.0000  0.0000  0.0000  0.0000
                                            0.0000 -0.0042  0.0055  0.0046  0.0214
                                            0.0006 -0.0069  0.0000  0.0000 -0.0036
                                            0.0003  0.0006  0.0040  0.0000  0.0000
                                            0.0000  0.0000  0.0229 -0.0091  0.0205
                                           -0.0094
    29. (0.00874) RY*( 3) O   1           s( 32.71%)p 0.90( 29.46%)d 1.14( 37.23%)
                                                  f 0.02(  0.61%)
                                           -0.0000  0.0048  0.5581  0.1241  0.0135
                                           -0.0036 -0.3367  0.0057  0.0930  0.0046
                                           -0.4061  0.0295 -0.0819  0.0000  0.0000
[...]
                                            0.9402 -0.0045  0.0450 -0.2453  0.0829
                                            0.0000  0.0000  0.0000 -0.0324  0.0128
                                            0.0000  0.0000  0.0000  0.0000 -0.1700
                                           -0.0068 -0.0080 -0.0373
   158. (0.00031) RY*( 8) H   4           s( 23.76%)p 0.46( 10.82%)d 2.75( 65.42%)
                                            0.0048  0.0310 -0.2692  0.4051 -0.0954
                                            0.0721 -0.1820  0.0523 -0.1258  0.2055
                                           -0.0000 -0.0000 -0.0000 -0.6155 -0.0134
                                           -0.0000 -0.0000 -0.0000 -0.0000  0.4836
                                           -0.1006 -0.0909  0.1513
   159. (0.00030) RY*( 9) H   4           s(  0.00%)p 1.00(  1.59%)d61.83( 98.41%)
                                            0.0000  0.0000  0.0000  0.0000  0.0000
                                            0.0000  0.0000  0.0000  0.0000  0.0000
                                            0.0157 -0.1250  0.0059  0.0000  0.0000
                                            0.9130 -0.3594 -0.1177  0.0868  0.0000
                                            0.0000  0.0000  0.0000
   160. (0.00030) RY*(10) H   4           s(  7.14%)p 1.14(  8.11%)d11.87( 84.75%)
                                           -0.0004 -0.0003 -0.0926  0.2506 -0.0070
                                           -0.0936 -0.0650  0.0064 -0.0929  0.2437
                                            0.0000  0.0000  0.0000 -0.1623 -0.1079
                                            0.0000  0.0000  0.0000  0.0000 -0.3696
                                            0.0260  0.7646 -0.2960
   161. (0.00024) RY*(11) H   4           s(  0.00%)p 1.00( 58.89%)d 0.70( 41.11%)
                                            0.0000  0.0000  0.0000  0.0000  0.0000
                                            0.0000  0.0000  0.0000  0.0000  0.0000
                                           -0.0138  0.7422  0.1944  0.0000  0.0000
                                            0.1816  0.0342  0.6042  0.1087  0.0000
                                            0.0000  0.0000  0.0000
   162. (0.00023) RY*(12) H   4           s(  7.68%)p 1.09(  8.39%)d10.93( 83.93%)
                                            0.0053  0.0009 -0.0695  0.2682  0.1158
                                            0.1531  0.2107  0.0093 -0.0503 -0.0082
                                            0.0000  0.0000  0.0000  0.5507  0.0847
                                            0.0000  0.0000  0.0000  0.0000  0.6164
                                            0.1631  0.3486 -0.0271
   163. (0.00020) RY*(13) H   4           s( 18.42%)p 1.40( 25.73%)d 3.03( 55.85%)
                                           -0.0109 -0.0595 -0.0437  0.4226 -0.0014
                                           -0.0820  0.0513 -0.0047 -0.1181  0.4837
                                            0.0000  0.0000  0.0000  0.3411  0.2368
                                            0.0000  0.0000  0.0000  0.0000 -0.2171
                                           -0.3657 -0.3924 -0.2264
   164. (0.00015) RY*(14) H   4           s( 58.00%)p 0.63( 36.73%)d 0.09(  5.27%)
                                           -0.0006 -0.0009  0.7319  0.2105  0.0271
                                            0.0677  0.2337 -0.0262  0.4826  0.2716
                                            0.0000  0.0000  0.0000 -0.1940 -0.0405
                                            0.0000  0.0000  0.0000  0.0000  0.0811
                                            0.0579  0.0304  0.0507
   165. (0.00011) RY*(15) H   4           s( 39.79%)p 1.37( 54.59%)d 0.14(  5.62%)
                                           -0.0004 -0.0016  0.0597  0.6279 -0.0050
                                            0.0976 -0.0984  0.0614  0.1290 -0.7115
                                            0.0000  0.0000  0.0000  0.0063  0.0112
                                            0.0000  0.0000  0.0000  0.0000 -0.2120
                                           -0.0442 -0.0745 -0.0602
   166. (0.00008) RY*(16) H   4           s(  0.00%)p 1.00(  0.63%)d99.99( 99.37%)
   167. (0.00009) RY*(17) H   4           s(  0.00%)p 1.00( 73.58%)d 0.36( 26.42%)
   168. (0.00007) RY*(18) H   4           s(  0.83%)p11.78(  9.80%)d99.99( 89.37%)
   169. (0.00005) RY*(19) H   4           s(  3.62%)p21.01( 75.97%)d 5.65( 20.42%)
   170. (0.00004) RY*(20) H   4           s(  5.63%)p 1.10(  6.19%)d15.66( 88.18%)
   171. (0.00003) RY*(21) H   4           s(  0.00%)p 1.00(  0.37%)d99.99( 99.63%)
   172. (0.00003) RY*(22) H   4           s(  2.56%)p 1.35(  3.46%)d36.66( 93.98%)
   173. (0.06613) BD*( 1) O   1 -Cl   2  
                ( 42.54%)   0.6522* O   1 s( 11.99%)p 7.30( 87.52%)d 0.04(  0.47%)
                                                  f 0.00(  0.02%)
                                           -0.0003 -0.3410  0.0581 -0.0174  0.0008
                                           -0.9282  0.0436  0.0109  0.0167  0.1045
                                            0.0226  0.0036 -0.0025 -0.0000 -0.0000
                                           -0.0000 -0.0000  0.0149  0.0018 -0.0011
                                           -0.0000 -0.0000 -0.0000 -0.0000 -0.0000
                                           -0.0000 -0.0515 -0.0033 -0.0019  0.0419
                                            0.0036 -0.0003 -0.0000 -0.0000  0.0104
                                           -0.0009 -0.0005  0.0001 -0.0000 -0.0000
                                           -0.0000 -0.0000 -0.0083 -0.0009  0.0010
                                           -0.0011
                ( 57.46%)  -0.7580*Cl   2 s(  9.38%)p 9.53( 89.41%)d 0.12(  1.09%)
                                                  f 0.01(  0.12%)
                                            0.0000 -0.0006 -0.3000  0.0608  0.0106
                                            0.0026  0.0004  0.9431 -0.0660 -0.0136
                                            0.0034  0.0000  0.0109  0.0012 -0.0032
                                            0.0015 -0.0000 -0.0000 -0.0000 -0.0000
                                           -0.0000 -0.0134  0.0002 -0.0001 -0.0000
                                           -0.0000 -0.0000 -0.0000 -0.0000 -0.0000
                                           -0.0865  0.0128  0.0019  0.0548 -0.0081
                                           -0.0022 -0.0000 -0.0000 -0.0219  0.0028
                                           -0.0006  0.0001 -0.0000 -0.0000 -0.0000
                                           -0.0000  0.0269 -0.0029  0.0023 -0.0003
   174. (0.29903) BD*( 1)Br   3 - H   4  
                ( 18.62%)   0.4315*Br   3 s( 12.73%)p 6.84( 87.05%)d 0.02(  0.21%)
                                                  f 0.00(  0.02%)
                                           -0.0003 -0.3567  0.0025 -0.0040 -0.0009
                                           -0.0005 -0.0001 -0.2178  0.0025  0.0011
                                           -0.0006 -0.0005 -0.9071  0.0140  0.0062
                                           -0.0028 -0.0000 -0.0000 -0.0000 -0.0000
                                           -0.0000 -0.0000 -0.0174  0.0025 -0.0004
                                           -0.0000 -0.0000 -0.0000 -0.0000 -0.0000
                                           -0.0000 -0.0000 -0.0000  0.0000  0.0343
                                           -0.0039  0.0003  0.0000  0.0232 -0.0031
                                            0.0008 -0.0000 -0.0000  0.0019  0.0002
                                            0.0079  0.0006 -0.0000 -0.0000 -0.0000
                                           -0.0000  0.0067  0.0006  0.0076  0.0001
                ( 81.38%)  -0.9021* H   4 s( 99.76%)p 0.00(  0.21%)d 0.00(  0.03%)
                                           -0.9985  0.0028 -0.0235 -0.0005  0.0069
                                            0.0038  0.0039  0.0347  0.0280  0.0038
                                           -0.0000 -0.0000 -0.0000  0.0000 -0.0076
                                           -0.0000 -0.0000 -0.0000 -0.0000  0.0012
                                            0.0130  0.0022  0.0092


 NHO Directionality and "Bond Bending" (deviations from line of nuclear centers)

         [Thresholds for printing:  angular deviation  >  1.0 degree]
                                    hybrid p-character > 25.0%
                                    orbital occupancy  >  0.10e

                                Line of Centers        Hybrid 1              Hybrid 2
                                ---------------  -------------------   ------------------
                NBO               Theta   Phi    Theta   Phi    Dev    Theta   Phi    Dev
 ========================================================================================
     1. BD (   1) O   1 -Cl   2    90.0    0.0    90.0  351.5   8.5      --     --    --
    18. LP (   1) O   1             --     --     90.0  117.9   --       --     --    --
    19. LP (   2) O   1             --     --      0.0    0.0   --       --     --    --
    20. LP (   3) O   1             --     --     90.0  255.6   --       --     --    --
    22. LP (   2)Cl   2             --     --      0.0    0.0   --       --     --    --
    23. LP (   3)Cl   2             --     --     90.0   90.1   --       --     --    --
    25. LP (   2)Br   3             --     --      0.0    0.0   --       --     --    --
    26. LP (   3)Br   3             --     --     90.0  346.3   --       --     --    --


 Natural Bond Orbitals (Summary):

           NBO                  Occupancy  
 -----------------------------------------------
 Molecular unit  1  (OCl)
     1. BD (   1) O   1 -Cl   2          1.93754
     3. CR (   1) O   1                  1.99982
     4. CR (   1)Cl   2                  2.00000
     5. CR (   2)Cl   2                  1.99975
     6. CR (   3)Cl   2                  1.99995
     7. CR (   4)Cl   2                  2.00003
     8. CR (   5)Cl   2                  2.00003
    18. LP (   1) O   1                  1.96660
    19. LP (   2) O   1                  1.94830
    20. LP (   3) O   1                  1.67769
    21. LP (   1)Cl   2                  1.97382
    22. LP (   2)Cl   2                  1.95507
    23. LP (   3)Cl   2                  1.95346
    27. RY*(   1) O   1                  0.02245
    28. RY*(   2) O   1                  0.01826
    29. RY*(   3) O   1                  0.00874
    30. RY*(   4) O   1                  0.00696
    31. RY*(   5) O   1                  0.00678
    32. RY*(   6) O   1                  0.00633
    33. RY*(   7) O   1                  0.00574
    34. RY*(   8) O   1                  0.00489
    35. RY*(   9) O   1                  0.00227
    36. RY*(  10) O   1                  0.00071
    37. RY*(  11) O   1                  0.00069
    38. RY*(  12) O   1                  0.00068
    39. RY*(  13) O   1                  0.00061
    40. RY*(  14) O   1                  0.00056
    41. RY*(  15) O   1                  0.00054
    42. RY*(  16) O   1                  0.00050
    43. RY*(  17) O   1                  0.00050
    44. RY*(  18) O   1                  0.00049
    45. RY*(  19) O   1                  0.00047
    46. RY*(  20) O   1                  0.00047
    47. RY*(  21) O   1                  0.00046
    48. RY*(  22) O   1                  0.00046
    49. RY*(  23) O   1                  0.00042
    50. RY*(  24) O   1                  0.00036
    51. RY*(  25) O   1                  0.00028
    52. RY*(  26) O   1                  0.00015
    53. RY*(  27) O   1                  0.00012
    54. RY*(  28) O   1                  0.00013
    55. RY*(  29) O   1                  0.00011
    56. RY*(  30) O   1                  0.00009
    57. RY*(  31) O   1                  0.00009
    58. RY*(  32) O   1                  0.00009
    59. RY*(  33) O   1                  0.00009
    60. RY*(  34) O   1                  0.00008
    61. RY*(  35) O   1                  0.00009
    62. RY*(  36) O   1                  0.00007
    63. RY*(  37) O   1                  0.00007
    64. RY*(  38) O   1                  0.00005
    65. RY*(  39) O   1                  0.00005
    66. RY*(  40) O   1                  0.00002
    67. RY*(  41) O   1                 -0.00018
    68. RY*(   1)Cl   2                  0.02480
    69. RY*(   2)Cl   2                  0.02080
    70. RY*(   3)Cl   2                  0.01703
    71. RY*(   4)Cl   2                  0.01699
    72. RY*(   5)Cl   2                  0.01269
    73. RY*(   6)Cl   2                  0.00987
    74. RY*(   7)Cl   2                  0.00957
    75. RY*(   8)Cl   2                  0.00677
    76. RY*(   9)Cl   2                  0.00189
    77. RY*(  10)Cl   2                  0.00127
    78. RY*(  11)Cl   2                  0.00127
    79. RY*(  12)Cl   2                  0.00122
    80. RY*(  13)Cl   2                  0.00122
    81. RY*(  14)Cl   2                  0.00119
    82. RY*(  15)Cl   2                  0.00114
    83. RY*(  16)Cl   2                  0.00100
    84. RY*(  17)Cl   2                  0.00080
    85. RY*(  18)Cl   2                  0.00079
    86. RY*(  19)Cl   2                  0.00071
    87. RY*(  20)Cl   2                  0.00065
    88. RY*(  21)Cl   2                  0.00047
    89. RY*(  22)Cl   2                  0.00038
    90. RY*(  23)Cl   2                  0.00037
    91. RY*(  24)Cl   2                  0.00033
    92. RY*(  25)Cl   2                  0.00019
    93. RY*(  26)Cl   2                  0.00017
    94. RY*(  27)Cl   2                  0.00017
    95. RY*(  28)Cl   2                  0.00015
    96. RY*(  29)Cl   2                  0.00013
    97. RY*(  30)Cl   2                  0.00012
    98. RY*(  31)Cl   2                  0.00013
    99. RY*(  32)Cl   2                  0.00012
   100. RY*(  33)Cl   2                  0.00011
   101. RY*(  34)Cl   2                  0.00010
   102. RY*(  35)Cl   2                  0.00009
   103. RY*(  36)Cl   2                  0.00010
   104. RY*(  37)Cl   2                  0.00008
   105. RY*(  38)Cl   2                  0.00004
   106. RY*(  39)Cl   2                  0.00003
   107. RY*(  40)Cl   2                  0.00003
   108. RY*(  41)Cl   2                  0.00000
   173. BD*(   1) O   1 -Cl   2          0.06613
       -------------------------------
              Total Lewis   25.41207  ( 98.8607%)
        Valence non-Lewis    0.06613  (  0.2573%)
        Rydberg non-Lewis    0.22673  (  0.8820%)
       -------------------------------
            Total unit  1   25.70492  (100.0000%)
           Charge unit  1   -0.70492

 Molecular unit  2  (HBr)
     2. BD (   1)Br   3 - H   4          1.95278
     9. CR (   1)Br   3                  1.99949
    10. CR (   2)Br   3                  1.99995
    11. CR (   3)Br   3                  1.99982
    12. CR (   4)Br   3                  1.99996
    13. CR (   5)Br   3                  1.99764
    14. CR (   6)Br   3                  1.99770
    15. CR (   7)Br   3                  1.99767
    16. CR (   8)Br   3                  1.99757
    17. CR (   9)Br   3                  1.99765
    24. LP (   1)Br   3                  1.97595
    25. LP (   2)Br   3                  1.95484
    26. LP (   3)Br   3                  1.95452
   109. RY*(   1)Br   3                  0.01806
   110. RY*(   2)Br   3                  0.01805
   111. RY*(   3)Br   3                  0.01786
   112. RY*(   4)Br   3                  0.01774
   113. RY*(   5)Br   3                  0.01688
   114. RY*(   6)Br   3                  0.01025
   115. RY*(   7)Br   3                  0.01020
   116. RY*(   8)Br   3                  0.00796
   117. RY*(   9)Br   3                  0.00172
   118. RY*(  10)Br   3                  0.00172
   119. RY*(  11)Br   3                  0.00170
   120. RY*(  12)Br   3                  0.00170
   121. RY*(  13)Br   3                  0.00166
   122. RY*(  14)Br   3                  0.00166
   123. RY*(  15)Br   3                  0.00165
   124. RY*(  16)Br   3                  0.00165
   125. RY*(  17)Br   3                  0.00166
   126. RY*(  18)Br   3                  0.00157
   127. RY*(  19)Br   3                  0.00122
   128. RY*(  20)Br   3                  0.00120
   129. RY*(  21)Br   3                  0.00116
   130. RY*(  22)Br   3                  0.00072
   131. RY*(  23)Br   3                  0.00072
   132. RY*(  24)Br   3                  0.00059
   133. RY*(  25)Br   3                  0.00044
   134. RY*(  26)Br   3                  0.00028
   135. RY*(  27)Br   3                  0.00025
   136. RY*(  28)Br   3                  0.00023
   137. RY*(  29)Br   3                  0.00023
   138. RY*(  30)Br   3                  0.00023
   139. RY*(  31)Br   3                  0.00023
   140. RY*(  32)Br   3                  0.00022
   141. RY*(  33)Br   3                  0.00019
   142. RY*(  34)Br   3                  0.00018
   143. RY*(  35)Br   3                  0.00013
   144. RY*(  36)Br   3                  0.00012
   145. RY*(  37)Br   3                  0.00013
   146. RY*(  38)Br   3                  0.00011
   147. RY*(  39)Br   3                  0.00008
   148. RY*(  40)Br   3                  0.00008
   149. RY*(  41)Br   3                  0.00005
   150. RY*(  42)Br   3                  0.00000
   151. RY*(   1) H   4                  0.00618
   152. RY*(   2) H   4                  0.00615
   153. RY*(   3) H   4                  0.00486
   154. RY*(   4) H   4                  0.00428
   155. RY*(   5) H   4                  0.00327
   156. RY*(   6) H   4                  0.00072
   157. RY*(   7) H   4                  0.00036
   158. RY*(   8) H   4                  0.00031
   159. RY*(   9) H   4                  0.00030
   160. RY*(  10) H   4                  0.00030
   161. RY*(  11) H   4                  0.00024
   162. RY*(  12) H   4                  0.00023
   163. RY*(  13) H   4                  0.00020
   164. RY*(  14) H   4                  0.00015
   165. RY*(  15) H   4                  0.00011
   166. RY*(  16) H   4                  0.00008
   167. RY*(  17) H   4                  0.00009
   168. RY*(  18) H   4                  0.00007
   169. RY*(  19) H   4                  0.00005
   170. RY*(  20) H   4                  0.00004
   171. RY*(  21) H   4                  0.00003
   172. RY*(  22) H   4                  0.00003
   174. BD*(   1)Br   3 - H   4          0.29903
       -------------------------------
              Total Lewis   35.82556  ( 98.7064%)
        Valence non-Lewis    0.29903  (  0.8239%)
        Rydberg non-Lewis    0.17050  (  0.4698%)
       -------------------------------
            Total unit  2   36.29508  (100.0000%)
           Charge unit  2   -0.29508
 Leave Link  607 at Tue Oct 19 14:36:35 2021, MaxMem= 16106127360 cpu:              80.0 elap:               2.9
 (Enter /sw/contrib/gaussian/g16/B01/g16/l9999.exe)
 1\1\GINC-N2207\SP\RMP2-FC\Gen\Br1Cl1H1O1(1-)\CGAVINH\19-Oct-2021\0\\#p
  pop=NBO SP NoSymm mp2/gen Pseudo=read density=current\\title\\-1,1\O\
 X,1,10.\Cl,1,1.68446532,2,90.\Br,1,3.06793175,2,90.,3,103.45029768,0\H
 ,1,1.3,2,90.,3,103.45029768,0\\Version=ES64L-G16RevB.01\HF=-950.490971
 2\MP2=-951.2082378\RMSD=9.249e-09\Dipole=0.6279802,0.2719844,0.\Quadru
 pole=4.8179127,-11.9540801,7.1361674,-4.8364684,0.,0.\PG=CS [SG(Br1Cl1
 H1O1)]\\@


 NATURE WILL TELL YOU A DIRECT LIE IF SHE CAN.

                                -- CHARLES DARWIN
 Job cpu time:       0 days  0 hours  5 minutes 46.1 seconds.
 Elapsed time:       0 days  0 hours  0 minutes 18.4 seconds.
 File lengths (MBytes):  RWF=     15 Int=      0 D2E=      0 Chk=      8 Scr=      1
 Normal termination of Gaussian 16 at Tue Oct 19 14:36:35 2021.
