 Entering Gaussian System, Link 0=g16
 Input=brhocl_pp_rOH_085_sp.gjf
 Output=brhocl_pp_rOH_085_sp.log
 Initial command:
 /sw/contrib/gaussian/g16/B01/g16/l1.exe "/scr/Gau-2455.inp" -scrdir="/scr/"
 Entering Link 1 = /sw/contrib/gaussian/g16/B01/g16/l1.exe PID=      2456.
  
 Copyright (c) 1988-2017, Gaussian, Inc.  All Rights Reserved.
  
 This is part of the Gaussian(R) 16 program.  It is based on
 the Gaussian(R) 09 system (copyright 2009, Gaussian, Inc.),
 the Gaussian(R) 03 system (copyright 2003, Gaussian, Inc.),
 the Gaussian(R) 98 system (copyright 1998, Gaussian, Inc.),
 the Gaussian(R) 94 system (copyright 1995, Gaussian, Inc.),
 the Gaussian 92(TM) system (copyright 1992, Gaussian, Inc.),
 the Gaussian 90(TM) system (copyright 1990, Gaussian, Inc.),
 the Gaussian 88(TM) system (copyright 1988, Gaussian, Inc.),
 the Gaussian 86(TM) system (copyright 1986, Carnegie Mellon
 University), and the Gaussian 82(TM) system (copyright 1983,
 Carnegie Mellon University). Gaussian is a federally registered
 trademark of Gaussian, Inc.
  
 This software contains proprietary and confidential information,
 including trade secrets, belonging to Gaussian, Inc.
  
 This software is provided under written license and may be
 used, copied, transmitted, or stored only in accord with that
 written license.
  
 The following legend is applicable only to US Government
 contracts under FAR:
  
                    RESTRICTED RIGHTS LEGEND
  
 Use, reproduction and disclosure by the US Government is
 subject to restrictions as set forth in subparagraphs (a)
 and (c) of the Commercial Computer Software - Restricted
 Rights clause in FAR 52.227-19.
  
 Gaussian, Inc.
 340 Quinnipiac St., Bldg. 40, Wallingford CT 06492
  
  
 ---------------------------------------------------------------
 Warning -- This program may not be used in any manner that
 competes with the business of Gaussian, Inc. or will provide
 assistance to any competitor of Gaussian, Inc.  The licensee
 of this program is prohibited from giving any competitor of
 Gaussian, Inc. access to this program.  By using this program,
 the user acknowledges that Gaussian, Inc. is engaged in the
 business of creating and licensing software in the field of
 computational chemistry and represents and warrants to the
 licensee that it is not a competitor of Gaussian, Inc. and that
 it will not use this program in any manner prohibited above.
 ---------------------------------------------------------------
  

 Cite this work as:
 Gaussian 16, Revision B.01,
 M. J. Frisch, G. W. Trucks, H. B. Schlegel, G. E. Scuseria, 
 M. A. Robb, J. R. Cheeseman, G. Scalmani, V. Barone, 
 G. A. Petersson, H. Nakatsuji, X. Li, M. Caricato, A. V. Marenich, 
 J. Bloino, B. G. Janesko, R. Gomperts, B. Mennucci, H. P. Hratchian, 
 J. V. Ortiz, A. F. Izmaylov, J. L. Sonnenberg, D. Williams-Young, 
 F. Ding, F. Lipparini, F. Egidi, J. Goings, B. Peng, A. Petrone, 
 T. Henderson, D. Ranasinghe, V. G. Zakrzewski, J. Gao, N. Rega, 
 G. Zheng, W. Liang, M. Hada, M. Ehara, K. Toyota, R. Fukuda, 
 J. Hasegawa, M. Ishida, T. Nakajima, Y. Honda, O. Kitao, H. Nakai, 
 T. Vreven, K. Throssell, J. A. Montgomery, Jr., J. E. Peralta, 
 F. Ogliaro, M. J. Bearpark, J. J. Heyd, E. N. Brothers, K. N. Kudin, 
 V. N. Staroverov, T. A. Keith, R. Kobayashi, J. Normand, 
 K. Raghavachari, A. P. Rendell, J. C. Burant, S. S. Iyengar, 
 J. Tomasi, M. Cossi, J. M. Millam, M. Klene, C. Adamo, R. Cammi, 
 J. W. Ochterski, R. L. Martin, K. Morokuma, O. Farkas, 
 J. B. Foresman, and D. J. Fox, Gaussian, Inc., Wallingford CT, 2016.
 
 ******************************************
 Gaussian 16:  ES64L-G16RevB.01 20-Dec-2017
                19-Oct-2021 
 ******************************************
 %nproc=28
 Will use up to   28 processors via shared memory.
 %mem=120GB
 %chk=/gscratch/ilahie/mccoygrp/coire_hocl/rOH_s_oop_0/brhocl_pp/brhocl_pp_rOH_08
 5_sp.chk
 --------------------------------------------------------
 #p pop=NBO SP NoSymm mp2/gen Pseudo=read density=current
 --------------------------------------------------------
 1/30=1,38=1,172=1/1;
 2/12=2,15=1,17=6,18=5,40=1/2;
 3/5=7,11=9,16=1,17=8,25=1,30=1,71=1/1,2,3;
 4//1;
 5/5=2,38=5/2;
 8/6=4,10=1/1;
 9/15=1,16=-3/6;
 10/5=1,13=10,31=1/2;
 6/7=2,8=2,9=2,10=2,22=-1,40=1/1,7;
 99/5=1,9=1/99;
 Leave Link    1 at Tue Oct 19 14:33:27 2021, MaxMem= 16106127360 cpu:               2.8 elap:               0.1
 (Enter /sw/contrib/gaussian/g16/B01/g16/l101.exe)
 -----
 title
 -----
 Symbolic Z-matrix:
 Charge = -1 Multiplicity = 1
 O
 X                    1     10. 
 Cl                   1    r1       2     90. 
 Br                   1    r2       2     90.      3    a1       0
 H                    1    r3       2    oop      3    a1       0
       Variables:
  r1                    1.68447                  
  r2                    3.06793                  
  r3                    0.85                     
  a1                  103.4503                   
  OOP                  90.                       
 
 ITRead=  0  0  0  0
 MicOpt= -1 -1 -1 -1
 NAtoms=      4 NQM=        4 NQMF=       0 NMMI=      0 NMMIF=      0
                NMic=       0 NMicF=      0.
                    Isotopes and Nuclear Properties:
 (Nuclear quadrupole moments (NQMom) in fm**2, nuclear magnetic moments (NMagM)
  in nuclear magnetons)

  Atom         1           2           3           4
 IAtWgt=          16          35          79           1
 AtmWgt=  15.9949146  34.9688527  78.9183361   1.0078250
 NucSpn=           0           3           3           1
 AtZEff=  -0.0000000  -0.0000000  -0.0000000  -0.0000000
 NQMom=    0.0000000  -8.1650000  31.3000000   0.0000000
 NMagM=    0.0000000   0.8218740   2.1063990   2.7928460
 AtZNuc=   8.0000000  17.0000000  35.0000000   1.0000000
 Leave Link  101 at Tue Oct 19 14:33:27 2021, MaxMem= 16106127360 cpu:               2.0 elap:               0.1
 (Enter /sw/contrib/gaussian/g16/B01/g16/l202.exe)
                          Input orientation:                          
 ---------------------------------------------------------------------
 Center     Atomic      Atomic             Coordinates (Angstroms)
 Number     Number       Type             X           Y           Z
 ---------------------------------------------------------------------
      1          8           0        0.000000    0.000000    0.000000
      2         17           0        1.684465    0.000000    0.000000
      3         35           0       -0.713606   -2.983785    0.000000
      4          1           0       -0.197712   -0.826686    0.000000
 ---------------------------------------------------------------------
                    Distance matrix (angstroms):
                    1          2          3          4
     1  O    0.000000
     2  Cl   1.684465   0.000000
     3  Br   3.067932   3.828018   0.000000
     4  H    0.850000   2.055724   2.217932   0.000000
 Symmetry turned off by external request.
 Stoichiometry    BrClHO(1-)
 Framework group  CS[SG(BrClHO)]
 Deg. of freedom     5
 Full point group                 CS      NOp   2
 Rotational constants (GHZ):          22.5893160           1.2836713           1.2146472
 Leave Link  202 at Tue Oct 19 14:33:27 2021, MaxMem= 16106127360 cpu:               0.2 elap:               0.0
 (Enter /sw/contrib/gaussian/g16/B01/g16/l301.exe)
 General basis read from cards:  (5D, 7F)
 Centers:       2      1      4
 aug-cc-pVTZ
 ****
 Centers:       3
 S 10 1.00
     Exponent=  9.6593900000D+03 Coefficients=  3.7100000000D-04
     Exponent=  1.4559600000D+03 Coefficients=  2.5710000000D-03
     Exponent=  3.2591400000D+02 Coefficients=  8.4850000000D-03
     Exponent=  4.6565700000D+01 Coefficients=  7.8222000000D-02
     Exponent=  1.8246900000D+01 Coefficients= -3.9714900000D-01
     Exponent=  3.8020100000D+00 Coefficients=  6.8586400000D-01
     Exponent=  1.7863200000D+00 Coefficients=  4.8681900000D-01
     Exponent=  6.0271400000D-01 Coefficients=  3.4913000000D-02
     Exponent=  2.8401400000D-01 Coefficients= -6.5730000000D-03
     Exponent=  1.2027100000D-01 Coefficients=  1.6420000000D-03
 S 10 1.00
     Exponent=  9.6593900000D+03 Coefficients= -1.5200000000D-04
     Exponent=  1.4559600000D+03 Coefficients= -1.0080000000D-03
     Exponent=  3.2591400000D+02 Coefficients= -3.6090000000D-03
     Exponent=  4.6565700000D+01 Coefficients= -2.7872000000D-02
     Exponent=  1.8246900000D+01 Coefficients=  1.5131700000D-01
     Exponent=  3.8020100000D+00 Coefficients= -3.5149700000D-01
     Exponent=  1.7863200000D+00 Coefficients= -4.1070300000D-01
     Exponent=  6.0271400000D-01 Coefficients=  3.4731600000D-01
     Exponent=  2.8401400000D-01 Coefficients=  6.7549100000D-01
     Exponent=  1.2027100000D-01 Coefficients=  2.4400800000D-01
 S 1 1.00
     Exponent=  6.0271400000D-01 Coefficients=  1.0000000000D+00
 S 1 1.00
     Exponent=  2.8401400000D-01 Coefficients=  1.0000000000D+00
 S 1 1.00
     Exponent=  1.2027100000D-01 Coefficients=  1.0000000000D+00
 S 1 1.00
     Exponent=  4.4500000000D-02 Coefficients=  1.0000000000D+00
 P 9 1.00
     Exponent=  4.9218700000D+02 Coefficients=  4.7200000000D-04
     Exponent=  9.2364200000D+01 Coefficients=  5.4940000000D-03
     Exponent=  2.7071800000D+01 Coefficients= -8.8030000000D-02
     Exponent=  7.2653900000D+00 Coefficients=  3.4348500000D-01
     Exponent=  3.4848100000D+00 Coefficients=  5.1020800000D-01
     Exponent=  1.6404800000D+00 Coefficients=  2.4863100000D-01
     Exponent=  6.4857000000D-01 Coefficients=  2.2201000000D-02
     Exponent=  2.5640700000D-01 Coefficients= -4.1900000000D-04
     Exponent=  9.5304000000D-02 Coefficients=  6.5600000000D-04
 P 9 1.00
     Exponent=  4.9218700000D+02 Coefficients= -1.5800000000D-04
     Exponent=  9.2364200000D+01 Coefficients= -1.3440000000D-03
     Exponent=  2.7071800000D+01 Coefficients=  2.4616000000D-02
     Exponent=  7.2653900000D+00 Coefficients= -1.1253200000D-01
     Exponent=  3.4848100000D+00 Coefficients= -1.7977500000D-01
     Exponent=  1.6404800000D+00 Coefficients= -7.3661000000D-02
     Exponent=  6.4857000000D-01 Coefficients=  3.4873400000D-01
     Exponent=  2.5640700000D-01 Coefficients=  5.5794800000D-01
     Exponent=  9.5304000000D-02 Coefficients=  2.6645600000D-01
 P 1 1.00
     Exponent=  7.6660000000D-01 Coefficients=  1.0000000000D+00
 P 1 1.00
     Exponent=  1.1820000000D-01 Coefficients=  1.0000000000D+00
 P 1 1.00
     Exponent=  3.9600000000D-02 Coefficients=  1.0000000000D+00
 D 8 1.00
     Exponent=  3.3899600000D+02 Coefficients=  1.5240000000D-03
     Exponent=  1.0321700000D+02 Coefficients=  1.5673000000D-02
     Exponent=  4.2363800000D+01 Coefficients=  7.2400000000D-02
     Exponent=  1.8435600000D+01 Coefficients=  1.8630300000D-01
     Exponent=  8.3725400000D+00 Coefficients=  3.2388100000D-01
     Exponent=  3.8022200000D+00 Coefficients=  3.7453400000D-01
     Exponent=  1.6867700000D+00 Coefficients=  2.5741800000D-01
     Exponent=  6.7752000000D-01 Coefficients=  6.8051000000D-02
 D 1 1.00
     Exponent=  6.7752000000D-01 Coefficients=  1.0000000000D+00
 D 1 1.00
     Exponent=  2.5530000000D-01 Coefficients=  1.0000000000D+00
 D 1 1.00
     Exponent=  1.0090000000D-01 Coefficients=  1.0000000000D+00
 F 1 1.00
     Exponent=  5.6060000000D-01 Coefficients=  1.0000000000D+00
 F 1 1.00
     Exponent=  2.4540000000D-01 Coefficients=  1.0000000000D+00
 ****
 ======================================================================================================
                                       Pseudopotential Parameters
 ======================================================================================================
  Center     Atomic      Valence      Angular      Power
  Number     Number     Electrons     Momentum     of R      Exponent        Coefficient   SO-Coeffient
 ======================================================================================================
    1          8
                                   No pseudopotential on this center.
    2         17
                                   No pseudopotential on this center.
    3         35           25
                                      G and up 
                                                     2        1.0000000        0.00000000    0.00000000
                                      S - G
                                                     2       70.0242570       49.96283400    0.00000000
                                                     2       31.1784120      370.01420500    0.00000000
                                                     2        7.1565930       10.24143900    0.00000000
                                      P - G
                                                     2       46.7734710       99.11224400    0.00000000
                                                     2       46.1841200      198.25304600    0.00000000
                                                     2       21.7138580       28.26174000    0.00000000
                                                     2       20.9417920       56.62336600    0.00000000
                                      D - G
                                                     2       50.6988390      -18.60585300    0.00000000
                                                     2       50.6447640      -27.92328000    0.00000000
                                                     2       15.4475090       -0.37969300    0.00000000
                                                     2       15.5002590       -0.78058300    0.00000000
                                                     2        2.8003910        0.03596800    0.00000000
                                                     2        1.0774800        0.09439700    0.00000000
                                      F - G
                                                     2       14.4656060       -1.09126900    0.00000000
                                                     2       21.2340650       -2.88769100    0.00000000
    4          1
                                   No pseudopotential on this center.
 ======================================================================================================
 Ernie: Thresh=  0.10000D-02 Tol=  0.10000D-05 Strict=F.
 Ernie:  25 primitive shells out of 163 were deleted.
   174 basis functions,   373 primitive gaussians,   204 cartesian basis functions
    26 alpha electrons       26 beta electrons
       nuclear repulsion energy       151.2943720405 Hartrees.
 IExCor=    0 DFT=F Ex=HF Corr=None ExCW=0 ScaHFX=  1.000000
 ScaDFX=  1.000000  1.000000  1.000000  1.000000 ScalE2=  1.000000  1.000000
 IRadAn=      5 IRanWt=     -1 IRanGd=            0 ICorTp=0 IEmpDi=  4
 NAtoms=    4 NActive=    4 NUniq=    4 SFac= 1.00D+00 NAtFMM=   60 NAOKFM=F Big=F
 Integral buffers will be    131072 words long.
 Raffenetti 1 integral format.
 Two-electron integral symmetry is turned off.
 Leave Link  301 at Tue Oct 19 14:33:27 2021, MaxMem= 16106127360 cpu:               2.8 elap:               0.1
 (Enter /sw/contrib/gaussian/g16/B01/g16/l302.exe)
 NPDir=0 NMtPBC=     1 NCelOv=     1 NCel=       1 NClECP=     1 NCelD=      1
         NCelK=      1 NCelE2=     1 NClLst=     1 CellRange=     0.0.
 One-electron integrals computed using PRISM.
   1 Symmetry operations used in ECPInt.
 ECPInt:  NShTT=    1596 NPrTT=    9902 LenC2=    1595 LenP2D=    7765.
 LDataN:  DoStor=T MaxTD1= 7 Len=  274
 NBasis=   174 RedAO= T EigKep=  1.85D-04  NBF=   174
 NBsUse=   174 1.00D-06 EigRej= -1.00D+00 NBFU=   174
 Leave Link  302 at Tue Oct 19 14:33:27 2021, MaxMem= 16106127360 cpu:               8.0 elap:               0.3
 (Enter /sw/contrib/gaussian/g16/B01/g16/l303.exe)
 DipDrv:  MaxL=1.
 Leave Link  303 at Tue Oct 19 14:33:27 2021, MaxMem= 16106127360 cpu:               0.9 elap:               0.1
 (Enter /sw/contrib/gaussian/g16/B01/g16/l401.exe)
 ExpMin= 2.53D-02 ExpMax= 4.56D+05 ExpMxC= 1.44D+03 IAcc=3 IRadAn=         5 AccDes= 0.00D+00
 Harris functional with IExCor=  205 and IRadAn=       5 diagonalized for initial guess.
 HarFok:  IExCor=  205 AccDes= 0.00D+00 IRadAn=         5 IDoV= 1 UseB2=F ITyADJ=14
 ICtDFT=  3500011 ScaDFX=  1.000000  1.000000  1.000000  1.000000
 FoFCou: FMM=F IPFlag=           0 FMFlag=      100000 FMFlg1=           0
         NFxFlg=           0 DoJE=T BraDBF=F KetDBF=T FulRan=T
         wScrn=  0.000000 ICntrl=       500 IOpCl=  0 I1Cent=   200000004 NGrid=           0
         NMat0=    1 NMatS0=      1 NMatT0=    0 NMatD0=    1 NMtDS0=    0 NMtDT0=    0
 Symmetry not used in FoFCou.
 Harris En= -951.927552595385    
 JPrj=0 DoOrth=F DoCkMO=F.
 Leave Link  401 at Tue Oct 19 14:33:28 2021, MaxMem= 16106127360 cpu:               7.4 elap:               0.3
 (Enter /sw/contrib/gaussian/g16/B01/g16/l502.exe)
 Keep R1 ints in memory in canonical form, NReq=152797320.
 FoFCou: FMM=F IPFlag=           0 FMFlag=           0 FMFlg1=           0
         NFxFlg=           0 DoJE=F BraDBF=F KetDBF=F FulRan=T
         wScrn=  0.000000 ICntrl=       600 IOpCl=  0 I1Cent=           0 NGrid=           0
         NMat0=    1 NMatS0=  15225 NMatT0=    0 NMatD0=    1 NMtDS0=    0 NMtDT0=    0
 Symmetry not used in FoFCou.
 Two-electron integral symmetry not used.
 Closed shell SCF:
 Using DIIS extrapolation, IDIIS=  1040.
 NGot= 16106127360 LenX= 15990129197 LenY= 15990087140
 Requested convergence on RMS density matrix=1.00D-08 within 128 cycles.
 Requested convergence on MAX density matrix=1.00D-06.
 Requested convergence on             energy=1.00D-06.
 No special actions if energy rises.

 Cycle   1  Pass 1  IDiag  1:
 E= -950.332503795379    
 DIIS: error= 3.30D-02 at cycle   1 NSaved=   1.
 NSaved= 1 IEnMin= 1 EnMin= -950.332503795379     IErMin= 1 ErrMin= 3.30D-02
 ErrMax= 3.30D-02  0.00D+00 EMaxC= 1.00D-01 BMatC= 3.79D-01 BMatP= 3.79D-01
 IDIUse=3 WtCom= 6.70D-01 WtEn= 3.30D-01
 Coeff-Com:  0.100D+01
 Coeff-En:   0.100D+01
 Coeff:      0.100D+01
 Gap=     0.575 Goal=   None    Shift=    0.000
 GapD=    0.575 DampG=2.000 DampE=0.500 DampFc=1.0000 IDamp=-1.
 RMSDP=4.08D-03 MaxDP=2.71D-01              OVMax= 1.34D-01

 Cycle   2  Pass 1  IDiag  1:
 E= -950.466608650497     Delta-E=       -0.134104855118 Rises=F Damp=F
 DIIS: error= 2.19D-02 at cycle   2 NSaved=   2.
 NSaved= 2 IEnMin= 2 EnMin= -950.466608650497     IErMin= 2 ErrMin= 2.19D-02
 ErrMax= 2.19D-02  0.00D+00 EMaxC= 1.00D-01 BMatC= 6.07D-02 BMatP= 3.79D-01
 IDIUse=3 WtCom= 7.81D-01 WtEn= 2.19D-01
 Coeff-Com:  0.218D+00 0.782D+00
 Coeff-En:   0.000D+00 0.100D+01
 Coeff:      0.170D+00 0.830D+00
 Gap=     0.323 Goal=   None    Shift=    0.000
 RMSDP=1.18D-03 MaxDP=5.13D-02 DE=-1.34D-01 OVMax= 8.02D-02

 Cycle   3  Pass 1  IDiag  1:
 E= -950.499433006536     Delta-E=       -0.032824356040 Rises=F Damp=F
 DIIS: error= 8.93D-03 at cycle   3 NSaved=   3.
 NSaved= 3 IEnMin= 3 EnMin= -950.499433006536     IErMin= 3 ErrMin= 8.93D-03
 ErrMax= 8.93D-03  0.00D+00 EMaxC= 1.00D-01 BMatC= 1.18D-02 BMatP= 6.07D-02
 IDIUse=3 WtCom= 9.11D-01 WtEn= 8.93D-02
 Coeff-Com: -0.124D-01 0.294D+00 0.719D+00
 Coeff-En:   0.000D+00 0.845D-02 0.992D+00
 Coeff:     -0.113D-01 0.268D+00 0.743D+00
 Gap=     0.321 Goal=   None    Shift=    0.000
 RMSDP=3.56D-04 MaxDP=1.39D-02 DE=-3.28D-02 OVMax= 3.47D-02

 Cycle   4  Pass 1  IDiag  1:
 E= -950.507350028420     Delta-E=       -0.007917021884 Rises=F Damp=F
 DIIS: error= 1.76D-03 at cycle   4 NSaved=   4.
 NSaved= 4 IEnMin= 4 EnMin= -950.507350028420     IErMin= 4 ErrMin= 1.76D-03
 ErrMax= 1.76D-03  0.00D+00 EMaxC= 1.00D-01 BMatC= 2.42D-04 BMatP= 1.18D-02
 IDIUse=3 WtCom= 9.82D-01 WtEn= 1.76D-02
 Coeff-Com: -0.445D-02 0.209D-01 0.140D+00 0.843D+00
 Coeff-En:   0.000D+00 0.000D+00 0.000D+00 0.100D+01
 Coeff:     -0.438D-02 0.205D-01 0.138D+00 0.846D+00
 Gap=     0.316 Goal=   None    Shift=    0.000
 RMSDP=6.85D-05 MaxDP=1.85D-03 DE=-7.92D-03 OVMax= 3.31D-03

 Cycle   5  Pass 1  IDiag  1:
 E= -950.507567546170     Delta-E=       -0.000217517750 Rises=F Damp=F
 DIIS: error= 3.75D-04 at cycle   5 NSaved=   5.
 NSaved= 5 IEnMin= 5 EnMin= -950.507567546170     IErMin= 5 ErrMin= 3.75D-04
 ErrMax= 3.75D-04  0.00D+00 EMaxC= 1.00D-01 BMatC= 2.16D-05 BMatP= 2.42D-04
 IDIUse=3 WtCom= 9.96D-01 WtEn= 3.75D-03
 Coeff-Com: -0.320D-03-0.315D-01-0.565D-01 0.977D-01 0.991D+00
 Coeff-En:   0.000D+00 0.000D+00 0.000D+00 0.000D+00 0.100D+01
 Coeff:     -0.319D-03-0.314D-01-0.563D-01 0.973D-01 0.991D+00
 Gap=     0.318 Goal=   None    Shift=    0.000
 RMSDP=3.60D-05 MaxDP=1.20D-03 DE=-2.18D-04 OVMax= 3.19D-03

 Cycle   6  Pass 1  IDiag  1:
 E= -950.507611163587     Delta-E=       -0.000043617417 Rises=F Damp=F
 DIIS: error= 1.71D-04 at cycle   6 NSaved=   6.
 NSaved= 6 IEnMin= 6 EnMin= -950.507611163587     IErMin= 6 ErrMin= 1.71D-04
 ErrMax= 1.71D-04  0.00D+00 EMaxC= 1.00D-01 BMatC= 3.15D-06 BMatP= 2.16D-05
 IDIUse=3 WtCom= 9.98D-01 WtEn= 1.71D-03
 Coeff-Com:  0.923D-03 0.137D-02-0.179D-02-0.108D+00-0.285D+00 0.139D+01
 Coeff-En:   0.000D+00 0.000D+00 0.000D+00 0.000D+00 0.000D+00 0.100D+01
 Coeff:      0.921D-03 0.137D-02-0.179D-02-0.108D+00-0.284D+00 0.139D+01
 Gap=     0.318 Goal=   None    Shift=    0.000
 RMSDP=2.00D-05 MaxDP=6.78D-04 DE=-4.36D-05 OVMax= 1.86D-03

 Cycle   7  Pass 1  IDiag  1:
 E= -950.507621886176     Delta-E=       -0.000010722589 Rises=F Damp=F
 DIIS: error= 5.98D-05 at cycle   7 NSaved=   7.
 NSaved= 7 IEnMin= 7 EnMin= -950.507621886176     IErMin= 7 ErrMin= 5.98D-05
 ErrMax= 5.98D-05  0.00D+00 EMaxC= 1.00D-01 BMatC= 2.28D-07 BMatP= 3.15D-06
 IDIUse=1 WtCom= 1.00D+00 WtEn= 0.00D+00
 Coeff-Com: -0.319D-03 0.222D-02 0.648D-02 0.215D-01 0.186D-01-0.475D+00
 Coeff-Com:  0.143D+01
 Coeff:     -0.319D-03 0.222D-02 0.648D-02 0.215D-01 0.186D-01-0.475D+00
 Coeff:      0.143D+01
 Gap=     0.318 Goal=   None    Shift=    0.000
 RMSDP=6.69D-06 MaxDP=2.15D-04 DE=-1.07D-05 OVMax= 6.56D-04

 Cycle   8  Pass 1  IDiag  1:
 E= -950.507622894757     Delta-E=       -0.000001008581 Rises=F Damp=F
 DIIS: error= 1.19D-05 at cycle   8 NSaved=   8.
 NSaved= 8 IEnMin= 8 EnMin= -950.507622894757     IErMin= 8 ErrMin= 1.19D-05
 ErrMax= 1.19D-05  0.00D+00 EMaxC= 1.00D-01 BMatC= 2.00D-08 BMatP= 2.28D-07
 IDIUse=1 WtCom= 1.00D+00 WtEn= 0.00D+00
 Coeff-Com: -0.579D-04-0.398D-03-0.285D-03 0.105D-01 0.322D-01-0.147D+00
 Coeff-Com:  0.494D-01 0.106D+01
 Coeff:     -0.579D-04-0.398D-03-0.285D-03 0.105D-01 0.322D-01-0.147D+00
 Coeff:      0.494D-01 0.106D+01
 Gap=     0.318 Goal=   None    Shift=    0.000
 RMSDP=1.57D-06 MaxDP=3.69D-05 DE=-1.01D-06 OVMax= 1.84D-04

 Cycle   9  Pass 1  IDiag  1:
 E= -950.507622959530     Delta-E=       -0.000000064774 Rises=F Damp=F
 DIIS: error= 4.87D-06 at cycle   9 NSaved=   9.
 NSaved= 9 IEnMin= 9 EnMin= -950.507622959530     IErMin= 9 ErrMin= 4.87D-06
 ErrMax= 4.87D-06  0.00D+00 EMaxC= 1.00D-01 BMatC= 2.75D-09 BMatP= 2.00D-08
 IDIUse=1 WtCom= 1.00D+00 WtEn= 0.00D+00
 Coeff-Com:  0.376D-04-0.228D-03-0.597D-03-0.349D-02-0.961D-02 0.812D-01
 Coeff-Com: -0.167D+00-0.237D+00 0.134D+01
 Coeff:      0.376D-04-0.228D-03-0.597D-03-0.349D-02-0.961D-02 0.812D-01
 Coeff:     -0.167D+00-0.237D+00 0.134D+01
 Gap=     0.318 Goal=   None    Shift=    0.000
 RMSDP=7.85D-07 MaxDP=2.17D-05 DE=-6.48D-08 OVMax= 9.75D-05

 Cycle  10  Pass 1  IDiag  1:
 E= -950.507622972301     Delta-E=       -0.000000012771 Rises=F Damp=F
 DIIS: error= 2.21D-06 at cycle  10 NSaved=  10.
 NSaved=10 IEnMin=10 EnMin= -950.507622972301     IErMin=10 ErrMin= 2.21D-06
 ErrMax= 2.21D-06  0.00D+00 EMaxC= 1.00D-01 BMatC= 3.56D-10 BMatP= 2.75D-09
 IDIUse=1 WtCom= 1.00D+00 WtEn= 0.00D+00
 Coeff-Com: -0.382D-05 0.130D-03 0.197D-03-0.264D-03-0.166D-03-0.907D-02
 Coeff-Com:  0.506D-01-0.661D-01-0.456D+00 0.148D+01
 Coeff:     -0.382D-05 0.130D-03 0.197D-03-0.264D-03-0.166D-03-0.907D-02
 Coeff:      0.506D-01-0.661D-01-0.456D+00 0.148D+01
 Gap=     0.318 Goal=   None    Shift=    0.000
 RMSDP=3.45D-07 MaxDP=1.09D-05 DE=-1.28D-08 OVMax= 4.44D-05

 Cycle  11  Pass 1  IDiag  1:
 E= -950.507622974267     Delta-E=       -0.000000001966 Rises=F Damp=F
 DIIS: error= 5.94D-07 at cycle  11 NSaved=  11.
 NSaved=11 IEnMin=11 EnMin= -950.507622974267     IErMin=11 ErrMin= 5.94D-07
 ErrMax= 5.94D-07  0.00D+00 EMaxC= 1.00D-01 BMatC= 2.20D-11 BMatP= 3.56D-10
 IDIUse=1 WtCom= 1.00D+00 WtEn= 0.00D+00
 Coeff-Com: -0.275D-05-0.211D-06 0.163D-04 0.393D-03 0.685D-03-0.534D-02
 Coeff-Com:  0.631D-02 0.271D-01-0.294D-01-0.279D+00 0.128D+01
 Coeff:     -0.275D-05-0.211D-06 0.163D-04 0.393D-03 0.685D-03-0.534D-02
 Coeff:      0.631D-02 0.271D-01-0.294D-01-0.279D+00 0.128D+01
 Gap=     0.318 Goal=   None    Shift=    0.000
 RMSDP=8.20D-08 MaxDP=2.65D-06 DE=-1.97D-09 OVMax= 9.70D-06

 Cycle  12  Pass 1  IDiag  1:
 E= -950.507622974368     Delta-E=       -0.000000000100 Rises=F Damp=F
 DIIS: error= 9.37D-08 at cycle  12 NSaved=  12.
 NSaved=12 IEnMin=12 EnMin= -950.507622974368     IErMin=12 ErrMin= 9.37D-08
 ErrMax= 9.37D-08  0.00D+00 EMaxC= 1.00D-01 BMatC= 9.54D-13 BMatP= 2.20D-11
 IDIUse=1 WtCom= 1.00D+00 WtEn= 0.00D+00
 Coeff-Com:  0.619D-07-0.890D-05-0.126D-04 0.515D-04 0.449D-04 0.315D-03
 Coeff-Com: -0.304D-02 0.571D-02 0.298D-01-0.104D+00 0.300D-01 0.104D+01
 Coeff:      0.619D-07-0.890D-05-0.126D-04 0.515D-04 0.449D-04 0.315D-03
 Coeff:     -0.304D-02 0.571D-02 0.298D-01-0.104D+00 0.300D-01 0.104D+01
 Gap=     0.318 Goal=   None    Shift=    0.000
 RMSDP=1.48D-08 MaxDP=6.93D-07 DE=-1.00D-10 OVMax= 1.13D-06

 Cycle  13  Pass 1  IDiag  1:
 E= -950.507622974366     Delta-E=        0.000000000002 Rises=F Damp=F
 DIIS: error= 2.08D-08 at cycle  13 NSaved=  13.
 NSaved=13 IEnMin=12 EnMin= -950.507622974368     IErMin=13 ErrMin= 2.08D-08
 ErrMax= 2.08D-08  0.00D+00 EMaxC= 1.00D-01 BMatC= 7.16D-14 BMatP= 9.54D-13
 IDIUse=1 WtCom= 1.00D+00 WtEn= 0.00D+00
 Coeff-Com:  0.161D-06 0.166D-05 0.781D-06-0.356D-04-0.445D-04 0.259D-03
 Coeff-Com:  0.134D-03-0.235D-02-0.456D-02 0.373D-01-0.922D-01-0.165D+00
 Coeff-Com:  0.123D+01
 Coeff:      0.161D-06 0.166D-05 0.781D-06-0.356D-04-0.445D-04 0.259D-03
 Coeff:      0.134D-03-0.235D-02-0.456D-02 0.373D-01-0.922D-01-0.165D+00
 Coeff:      0.123D+01
 Gap=     0.318 Goal=   None    Shift=    0.000
 RMSDP=5.13D-09 MaxDP=2.93D-07 DE= 1.82D-12 OVMax= 3.27D-07

 SCF Done:  E(RHF) =  -950.507622974     A.U. after   13 cycles
            NFock= 13  Conv=0.51D-08     -V/T= 2.1440
 KE= 8.308823444630D+02 PE=-2.613103300001D+03 EE= 6.804189605234D+02
 Leave Link  502 at Tue Oct 19 14:33:32 2021, MaxMem= 16106127360 cpu:              36.5 elap:               3.8
 (Enter /sw/contrib/gaussian/g16/B01/g16/l801.exe)
 ExpMin= 2.53D-02 ExpMax= 4.56D+05 ExpMxC= 1.44D+03 IAcc=3 IRadAn=         5 AccDes= 0.00D+00
 HarFok:  IExCor=  205 AccDes= 0.00D+00 IRadAn=         5 IDoV=-2 UseB2=F ITyADJ=14
 ICtDFT= 12500011 ScaDFX=  1.000000  1.000000  1.000000  1.000000
 DSYEVD-2 returned Info=          83 IAlg= 4 N=    55 NDim=    55 NE2=   292836798 trying  DSYEV.
 Largest valence mixing into a core orbital is  4.48D-04
 Largest core mixing into a valence orbital is  1.59D-04
 Range of M.O.s used for correlation:    11   174
 NBasis=   174 NAE=    26 NBE=    26 NFC=    10 NFV=     0
 NROrb=    164 NOA=    16 NOB=    16 NVA=   148 NVB=   148

 **** Warning!!: The largest alpha MO coefficient is  0.18751157D+02

 Leave Link  801 at Tue Oct 19 14:33:32 2021, MaxMem= 16106127360 cpu:               2.8 elap:               0.1
 (Enter /sw/contrib/gaussian/g16/B01/g16/l906.exe)
 Frozen-core derivative calculation, NFC=  10 NFV=   0.
 FulOut=F Deriv=T AODrv=F NAtomX=     4
   MMem=         130  MDisk=          16 MDiskD=          16
  W3Min=      922896 MinDsk=     1491158 NBas6D=         204
 NBas2D=       21411    NTT=       20910    LW2=    16556320
    MDV= 16105732578 MDiskM=      394699 NBas2p=       21383
 Fully in-core method, ICMem=   510791049.
 IMap=   1   2   3   4   5   6   7   8   9  10  11  12  13  14  15  16  17  18  19  20
 IMap=  21  22  23  24  25  26
 JobTyp=1 Pass  1 fully in-core, NPsUse= 28.
 Compute canonical integrals.
 FoFCou: FMM=F IPFlag=           0 FMFlag=           0 FMFlg1=           0
         NFxFlg=           0 DoJE=F BraDBF=F KetDBF=F FulRan=T
         wScrn=  0.000000 ICntrl=       600 IOpCl=  1 I1Cent=           0 NGrid=           0
         NMat0=    1 NMatS0=  21411 NMatT0=    0 NMatD0=    1 NMtDS0=    0 NMtDT0=    0
 Symmetry not used in FoFCou.
 Spin components of T(2) and E(2):
     alpha-alpha T2 =       0.2922373364D-01 E2=     -0.9213711251D-01
     alpha-beta  T2 =       0.1568471022D+00 E2=     -0.5093629460D+00
     beta-beta   T2 =       0.2922373364D-01 E2=     -0.9213711251D-01
 The integrals were generated   1 times.
 ANorm=    0.1102403996D+01
 E2 =    -0.6936371710D+00 EUMP2 =    -0.95120126014533D+03
 Leave Link  906 at Tue Oct 19 14:33:37 2021, MaxMem= 16106127360 cpu:             159.8 elap:               5.7
 (Enter /sw/contrib/gaussian/g16/B01/g16/l1002.exe)
 Minotr:  Closed shell wavefunction.
          Computing MP2/KS-MP2 derivatives.
          Using Z-Vector for PSCF gradient.
          Skipping F1 and S1 gradient terms here.
          Frozen-core window.
          Direct CPHF calculation.
          Differentiating once with respect to electric field.
                with respect to dipole field.
          Electric field/nuclear overlap derivatives assumed to be zero.
          Requested convergence is 1.0D-10 RMS, and 1.0D-09 maximum.
          NewPWx=F KeepS1=T KeepF1=T KeepIn=T MapXYZ=F SortEE=F KeepMc=T.
 Keep R1 ints in memory in canonical form, NReq=152802121.
 FoFCou: FMM=F IPFlag=           0 FMFlag=           0 FMFlg1=           0
         NFxFlg=           0 DoJE=F BraDBF=F KetDBF=F FulRan=T
         wScrn=  0.000000 ICntrl=       600 IOpCl=  0 I1Cent=           0 NGrid=           0
         NMat0=    1 NMatS0=  15225 NMatT0=    0 NMatD0=    1 NMtDS0=    0 NMtDT0=    0
 Symmetry not used in FoFCou.
 Two-electron integral symmetry not used.
          MDV=   16106127360 using IRadAn=       5.
          Solving linear equations separately, MaxMat=       0.
          There are     1 degrees of freedom in the 1st order CPHF.  IDoFFX=0 NUNeed=     1.
 LinEq1:  Iter=  0 NonCon=     1 RMS=2.69D-03 Max=4.17D-02 NDo=     1
 AX will form     1 AO Fock derivatives at one time.
 LinEq1:  Iter=  1 NonCon=     1 RMS=4.32D-04 Max=4.33D-03 NDo=     1
 LinEq1:  Iter=  2 NonCon=     1 RMS=1.93D-04 Max=3.07D-03 NDo=     1
 LinEq1:  Iter=  3 NonCon=     1 RMS=5.55D-05 Max=8.65D-04 NDo=     1
 LinEq1:  Iter=  4 NonCon=     1 RMS=1.99D-05 Max=6.30D-04 NDo=     1
 LinEq1:  Iter=  5 NonCon=     1 RMS=7.85D-06 Max=1.18D-04 NDo=     1
 LinEq1:  Iter=  6 NonCon=     1 RMS=1.79D-06 Max=2.44D-05 NDo=     1
 LinEq1:  Iter=  7 NonCon=     1 RMS=4.16D-07 Max=5.28D-06 NDo=     1
 LinEq1:  Iter=  8 NonCon=     1 RMS=1.08D-07 Max=1.42D-06 NDo=     1
 LinEq1:  Iter=  9 NonCon=     1 RMS=2.37D-08 Max=2.95D-07 NDo=     1
 LinEq1:  Iter= 10 NonCon=     1 RMS=5.41D-09 Max=6.04D-08 NDo=     1
 LinEq1:  Iter= 11 NonCon=     1 RMS=1.17D-09 Max=2.51D-08 NDo=     1
 LinEq1:  Iter= 12 NonCon=     1 RMS=3.42D-10 Max=8.40D-09 NDo=     1
 LinEq1:  Iter= 13 NonCon=     1 RMS=9.84D-11 Max=1.63D-09 NDo=     1
 LinEq1:  Iter= 14 NonCon=     0 RMS=2.08D-11 Max=2.89D-10 NDo=     1
 Linear equations converged to 1.000D-10 1.000D-09 after    14 iterations.
 End of Minotr F.D. properties file   721 does not exist.
 End of Minotr F.D. properties file   722 does not exist.
 End of Minotr F.D. properties file   788 does not exist.
 Leave Link 1002 at Tue Oct 19 14:33:42 2021, MaxMem= 16106127360 cpu:              39.9 elap:               4.6
 (Enter /sw/contrib/gaussian/g16/B01/g16/l601.exe)
 Copying SCF densities to generalized density rwf, IOpCl= 0 IROHF=0.

 **********************************************************************

            Population analysis using the MP2 Density.

 **********************************************************************

 Alpha  occ. eigenvalues -- -104.74422 -20.46489 -10.46355  -9.54783  -7.93074
 Alpha  occ. eigenvalues --   -7.92797  -7.92786  -7.29557  -7.29530  -7.29529
 Alpha  occ. eigenvalues --   -2.84656  -2.84647  -2.84645  -2.84625  -2.84625
 Alpha  occ. eigenvalues --   -1.28054  -0.92236  -0.74450  -0.58864  -0.45934
 Alpha  occ. eigenvalues --   -0.45150  -0.32297  -0.29491  -0.17290  -0.16433
 Alpha  occ. eigenvalues --   -0.16433
 Alpha virt. eigenvalues --    0.15369   0.17764   0.22386   0.22912   0.25285
 Alpha virt. eigenvalues --    0.26715   0.26980   0.27775   0.29956   0.31148
 Alpha virt. eigenvalues --    0.32223   0.32443   0.35656   0.42679   0.43540
 Alpha virt. eigenvalues --    0.46739   0.48056   0.48617   0.51302   0.53967
 Alpha virt. eigenvalues --    0.55247   0.56349   0.58713   0.59693   0.60354
 Alpha virt. eigenvalues --    0.60792   0.64823   0.71916   0.76953   0.77480
 Alpha virt. eigenvalues --    0.81410   0.84289   0.84878   0.85154   0.88205
 Alpha virt. eigenvalues --    0.88565   0.91698   0.94035   0.98529   0.98682
 Alpha virt. eigenvalues --    0.99503   0.99633   1.00201   1.02922   1.05562
 Alpha virt. eigenvalues --    1.06004   1.08442   1.10462   1.11420   1.12220
 Alpha virt. eigenvalues --    1.13462   1.15594   1.16103   1.18767   1.21327
 Alpha virt. eigenvalues --    1.21648   1.26275   1.27409   1.32282   1.32596
 Alpha virt. eigenvalues --    1.33185   1.37505   1.45241   1.49424   1.51130
 Alpha virt. eigenvalues --    1.54009   1.57726   1.63095   1.65541   1.67941
 Alpha virt. eigenvalues --    1.71436   1.74368   1.78084   1.86714   1.93848
 Alpha virt. eigenvalues --    1.95489   2.15045   2.36848   2.40266   2.46427
 Alpha virt. eigenvalues --    2.46675   2.48085   2.48404   2.51332   2.53745
 Alpha virt. eigenvalues --    2.53832   2.54917   2.55137   2.56827   2.57493
 Alpha virt. eigenvalues --    2.61127   2.61341   2.64596   2.65123   2.65286
 Alpha virt. eigenvalues --    2.68478   2.69423   2.71044   2.71373   2.72245
 Alpha virt. eigenvalues --    2.76494   2.76714   2.78667   2.82768   2.84103
 Alpha virt. eigenvalues --    2.87069   2.98840   3.07670   3.08788   3.11516
 Alpha virt. eigenvalues --    3.18991   3.20736   3.22064   3.26484   3.31026
 Alpha virt. eigenvalues --    3.31217   3.50322   3.54006   3.54992   3.68041
 Alpha virt. eigenvalues --    3.98213   4.24595   4.45659   4.49878   4.68996
 Alpha virt. eigenvalues --    4.71696   4.79675   5.08362   5.23695   5.82447
 Alpha virt. eigenvalues --    5.94165   5.99698   6.41246   6.59816   6.87393
 Alpha virt. eigenvalues --    6.90228   6.91520   7.02523   7.31696   7.43564
 Alpha virt. eigenvalues --    7.44233   7.77529   7.77966   7.90660   8.36189
 Alpha virt. eigenvalues --    8.62450  18.56954  79.89305
          Condensed to atoms (all electrons):
               1          2          3          4
     1  O    8.446731  -0.090258  -0.064262   0.050395
     2  Cl  -0.090258  17.034830   0.002289  -0.018773
     3  Br  -0.064262   0.002289  25.967610   0.017576
     4  H    0.050395  -0.018773   0.017576   0.756895
 Mulliken charges:
               1
     1  O   -0.342606
     2  Cl   0.071912
     3  Br  -0.923213
     4  H    0.193907
 Sum of Mulliken charges =  -1.00000
 Mulliken charges with hydrogens summed into heavy atoms:
               1
     1  O   -0.148699
     2  Cl   0.071912
     3  Br  -0.923213
 Electronic spatial extent (au):  <R**2>=           1139.2334
 Charge=             -1.0000 electrons
 Dipole moment (field-independent basis, Debye):
    X=              2.2656    Y=             11.2457    Z=              0.0000  Tot=             11.4717
 Quadrupole moment (field-independent basis, Debye-Ang):
   XX=            -44.7483   YY=            -79.3374   ZZ=            -42.8450
   XY=             -9.1285   XZ=              0.0000   YZ=             -0.0000
 Traceless Quadrupole moment (field-independent basis, Debye-Ang):
   XX=             10.8953   YY=            -23.6938   ZZ=             12.7986
   XY=             -9.1285   XZ=              0.0000   YZ=             -0.0000
 Octapole moment (field-independent basis, Debye-Ang**2):
  XXX=            -12.0704  YYY=            316.6969  ZZZ=              0.0000  XYY=             20.5446
  XXY=             74.9138  XXZ=              0.0000  XZZ=             -6.2318  YZZ=             68.9299
  YYZ=              0.0000  XYZ=             -0.0000
 Hexadecapole moment (field-independent basis, Debye-Ang**3):
 XXXX=           -336.7119 YYYY=          -1610.6091 ZZZZ=            -62.4621 XXXY=           -152.9352
 XXXZ=              0.0000 YYYX=           -225.2102 YYYZ=              0.0000 ZZZX=              0.0000
 ZZZY=             -0.0000 XXYY=           -294.5066 XXZZ=            -71.6285 YYZZ=           -225.8181
 XXYZ=              0.0000 YYXZ=              0.0000 ZZXY=            -49.3940
 N-N= 1.512943720405D+02 E-N=-2.611896356132D+03  KE= 8.306922011949D+02
 No NMR shielding tensors so no spin-rotation constants.
 Leave Link  601 at Tue Oct 19 14:33:42 2021, MaxMem= 16106127360 cpu:               4.2 elap:               0.2
 (Enter /sw/contrib/gaussian/g16/B01/g16/l607.exe)
 ******************************Gaussian NBO Version 3.1******************************
             N A T U R A L   A T O M I C   O R B I T A L   A N D
          N A T U R A L   B O N D   O R B I T A L   A N A L Y S I S
 ******************************Gaussian NBO Version 3.1******************************
       /RESON  / : Allow strongly delocalized NBO set

 Analyzing the MP2 density

 Job title: title                                                           

 Storage needed:     91686 in NPA,    121697 in NBO (********** available)
 GSVD:  LWork=        2436 too small for GESVD, short by       52200 words or       52200 for optimal perf.


 NATURAL POPULATIONS:  Natural atomic orbital occupancies 
                                                          
   NAO  Atom  No  lang   Type(AO)    Occupancy
 --------------------------------------------
     1    O    1  S      Cor( 1S)     1.99954
     2    O    1  S      Val( 2S)     1.73441
     3    O    1  S      Ryd( 3S)     0.00917
     4    O    1  S      Ryd( 4S)     0.00102
     5    O    1  S      Ryd( 5S)     0.00020
     6    O    1  px     Val( 2p)     1.21605
     7    O    1  px     Ryd( 3p)     0.00603
     8    O    1  px     Ryd( 4p)     0.00061
     9    O    1  px     Ryd( 5p)     0.00027
    10    O    1  py     Val( 2p)     1.68432
    11    O    1  py     Ryd( 3p)     0.01176
    12    O    1  py     Ryd( 4p)     0.00075
    13    O    1  py     Ryd( 5p)     0.00036
    14    O    1  pz     Val( 2p)     1.94842
    15    O    1  pz     Ryd( 3p)     0.01908
    16    O    1  pz     Ryd( 4p)     0.00070
    17    O    1  pz     Ryd( 5p)     0.00014
    18    O    1  dxy    Ryd( 3d)     0.00875
    19    O    1  dxy    Ryd( 4d)     0.00044
    20    O    1  dxy    Ryd( 5d)     0.00015
    21    O    1  dxz    Ryd( 3d)     0.00839
    22    O    1  dxz    Ryd( 4d)     0.00053
    23    O    1  dxz    Ryd( 5d)     0.00010
    24    O    1  dyz    Ryd( 3d)     0.00801
    25    O    1  dyz    Ryd( 4d)     0.00056
    26    O    1  dyz    Ryd( 5d)     0.00038
    27    O    1  dx2y2  Ryd( 3d)     0.01302
    28    O    1  dx2y2  Ryd( 4d)     0.00030
    29    O    1  dx2y2  Ryd( 5d)     0.00021
    30    O    1  dz2    Ryd( 3d)     0.00968
    31    O    1  dz2    Ryd( 4d)     0.00047
    32    O    1  dz2    Ryd( 5d)     0.00012
    33    O    1  f(0)   Ryd( 4f)     0.00071
    34    O    1  f(0)   Ryd( 5f)     0.00010
    35    O    1  f(C1)  Ryd( 4f)     0.00067
    36    O    1  f(C1)  Ryd( 5f)     0.00011
    37    O    1  f(S1)  Ryd( 4f)     0.00052
    38    O    1  f(S1)  Ryd( 5f)     0.00010
    39    O    1  f(C2)  Ryd( 4f)     0.00056
    40    O    1  f(C2)  Ryd( 5f)     0.00012
    41    O    1  f(S2)  Ryd( 4f)     0.00052
    42    O    1  f(S2)  Ryd( 5f)     0.00012
    43    O    1  f(C3)  Ryd( 4f)     0.00053
    44    O    1  f(C3)  Ryd( 5f)     0.00015
    45    O    1  f(S3)  Ryd( 4f)     0.00051
    46    O    1  f(S3)  Ryd( 5f)     0.00016

    47   Cl    2  S      Cor( 1S)     2.00000
    48   Cl    2  S      Cor( 2S)     1.99983
    49   Cl    2  S      Val( 3S)     1.88605
    50   Cl    2  S      Ryd( 4S)     0.00773
    51   Cl    2  S      Ryd( 5S)     0.00051
    52   Cl    2  S      Ryd( 6S)     0.00014
    53   Cl    2  px     Cor( 2p)     1.99997
    54   Cl    2  px     Val( 3p)     0.89546
    55   Cl    2  px     Ryd( 4p)     0.00647
    56   Cl    2  px     Ryd( 5p)     0.00053
    57   Cl    2  px     Ryd( 6p)     0.00017
    58   Cl    2  py     Cor( 2p)     2.00003
    59   Cl    2  py     Val( 3p)     1.95348
    60   Cl    2  py     Ryd( 4p)     0.00952
    61   Cl    2  py     Ryd( 5p)     0.00051
    62   Cl    2  py     Ryd( 6p)     0.00009
    63   Cl    2  pz     Cor( 2p)     2.00003
    64   Cl    2  pz     Val( 3p)     1.95484
    65   Cl    2  pz     Ryd( 4p)     0.01023
    66   Cl    2  pz     Ryd( 5p)     0.00068
    67   Cl    2  pz     Ryd( 6p)     0.00002
    68   Cl    2  dxy    Ryd( 3d)     0.01618
    69   Cl    2  dxy    Ryd( 4d)     0.00070
    70   Cl    2  dxy    Ryd( 5d)     0.00031
    71   Cl    2  dxz    Ryd( 3d)     0.02138
    72   Cl    2  dxz    Ryd( 4d)     0.00100
    73   Cl    2  dxz    Ryd( 5d)     0.00035
    74   Cl    2  dyz    Ryd( 3d)     0.01672
    75   Cl    2  dyz    Ryd( 4d)     0.00073
    76   Cl    2  dyz    Ryd( 5d)     0.00018
    77   Cl    2  dx2y2  Ryd( 3d)     0.01874
    78   Cl    2  dx2y2  Ryd( 4d)     0.00047
    79   Cl    2  dx2y2  Ryd( 5d)     0.00016
    80   Cl    2  dz2    Ryd( 3d)     0.01747
    81   Cl    2  dz2    Ryd( 4d)     0.00060
    82   Cl    2  dz2    Ryd( 5d)     0.00014
    83   Cl    2  f(0)   Ryd( 4f)     0.00131
    84   Cl    2  f(0)   Ryd( 5f)     0.00013
    85   Cl    2  f(C1)  Ryd( 4f)     0.00142
    86   Cl    2  f(C1)  Ryd( 5f)     0.00014
    87   Cl    2  f(S1)  Ryd( 4f)     0.00126
    88   Cl    2  f(S1)  Ryd( 5f)     0.00013
    89   Cl    2  f(C2)  Ryd( 4f)     0.00135
    90   Cl    2  f(C2)  Ryd( 5f)     0.00013
    91   Cl    2  f(S2)  Ryd( 4f)     0.00119
    92   Cl    2  f(S2)  Ryd( 5f)     0.00013
    93   Cl    2  f(C3)  Ryd( 4f)     0.00151
    94   Cl    2  f(C3)  Ryd( 5f)     0.00013
    95   Cl    2  f(S3)  Ryd( 4f)     0.00125
    96   Cl    2  f(S3)  Ryd( 5f)     0.00013

    97   Br    3  S      Cor( 3S)     1.99998
    98   Br    3  S      Val( 4S)     1.97706
    99   Br    3  S      Ryd( 5S)     0.00217
   100   Br    3  S      Ryd( 6S)     0.00042
   101   Br    3  S      Ryd( 7S)     0.00014
   102   Br    3  S      Ryd( 8S)     0.00000
   103   Br    3  px     Cor( 3p)     2.00002
   104   Br    3  px     Val( 4p)     1.95129
   105   Br    3  px     Ryd( 5p)     0.01151
   106   Br    3  px     Ryd( 6p)     0.00079
   107   Br    3  px     Ryd( 7p)     0.00011
   108   Br    3  py     Cor( 3p)     1.99999
   109   Br    3  py     Val( 4p)     1.91214
   110   Br    3  py     Ryd( 5p)     0.01029
   111   Br    3  py     Ryd( 6p)     0.00074
   112   Br    3  py     Ryd( 7p)     0.00012
   113   Br    3  pz     Cor( 3p)     2.00002
   114   Br    3  pz     Val( 4p)     1.95391
   115   Br    3  pz     Ryd( 5p)     0.01166
   116   Br    3  pz     Ryd( 6p)     0.00080
   117   Br    3  pz     Ryd( 7p)     0.00010
   118   Br    3  dxy    Cor( 3d)     1.99768
   119   Br    3  dxy    Ryd( 4d)     0.01872
   120   Br    3  dxy    Ryd( 5d)     0.00148
   121   Br    3  dxy    Ryd( 6d)     0.00020
   122   Br    3  dxz    Cor( 3d)     1.99771
   123   Br    3  dxz    Ryd( 4d)     0.01854
   124   Br    3  dxz    Ryd( 5d)     0.00175
   125   Br    3  dxz    Ryd( 6d)     0.00023
   126   Br    3  dyz    Cor( 3d)     1.99769
   127   Br    3  dyz    Ryd( 4d)     0.01884
   128   Br    3  dyz    Ryd( 5d)     0.00148
   129   Br    3  dyz    Ryd( 6d)     0.00019
   130   Br    3  dx2y2  Cor( 3d)     1.99766
   131   Br    3  dx2y2  Ryd( 4d)     0.01845
   132   Br    3  dx2y2  Ryd( 5d)     0.00163
   133   Br    3  dx2y2  Ryd( 6d)     0.00023
   134   Br    3  dz2    Cor( 3d)     1.99769
   135   Br    3  dz2    Ryd( 4d)     0.01847
   136   Br    3  dz2    Ryd( 5d)     0.00173
   137   Br    3  dz2    Ryd( 6d)     0.00021
   138   Br    3  f(0)   Ryd( 4f)     0.00172
   139   Br    3  f(0)   Ryd( 5f)     0.00026
   140   Br    3  f(C1)  Ryd( 4f)     0.00174
   141   Br    3  f(C1)  Ryd( 5f)     0.00025
   142   Br    3  f(S1)  Ryd( 4f)     0.00173
   143   Br    3  f(S1)  Ryd( 5f)     0.00027
   144   Br    3  f(C2)  Ryd( 4f)     0.00172
   145   Br    3  f(C2)  Ryd( 5f)     0.00026
   146   Br    3  f(S2)  Ryd( 4f)     0.00175
   147   Br    3  f(S2)  Ryd( 5f)     0.00026
   148   Br    3  f(C3)  Ryd( 4f)     0.00170
   149   Br    3  f(C3)  Ryd( 5f)     0.00027
   150   Br    3  f(S3)  Ryd( 4f)     0.00170
   151   Br    3  f(S3)  Ryd( 5f)     0.00027

   152    H    4  S      Val( 1S)     0.51288
   153    H    4  S      Ryd( 2S)     0.00952
   154    H    4  S      Ryd( 3S)     0.00024
   155    H    4  S      Ryd( 4S)     0.00009
   156    H    4  px     Ryd( 2p)     0.00383
   157    H    4  px     Ryd( 3p)     0.00046
   158    H    4  px     Ryd( 4p)     0.00013
   159    H    4  py     Ryd( 2p)     0.00563
   160    H    4  py     Ryd( 3p)     0.00069
   161    H    4  py     Ryd( 4p)     0.00044
   162    H    4  pz     Ryd( 2p)     0.00540
   163    H    4  pz     Ryd( 3p)     0.00044
   164    H    4  pz     Ryd( 4p)     0.00020
   165    H    4  dxy    Ryd( 3d)     0.00026
   166    H    4  dxy    Ryd( 4d)     0.00012
   167    H    4  dxz    Ryd( 3d)     0.00021
   168    H    4  dxz    Ryd( 4d)     0.00008
   169    H    4  dyz    Ryd( 3d)     0.00042
   170    H    4  dyz    Ryd( 4d)     0.00010
   171    H    4  dx2y2  Ryd( 3d)     0.00020
   172    H    4  dx2y2  Ryd( 4d)     0.00014
   173    H    4  dz2    Ryd( 3d)     0.00021
   174    H    4  dz2    Ryd( 4d)     0.00013

 [ 10 electrons found in the effective core potential]

 WARNING:  5 low occupancy (<1.9990e) core orbitals found on Br    3


 Summary of Natural Population Analysis:                  
                                                          
                                       Natural Population 
                Natural  -----------------------------------------------
    Atom  No    Charge         Core      Valence    Rydberg      Total
 -----------------------------------------------------------------------
      O    1   -0.68880      1.99954     6.58319    0.10607     8.68880
     Cl    2    0.16835      9.99986     6.68983    0.14196    16.83165
     Br    3   -0.93772     27.98843     7.79440    0.15489    35.93772
      H    4    0.45817      0.00000     0.51288    0.02895     0.54183
 =======================================================================
   * Total *   -1.00000     39.98783    21.58030    0.43187    62.00000

                                 Natural Population      
 --------------------------------------------------------
   Effective Core            10.00000
   Core                      29.98783 ( 99.9594% of  30)
   Valence                   21.58030 ( 98.0923% of  22)
   Natural Minimal Basis     61.56813 ( 99.3034% of  62)
   Natural Rydberg Basis      0.43187 (  0.6966% of  62)
 --------------------------------------------------------

    Atom  No          Natural Electron Configuration
 ----------------------------------------------------------------------------
      O    1      [core]2S( 1.73)2p( 4.85)3S( 0.01)3p( 0.04)3d( 0.05)
     Cl    2      [core]3S( 1.89)3p( 4.80)4S( 0.01)3d( 0.09)4p( 0.03)4f( 0.01)
     Br    3      [core]4S( 1.98)4p( 5.82)4d( 0.09)5p( 0.03)4f( 0.01)5d( 0.01)
      H    4            1S( 0.51)2S( 0.01)2p( 0.01)


 NATURAL BOND ORBITAL ANALYSIS:

                       Occupancies       Lewis Structure    Low   High
           Occ.    -------------------  -----------------   occ   occ
  Cycle   Thresh.   Lewis   Non-Lewis     CR  BD  3C  LP    (L)   (NL)   Dev
 =============================================================================
   1(1)    1.90    61.50344   0.49656     15   2   0   9     0      0    0.06
 -----------------------------------------------------------------------------

 Structure accepted: No low occupancy Lewis orbitals

 WARNING:  5 low occupancy (<1.9990e) core orbitals found on Br    3

 --------------------------------------------------------
   Effective Core           10.00000
   Core                     29.98783 ( 99.959% of  30)
   Valence Lewis            21.51561 ( 97.798% of  22)
  ==================       ============================
   Total Lewis              61.50344 ( 99.199% of  62)
  -----------------------------------------------------
   Valence non-Lewis         0.11237 (  0.181% of  62)
   Rydberg non-Lewis         0.38420 (  0.620% of  62)
  ==================       ============================
   Total non-Lewis           0.49656 (  0.801% of  62)
 --------------------------------------------------------


       (Occupancy)   Bond orbital/ Coefficients/ Hybrids
 ---------------------------------------------------------------------------------
     1. (1.94134) BD ( 1) O   1 -Cl   2  
                ( 59.38%)   0.7706* O   1 s( 10.79%)p 8.22( 88.69%)d 0.05(  0.50%)
                                                  f 0.00(  0.02%)
                                            0.0003  0.3257 -0.0414 -0.0132 -0.0004
                                            0.9408 -0.0231 -0.0109 -0.0089 -0.0069
                                           -0.0294 -0.0047 -0.0002  0.0000  0.0000
                                            0.0000  0.0000 -0.0258 -0.0014  0.0028
                                            0.0000  0.0000  0.0000  0.0000  0.0000
                                            0.0000  0.0510  0.0055  0.0024 -0.0414
                                           -0.0036  0.0008  0.0000  0.0000 -0.0115
                                            0.0011 -0.0004  0.0001  0.0000  0.0000
                                            0.0000  0.0000  0.0047  0.0001 -0.0004
                                            0.0027
                ( 40.62%)   0.6374*Cl   2 s(  8.18%)p11.06( 90.50%)d 0.15(  1.21%)
                                                  f 0.01(  0.11%)
                                           -0.0000  0.0005  0.2805 -0.0553 -0.0101
                                            0.0022 -0.0004 -0.9488  0.0664  0.0142
                                           -0.0041 -0.0000 -0.0086 -0.0010  0.0024
                                           -0.0006  0.0000  0.0000  0.0000  0.0000
                                            0.0000  0.0127  0.0000  0.0010  0.0000
                                            0.0000  0.0000  0.0000  0.0000  0.0000
                                            0.0921 -0.0100  0.0002 -0.0579  0.0055
                                            0.0005  0.0000  0.0000  0.0206 -0.0032
                                            0.0004 -0.0001  0.0000  0.0000  0.0000
                                            0.0000 -0.0249  0.0029 -0.0008 -0.0000
     2. (1.97215) BD ( 1) O   1 - H   4  
                ( 76.12%)   0.8725* O   1 s( 35.34%)p 1.82( 64.18%)d 0.01(  0.48%)
                                                  f 0.00(  0.01%)
                                           -0.0003 -0.5943  0.0126  0.0057 -0.0011
                                            0.2090 -0.0202 -0.0019 -0.0016  0.7727
                                           -0.0229 -0.0068 -0.0034  0.0000  0.0000
                                            0.0000  0.0000 -0.0039  0.0037 -0.0003
                                            0.0000  0.0000  0.0000  0.0000  0.0000
                                            0.0000  0.0579  0.0029  0.0037  0.0370
                                           -0.0006 -0.0021  0.0000  0.0000 -0.0015
                                           -0.0009 -0.0076 -0.0015  0.0000  0.0000
                                            0.0000  0.0000 -0.0015 -0.0033  0.0007
                                           -0.0037
                ( 23.88%)   0.4887* H   4 s( 99.88%)p 0.00(  0.12%)d 0.00(  0.00%)
                                           -0.9990 -0.0283 -0.0010  0.0000 -0.0113
                                           -0.0065  0.0012  0.0128 -0.0277 -0.0092
                                            0.0000  0.0000  0.0000  0.0010  0.0015
                                            0.0000  0.0000  0.0000  0.0000 -0.0007
                                            0.0019 -0.0022  0.0040
     3. (1.99954) CR ( 1) O   1           s(100.00%)p 0.00(  0.00%)
                                            1.0000 -0.0004  0.0000  0.0000  0.0000
                                           -0.0002  0.0000  0.0000  0.0000  0.0001
                                            0.0000 -0.0000 -0.0000  0.0000  0.0000
                                            0.0000  0.0000  0.0000  0.0000 -0.0000
                                            0.0000  0.0000  0.0000  0.0000  0.0000
                                            0.0000 -0.0000 -0.0000  0.0000  0.0000
                                            0.0000 -0.0000  0.0000  0.0000  0.0000
                                           -0.0000 -0.0000 -0.0000  0.0000  0.0000
                                            0.0000  0.0000 -0.0000 -0.0000 -0.0000
                                           -0.0000
     4. (2.00000) CR ( 1)Cl   2           s(100.00%)
                                            1.0000  0.0000  0.0000 -0.0000 -0.0000
                                            0.0000 -0.0000 -0.0000  0.0000  0.0000
                                           -0.0000 -0.0000 -0.0000 -0.0000  0.0000
                                           -0.0000  0.0000  0.0000  0.0000  0.0000
                                            0.0000  0.0000 -0.0000  0.0000  0.0000
                                            0.0000  0.0000  0.0000  0.0000  0.0000
                                            0.0000 -0.0000  0.0000 -0.0000  0.0000
                                            0.0000  0.0000  0.0000  0.0000 -0.0000
                                            0.0000 -0.0000  0.0000  0.0000  0.0000
                                            0.0000 -0.0000  0.0000 -0.0000 -0.0000
     5. (1.99983) CR ( 2)Cl   2           s(100.00%)p 0.00(  0.00%)
                                            0.0000  1.0000 -0.0004  0.0000  0.0000
                                           -0.0000  0.0000  0.0004 -0.0000 -0.0000
                                            0.0000  0.0000  0.0000  0.0000 -0.0000
                                            0.0000  0.0000  0.0000  0.0000  0.0000
                                            0.0000 -0.0000  0.0000 -0.0000  0.0000
                                            0.0000  0.0000  0.0000  0.0000  0.0000
                                           -0.0000  0.0000 -0.0000  0.0000 -0.0000
                                           -0.0000  0.0000  0.0000 -0.0000  0.0000
                                           -0.0000  0.0000  0.0000  0.0000  0.0000
                                            0.0000  0.0000 -0.0000  0.0000 -0.0000
     6. (1.99997) CR ( 3)Cl   2           s(  0.00%)p 1.00(100.00%)
                                           -0.0000  0.0000  0.0001 -0.0000 -0.0000
                                            0.0000  1.0000 -0.0003  0.0000  0.0000
                                           -0.0000 -0.0000 -0.0000 -0.0000  0.0000
                                           -0.0000  0.0000  0.0000  0.0000  0.0000
                                            0.0000  0.0000 -0.0000  0.0000  0.0000
                                            0.0000  0.0000  0.0000  0.0000  0.0000
                                            0.0000 -0.0000  0.0000 -0.0000  0.0000
                                            0.0000  0.0000  0.0000  0.0000 -0.0000
                                            0.0000 -0.0000  0.0000  0.0000  0.0000
                                            0.0000 -0.0000  0.0000 -0.0000  0.0000
     7. (2.00003) CR ( 4)Cl   2           s(  0.00%)p 1.00(100.00%)
                                           -0.0000  0.0000  0.0000  0.0000  0.0000
                                            0.0000 -0.0000 -0.0000  0.0000  0.0000
                                           -0.0000  1.0000  0.0002  0.0000  0.0000
                                            0.0000  0.0000  0.0000  0.0000  0.0000
                                            0.0000 -0.0000  0.0000  0.0000  0.0000
                                            0.0000  0.0000  0.0000  0.0000  0.0000
                                           -0.0000 -0.0000 -0.0000 -0.0000 -0.0000
                                           -0.0000  0.0000  0.0000  0.0000 -0.0000
                                           -0.0000 -0.0000  0.0000  0.0000  0.0000
                                            0.0000 -0.0000  0.0000  0.0000 -0.0000
     8. (2.00003) CR ( 5)Cl   2           s(  0.00%)p 1.00(100.00%)
                                            0.0000  0.0000  0.0000  0.0000  0.0000
                                            0.0000  0.0000  0.0000  0.0000  0.0000
                                            0.0000  0.0000  0.0000  0.0000  0.0000
                                            0.0000  1.0000  0.0002  0.0000  0.0000
                                           -0.0000  0.0000  0.0000  0.0000  0.0000
                                            0.0000  0.0000  0.0000  0.0000  0.0000
                                            0.0000  0.0000  0.0000  0.0000  0.0000
                                            0.0000 -0.0000  0.0000  0.0000  0.0000
                                            0.0000  0.0000  0.0000 -0.0000  0.0000
                                           -0.0000  0.0000  0.0000  0.0000  0.0000
     9. (1.99998) CR ( 1)Br   3           s(100.00%)p 0.00(  0.00%)
                                            1.0000  0.0000  0.0000 -0.0000  0.0000
                                            0.0000 -0.0000  0.0001 -0.0000 -0.0000
                                            0.0000 -0.0000  0.0003 -0.0000 -0.0000
                                            0.0000  0.0000  0.0000  0.0000  0.0000
                                            0.0000 -0.0000  0.0000 -0.0000  0.0000
                                            0.0000  0.0000  0.0000  0.0000  0.0000
                                            0.0000  0.0000  0.0000  0.0000 -0.0000
                                            0.0000  0.0000  0.0000 -0.0000  0.0000
                                           -0.0000  0.0000  0.0000 -0.0000 -0.0000
                                           -0.0000 -0.0000  0.0000  0.0000  0.0000
                                            0.0000 -0.0000 -0.0000 -0.0000 -0.0000
    10. (2.00002) CR ( 2)Br   3           s(  0.00%)p 1.00(100.00%)
                                           -0.0000  0.0000  0.0000 -0.0000  0.0000
                                            0.0000  1.0000 -0.0001 -0.0000 -0.0000
                                            0.0000 -0.0000  0.0001 -0.0000 -0.0000
                                            0.0000  0.0000  0.0000  0.0000  0.0000
                                            0.0000 -0.0000 -0.0000  0.0000  0.0000
                                            0.0000  0.0000  0.0000  0.0000  0.0000
                                            0.0000  0.0000  0.0000  0.0000 -0.0000
                                            0.0000  0.0000  0.0000 -0.0000  0.0000
                                           -0.0000  0.0000  0.0000  0.0000  0.0000
                                           -0.0000 -0.0000  0.0000  0.0000  0.0000
                                            0.0000  0.0000  0.0000 -0.0000 -0.0000
    11. (1.99999) CR ( 3)Br   3           s(  0.00%)p 1.00(100.00%)
                                           -0.0000  0.0001  0.0000 -0.0000  0.0000
                                            0.0000 -0.0000  0.0001 -0.0000 -0.0000
                                            0.0000  1.0000  0.0002 -0.0000 -0.0000
                                            0.0000  0.0000  0.0000  0.0000  0.0000
                                            0.0000 -0.0000  0.0000 -0.0000  0.0000
                                            0.0000  0.0000  0.0000  0.0000  0.0000
                                            0.0000  0.0000  0.0000  0.0000 -0.0000
                                            0.0000  0.0000  0.0000 -0.0000  0.0000
                                           -0.0000  0.0000  0.0000 -0.0000 -0.0000
                                           -0.0000 -0.0000  0.0000  0.0000  0.0000
                                            0.0000 -0.0000 -0.0000 -0.0000 -0.0000
    12. (2.00002) CR ( 4)Br   3           s(  0.00%)p 1.00(100.00%)
                                            0.0000  0.0000  0.0000  0.0000  0.0000
                                            0.0000  0.0000  0.0000  0.0000  0.0000
                                            0.0000  0.0000  0.0000  0.0000  0.0000
                                            0.0000  1.0000 -0.0001 -0.0000 -0.0000
                                            0.0000  0.0000  0.0000  0.0000  0.0000
                                            0.0000 -0.0000  0.0000 -0.0000  0.0000
                                           -0.0000  0.0000  0.0000  0.0000  0.0000
                                            0.0000  0.0000  0.0000  0.0000  0.0000
                                            0.0000  0.0000  0.0000  0.0000  0.0000
                                            0.0000  0.0000  0.0000  0.0000 -0.0000
                                           -0.0000  0.0000  0.0000  0.0000  0.0000
    13. (1.99768) CR ( 5)Br   3           s(  0.00%)p 0.00(  0.00%)d 1.00(100.00%)
                                           -0.0000  0.0000  0.0000 -0.0000  0.0000
                                            0.0000 -0.0000  0.0000 -0.0000 -0.0000
                                            0.0000 -0.0000  0.0001 -0.0000 -0.0000
                                            0.0000  0.0000  0.0000  0.0000  0.0000
                                            0.0000  1.0000  0.0000 -0.0000  0.0000
                                            0.0000  0.0000  0.0000  0.0000  0.0000
                                            0.0000  0.0000  0.0000  0.0000 -0.0000
                                            0.0000  0.0000  0.0000 -0.0000  0.0000
                                           -0.0000  0.0000  0.0000 -0.0000 -0.0000
                                           -0.0000 -0.0000  0.0000  0.0000  0.0000
                                            0.0000 -0.0000 -0.0000 -0.0000 -0.0000
    14. (1.99771) CR ( 6)Br   3           s(  0.00%)p 0.00(  0.00%)d 1.00(100.00%)
                                            0.0000  0.0000  0.0000  0.0000  0.0000
                                            0.0000  0.0000  0.0000  0.0000  0.0000
                                            0.0000  0.0000  0.0000  0.0000  0.0000
                                            0.0000  0.0000  0.0000  0.0000  0.0000
                                           -0.0000  0.0000  0.0000  0.0000  0.0000
                                            1.0000  0.0000 -0.0000  0.0000 -0.0000
                                            0.0000 -0.0000 -0.0000  0.0000  0.0000
                                            0.0000  0.0000  0.0000  0.0000  0.0000
                                            0.0000 -0.0000 -0.0000  0.0000  0.0000
                                            0.0000  0.0000 -0.0000 -0.0000  0.0000
                                            0.0000  0.0000  0.0000  0.0000  0.0000
    15. (1.99769) CR ( 7)Br   3           s(  0.00%)p 0.00(  0.00%)d 1.00(100.00%)
                                            0.0000  0.0000  0.0000  0.0000  0.0000
                                            0.0000  0.0000  0.0000  0.0000  0.0000
                                            0.0000  0.0000  0.0000  0.0000  0.0000
                                            0.0000  0.0000  0.0000  0.0000  0.0000
                                           -0.0000  0.0000  0.0000  0.0000  0.0000
                                           -0.0000  0.0000 -0.0000  0.0000  1.0000
                                            0.0000 -0.0000 -0.0000  0.0000  0.0000
                                            0.0000  0.0000  0.0000  0.0000  0.0000
                                            0.0000 -0.0000 -0.0000  0.0000  0.0000
                                            0.0000  0.0000 -0.0000 -0.0000  0.0000
                                            0.0000  0.0000  0.0000  0.0000  0.0000
    16. (1.99766) CR ( 8)Br   3           s(  0.00%)p 0.00(  0.00%)d 1.00(100.00%)
                                            0.0000 -0.0001 -0.0000  0.0000 -0.0000
                                           -0.0000  0.0000 -0.0000  0.0000  0.0000
                                           -0.0000  0.0000 -0.0002  0.0000  0.0000
                                           -0.0000  0.0000  0.0000  0.0000  0.0000
                                            0.0000  0.0000 -0.0000  0.0000 -0.0000
                                            0.0000  0.0000  0.0000  0.0000  0.0000
                                            0.0000  0.0000  0.0000  1.0000  0.0000
                                           -0.0000 -0.0000 -0.0000  0.0000 -0.0000
                                            0.0000  0.0000  0.0000  0.0000  0.0000
                                            0.0000  0.0000  0.0000  0.0000  0.0000
                                            0.0000  0.0000  0.0000  0.0000  0.0000
    17. (1.99769) CR ( 9)Br   3           s(  0.00%)p 0.00(  0.00%)d 1.00(100.00%)
                                            0.0000 -0.0000 -0.0000  0.0000 -0.0000
                                           -0.0000  0.0000 -0.0000  0.0000  0.0000
                                           -0.0000  0.0000 -0.0001  0.0000  0.0000
                                           -0.0000  0.0000  0.0000  0.0000  0.0000
                                            0.0000  0.0000 -0.0000  0.0000 -0.0000
                                            0.0000  0.0000  0.0000  0.0000  0.0000
                                            0.0000  0.0000  0.0000 -0.0000  0.0000
                                           -0.0000 -0.0000  1.0000  0.0000 -0.0000
                                            0.0000  0.0000  0.0000  0.0000  0.0000
                                            0.0000  0.0000  0.0000  0.0000  0.0000
                                            0.0000  0.0000  0.0000  0.0000  0.0000
    18. (1.96668) LP ( 1) O   1           s( 54.00%)p 0.85( 45.87%)d 0.00(  0.12%)
                                                  f 0.00(  0.00%)
                                            0.0002  0.7346  0.0176  0.0072 -0.0010
                                           -0.2484 -0.0061 -0.0034 -0.0020  0.6299
                                            0.0093  0.0057  0.0015  0.0000  0.0000
                                            0.0000  0.0000  0.0238  0.0026 -0.0035
                                            0.0000  0.0000  0.0000  0.0000  0.0000
                                            0.0000  0.0193 -0.0013 -0.0052  0.0145
                                           -0.0003 -0.0003  0.0000  0.0000  0.0001
                                            0.0006 -0.0032 -0.0000  0.0000  0.0000
                                            0.0000  0.0000  0.0035 -0.0024  0.0036
                                           -0.0025
    19. (1.95382) LP ( 2) O   1           s(  0.00%)p 1.00( 99.79%)d 0.00(  0.20%)
                                                  f 0.00(  0.01%)
                                            0.0000  0.0000  0.0000  0.0000  0.0000
                                            0.0000  0.0000  0.0000  0.0000  0.0000
                                            0.0000  0.0000  0.0000  0.9986  0.0245
                                            0.0059  0.0054  0.0000  0.0000  0.0000
                                            0.0283  0.0057 -0.0002 -0.0313  0.0048
                                            0.0120  0.0000  0.0000  0.0000  0.0000
                                            0.0000  0.0000 -0.0104  0.0002  0.0000
                                            0.0000  0.0000  0.0000  0.0040 -0.0029
                                            0.0011  0.0016  0.0000  0.0000  0.0000
                                            0.0000
    20. (1.97472) LP ( 1)Cl   2           s( 92.04%)p 0.09(  7.94%)d 0.00(  0.02%)
                                                  f 0.00(  0.00%)
                                            0.0000  0.0003  0.9593  0.0063  0.0012
                                           -0.0003  0.0000  0.2811 -0.0061 -0.0029
                                            0.0011  0.0000 -0.0174  0.0016  0.0002
                                           -0.0004  0.0000  0.0000  0.0000  0.0000
                                            0.0000  0.0001 -0.0003 -0.0005  0.0000
                                            0.0000  0.0000  0.0000  0.0000  0.0000
                                           -0.0119  0.0005 -0.0001  0.0075  0.0005
                                            0.0005  0.0000  0.0000 -0.0019 -0.0005
                                            0.0001 -0.0000  0.0000  0.0000  0.0000
                                            0.0000  0.0032  0.0001 -0.0006  0.0003
    21. (1.95635) LP ( 2)Cl   2           s(  0.00%)p 1.00( 99.95%)d 0.00(  0.04%)
                                                  f 0.00(  0.01%)
                                            0.0000  0.0000  0.0000  0.0000  0.0000
                                            0.0000  0.0000  0.0000  0.0000  0.0000
                                            0.0000  0.0000  0.0000  0.0000  0.0000
                                            0.0000 -0.0002  0.9996  0.0155  0.0051
                                           -0.0022  0.0000  0.0000  0.0000  0.0069
                                            0.0164  0.0089  0.0039  0.0033  0.0012
                                            0.0000  0.0000  0.0000  0.0000  0.0000
                                            0.0000 -0.0055  0.0008  0.0000  0.0000
                                            0.0000  0.0000  0.0068 -0.0010  0.0010
                                           -0.0008  0.0000  0.0000  0.0000  0.0000
    22. (1.95491) LP ( 3)Cl   2           s(  0.04%)p99.99( 99.91%)d 0.85(  0.04%)
                                                  f 0.21(  0.01%)
                                            0.0000 -0.0000  0.0193  0.0063  0.0038
                                            0.0018  0.0000 -0.0045 -0.0004 -0.0003
                                           -0.0009 -0.0002  0.9995  0.0129  0.0016
                                            0.0002  0.0000  0.0000  0.0000  0.0000
                                            0.0000 -0.0027  0.0133  0.0081  0.0000
                                            0.0000  0.0000  0.0000  0.0000  0.0000
                                           -0.0084 -0.0052 -0.0033 -0.0010 -0.0029
                                           -0.0008  0.0000  0.0000  0.0002  0.0001
                                           -0.0023  0.0000  0.0000  0.0000  0.0000
                                            0.0000 -0.0014  0.0004  0.0089 -0.0014
    23. (1.97975) LP ( 1)Br   3           s( 96.33%)p 0.04(  3.67%)d 0.00(  0.00%)
                                                  f 0.00(  0.00%)
                                            0.0000  0.9815 -0.0003  0.0002 -0.0003
                                           -0.0000 -0.0000 -0.0495  0.0002 -0.0002
                                           -0.0000 -0.0001 -0.1851  0.0009 -0.0006
                                            0.0003  0.0000  0.0000  0.0000  0.0000
                                            0.0000 -0.0000  0.0005 -0.0002 -0.0000
                                            0.0000  0.0000  0.0000  0.0000  0.0000
                                            0.0000  0.0000  0.0000  0.0000 -0.0009
                                            0.0005 -0.0000  0.0000 -0.0006  0.0003
                                            0.0000  0.0000  0.0000 -0.0001 -0.0000
                                           -0.0004 -0.0002  0.0000  0.0000  0.0000
                                            0.0000 -0.0003 -0.0001 -0.0004 -0.0002
    24. (1.95410) LP ( 2)Br   3           s(  0.00%)p 1.00( 99.99%)d 0.00(  0.01%)
                                                  f 0.00(  0.00%)
                                            0.0000  0.0000  0.0000  0.0000  0.0000
                                            0.0000  0.0000  0.0000  0.0000  0.0000
                                            0.0000  0.0000  0.0000  0.0000  0.0000
                                            0.0000  0.0001  1.0000  0.0016  0.0014
                                           -0.0006  0.0000  0.0000  0.0000  0.0000
                                           -0.0000  0.0021 -0.0006  0.0000 -0.0000
                                            0.0083 -0.0024 -0.0005  0.0000  0.0000
                                            0.0000  0.0000  0.0000  0.0000  0.0000
                                            0.0000 -0.0019 -0.0013  0.0000  0.0000
                                            0.0000  0.0000 -0.0021 -0.0012  0.0011
                                            0.0008  0.0000  0.0000  0.0000  0.0000
    25. (1.95375) LP ( 3)Br   3           s(  0.00%)p 1.00( 99.99%)d 0.00(  0.01%)
                                                  f 0.00(  0.00%)
                                           -0.0000  0.0061  0.0004  0.0001  0.0006
                                           -0.0001  0.0001  0.9735  0.0016  0.0011
                                           -0.0006 -0.0000 -0.2283 -0.0002 -0.0004
                                            0.0002  0.0000  0.0000  0.0000  0.0000
                                            0.0000 -0.0000  0.0085 -0.0020 -0.0006
                                            0.0000  0.0000  0.0000  0.0000  0.0000
                                            0.0000  0.0000  0.0000 -0.0000  0.0035
                                           -0.0005 -0.0009  0.0000 -0.0001  0.0001
                                           -0.0000  0.0000  0.0000 -0.0008 -0.0005
                                            0.0001 -0.0000  0.0000  0.0000  0.0000
                                            0.0000 -0.0022 -0.0012  0.0017  0.0010
    26. (1.90804) LP ( 4)Br   3           s(  3.67%)p26.26( 96.29%)d 0.01(  0.04%)
                                                  f 0.00(  0.00%)
                                           -0.0003  0.1915  0.0014 -0.0010  0.0017
                                            0.0001 -0.0001  0.2229 -0.0009 -0.0005
                                            0.0008 -0.0002  0.9556 -0.0031 -0.0027
                                            0.0011  0.0000  0.0000  0.0000  0.0000
                                            0.0000 -0.0001  0.0074 -0.0020  0.0003
                                            0.0000  0.0000  0.0000  0.0000  0.0000
                                            0.0000  0.0000  0.0000  0.0002 -0.0144
                                            0.0030  0.0004  0.0001 -0.0100  0.0024
                                           -0.0003  0.0000  0.0000 -0.0008 -0.0006
                                           -0.0034 -0.0019  0.0000  0.0000  0.0000
                                            0.0000 -0.0028 -0.0015 -0.0030 -0.0011
    27. (0.01812) RY*( 1) O   1           s(  0.00%)p 1.00( 98.73%)d 0.01(  1.21%)
                                                  f 0.00(  0.06%)
                                            0.0000  0.0000  0.0000  0.0000  0.0000
                                            0.0000  0.0000  0.0000  0.0000  0.0000
                                            0.0000  0.0000  0.0000 -0.0288  0.9922
                                           -0.0430 -0.0124  0.0000  0.0000  0.0000
                                            0.0884  0.0295  0.0104 -0.0521  0.0071
                                            0.0233  0.0000  0.0000  0.0000  0.0000
                                            0.0000  0.0000 -0.0070  0.0090  0.0000
                                            0.0000  0.0000  0.0000  0.0171 -0.0132
                                           -0.0055  0.0022  0.0000  0.0000  0.0000
                                            0.0000
    28. (0.01500) RY*( 2) O   1           s( 30.51%)p 2.21( 67.48%)d 0.06(  1.81%)
                                                  f 0.01(  0.21%)
                                           -0.0000 -0.0040  0.5485 -0.0648  0.0004
                                            0.0440 -0.3389  0.0058  0.0192 -0.0132
                                            0.7454 -0.0083 -0.0408  0.0000  0.0000
                                            0.0000  0.0000  0.1232  0.0234  0.0033
                                            0.0000  0.0000  0.0000  0.0000  0.0000
                                            0.0000  0.0162  0.0042 -0.0025  0.0434
                                           -0.0019 -0.0126  0.0000  0.0000 -0.0049
                                            0.0019  0.0057  0.0016  0.0000  0.0000
                                            0.0000  0.0000  0.0318 -0.0135  0.0255
                                           -0.0125
    29. (0.00744) RY*( 3) O   1           s( 12.01%)p 0.40(  4.84%)d 6.81( 81.70%)
                                                  f 0.12(  1.45%)
                                           -0.0000  0.0181  0.3423 -0.0495  0.0101
                                           -0.0237 -0.1235  0.0070  0.0151 -0.0081
                                           -0.1674  0.0303 -0.0578 -0.0000 -0.0000
                                           -0.0000 -0.0000 -0.8927 -0.0225 -0.0283
                                           -0.0000 -0.0000 -0.0000 -0.0000 -0.0000
                                           -0.0000  0.0726  0.0188  0.0297  0.1106
                                           -0.0000  0.0063 -0.0000 -0.0000 -0.0293
                                            0.0149  0.0082 -0.0031 -0.0000 -0.0000
                                           -0.0000 -0.0000 -0.0675  0.0200 -0.0840
                                            0.0362
    30. (0.00695) RY*( 4) O   1           s(  0.00%)p 1.00(  0.55%)d99.99( 97.90%)
                                                  f 2.86(  1.56%)
                                            0.0000  0.0000  0.0000  0.0000  0.0000
                                            0.0000  0.0000  0.0000  0.0000  0.0000
                                            0.0000  0.0000  0.0000 -0.0157 -0.0708
                                           -0.0139  0.0005  0.0000  0.0000  0.0000
                                            0.9384 -0.0207  0.0183  0.3120 -0.0184
                                            0.0022  0.0000  0.0000  0.0000  0.0000
                                            0.0000  0.0000 -0.0396  0.0195  0.0000
                                            0.0000  0.0000  0.0000  0.1043 -0.0439
                                           -0.0269  0.0098  0.0000  0.0000  0.0000
                                            0.0000
    31. (0.00608) RY*( 5) O   1           s(  0.00%)p 1.00(  0.77%)d99.99( 98.04%)
                                                  f 1.53(  1.18%)
                                            0.0000  0.0000  0.0000  0.0000  0.0000
                                            0.0000  0.0000  0.0000  0.0000  0.0000
[...]
   158. (0.00031) RY*( 8) H   4           s(  0.00%)p 1.00( 85.46%)d 0.17( 14.54%)
                                            0.0000  0.0000  0.0000  0.0000  0.0000
                                            0.0000  0.0000  0.0000  0.0000  0.0000
                                           -0.1049  0.9076 -0.1411  0.0000  0.0000
                                           -0.0754  0.0641 -0.3351  0.1528  0.0000
                                            0.0000  0.0000  0.0000
   159. (0.00029) RY*( 9) H   4           s( 31.05%)p 0.78( 24.08%)d 1.44( 44.87%)
                                            0.0010 -0.0234  0.5509 -0.0803 -0.0668
                                            0.3078 -0.3574  0.0591 -0.0599 -0.0823
                                           -0.0000 -0.0000 -0.0000 -0.6144  0.0408
                                           -0.0000 -0.0000 -0.0000 -0.0000  0.2611
                                            0.0306  0.0075  0.0174
   160. (0.00021) RY*(10) H   4           s(  0.82%)p84.82( 69.89%)d35.55( 29.29%)
                                           -0.0208 -0.0486  0.0575 -0.0462  0.0287
                                            0.3402 -0.0501  0.1073  0.6969  0.2875
                                            0.0000  0.0000  0.0000 -0.0527  0.0078
                                            0.0000  0.0000  0.0000  0.0000 -0.5143
                                            0.0591 -0.0793  0.1255
   161. (0.00021) RY*(11) H   4           s(  0.00%)p 1.00(  0.48%)d99.99( 99.52%)
                                            0.0000  0.0000  0.0000  0.0000  0.0000
                                            0.0000  0.0000  0.0000  0.0000  0.0000
                                           -0.0247  0.0471 -0.0440  0.0000  0.0000
                                            0.9930  0.0078 -0.0868 -0.0408  0.0000
                                            0.0000  0.0000  0.0000
   162. (0.00022) RY*(12) H   4           s( 12.26%)p 0.19(  2.36%)d 6.96( 85.38%)
                                           -0.0013 -0.0391  0.3386 -0.0801  0.0917
                                            0.1132  0.0108 -0.0023 -0.0470  0.0041
                                            0.0000  0.0000  0.0000  0.3216 -0.0311
                                            0.0000  0.0000  0.0000  0.0000 -0.1016
                                           -0.0861  0.8548  0.0315
   163. (0.00016) RY*(13) H   4           s(  0.00%)p 1.00( 54.09%)d 0.85( 45.91%)
                                            0.0000  0.0000  0.0000  0.0000  0.0000
                                            0.0000  0.0000  0.0000  0.0000  0.0000
                                            0.0068 -0.1262  0.7245  0.0000  0.0000
                                            0.0258  0.1706 -0.3783  0.5350  0.0000
                                            0.0000  0.0000  0.0000
   164. (0.00015) RY*(14) H   4           s( 15.56%)p 1.32( 20.58%)d 4.10( 63.86%)
                                           -0.0098 -0.0561  0.3551 -0.1622  0.0531
                                            0.0989  0.2560  0.0411  0.3201  0.1531
                                           -0.0000 -0.0000 -0.0000  0.4235  0.0890
                                           -0.0000 -0.0000 -0.0000 -0.0000  0.5609
                                            0.0259 -0.2400 -0.2803
   165. (0.00013) RY*(15) H   4           s(  5.73%)p 8.17( 46.77%)d 8.30( 47.50%)
                                            0.0059  0.0133  0.1894  0.1455 -0.0160
                                            0.0602  0.6397 -0.0229 -0.0942 -0.2127
                                            0.0000  0.0000  0.0000 -0.1803  0.5338
                                            0.0000  0.0000  0.0000  0.0000 -0.1894
                                            0.3427  0.0176  0.0631
   166. (0.00011) RY*(16) H   4           s( 56.24%)p 0.13(  7.36%)d 0.65( 36.40%)
                                            0.0057  0.0228  0.4549  0.5958  0.0657
                                            0.0530 -0.1357 -0.0019 -0.2141 -0.0475
                                           -0.0000 -0.0000 -0.0000  0.3553 -0.2381
                                           -0.0000 -0.0000 -0.0000 -0.0000 -0.2084
                                            0.0783 -0.3132  0.1827
   167. (0.00008) RY*(17) H   4           s(  0.00%)p 1.00(  0.09%)d99.99( 99.91%)
   168. (0.00008) RY*(18) H   4           s(  0.13%)p 6.97(  0.90%)d99.99( 98.97%)
   169. (0.00005) RY*(19) H   4           s(  0.00%)p 1.00( 27.35%)d 2.66( 72.65%)
   170. (0.00004) RY*(20) H   4           s(  3.23%)p 8.44( 27.29%)d21.49( 69.48%)
   171. (0.00004) RY*(21) H   4           s(  1.51%)p24.65( 37.30%)d40.44( 61.19%)
   172. (0.00003) RY*(22) H   4           s( 59.90%)p 0.21( 12.87%)d 0.45( 27.24%)
   173. (0.05703) BD*( 1) O   1 -Cl   2  
                ( 40.62%)   0.6374* O   1 s( 10.79%)p 8.22( 88.69%)d 0.05(  0.50%)
                                                  f 0.00(  0.02%)
                                           -0.0003 -0.3257  0.0414  0.0132  0.0004
                                           -0.9408  0.0231  0.0109  0.0089  0.0069
                                            0.0294  0.0047  0.0002 -0.0000 -0.0000
                                           -0.0000 -0.0000  0.0258  0.0014 -0.0028
                                           -0.0000 -0.0000 -0.0000 -0.0000 -0.0000
                                           -0.0000 -0.0510 -0.0055 -0.0024  0.0414
                                            0.0036 -0.0008 -0.0000 -0.0000  0.0115
                                           -0.0011  0.0004 -0.0001 -0.0000 -0.0000
                                           -0.0000 -0.0000 -0.0047 -0.0001  0.0004
                                           -0.0027
                ( 59.38%)  -0.7706*Cl   2 s(  8.18%)p11.06( 90.50%)d 0.15(  1.21%)
                                                  f 0.01(  0.11%)
                                            0.0000 -0.0005 -0.2805  0.0553  0.0101
                                           -0.0022  0.0004  0.9488 -0.0664 -0.0142
                                            0.0041  0.0000  0.0086  0.0010 -0.0024
                                            0.0006 -0.0000 -0.0000 -0.0000 -0.0000
                                           -0.0000 -0.0127 -0.0000 -0.0010 -0.0000
                                           -0.0000 -0.0000 -0.0000 -0.0000 -0.0000
                                           -0.0921  0.0100 -0.0002  0.0579 -0.0055
                                           -0.0005 -0.0000 -0.0000 -0.0206  0.0032
                                           -0.0004  0.0001 -0.0000 -0.0000 -0.0000
                                           -0.0000  0.0249 -0.0029  0.0008  0.0000
   174. (0.05533) BD*( 1) O   1 - H   4  
                ( 23.88%)   0.4887* O   1 s( 35.34%)p 1.82( 64.18%)d 0.01(  0.48%)
                                                  f 0.00(  0.01%)
                                            0.0003  0.5943 -0.0126 -0.0057  0.0011
                                           -0.2090  0.0202  0.0019  0.0016 -0.7727
                                            0.0229  0.0068  0.0034 -0.0000 -0.0000
                                           -0.0000 -0.0000  0.0039 -0.0037  0.0003
                                           -0.0000 -0.0000 -0.0000 -0.0000 -0.0000
                                           -0.0000 -0.0579 -0.0029 -0.0037 -0.0370
                                            0.0006  0.0021 -0.0000 -0.0000  0.0015
                                            0.0009  0.0076  0.0015 -0.0000 -0.0000
                                           -0.0000 -0.0000  0.0015  0.0033 -0.0007
                                            0.0037
                ( 76.12%)  -0.8725* H   4 s( 99.88%)p 0.00(  0.12%)d 0.00(  0.00%)
                                            0.9990  0.0283  0.0010 -0.0000  0.0113
                                            0.0065 -0.0012 -0.0128  0.0277  0.0092
                                           -0.0000 -0.0000 -0.0000 -0.0010 -0.0015
                                           -0.0000 -0.0000 -0.0000 -0.0000  0.0007
                                           -0.0019  0.0022 -0.0040


 NHO Directionality and "Bond Bending" (deviations from line of nuclear centers)

         [Thresholds for printing:  angular deviation  >  1.0 degree]
                                    hybrid p-character > 25.0%
                                    orbital occupancy  >  0.10e

                                Line of Centers        Hybrid 1              Hybrid 2
                                ---------------  -------------------   ------------------
                NBO               Theta   Phi    Theta   Phi    Dev    Theta   Phi    Dev
 ========================================================================================
     1. BD (   1) O   1 -Cl   2    90.0    0.0    90.0  357.4   2.6      --     --    --
    18. LP (   1) O   1             --     --     90.0  111.9   --       --     --    --
    19. LP (   2) O   1             --     --      0.0    0.0   --       --     --    --
    21. LP (   2)Cl   2             --     --      0.0    0.0   --       --     --    --
    22. LP (   3)Cl   2             --     --     90.0   90.3   --       --     --    --
    24. LP (   2)Br   3             --     --      0.0    0.0   --       --     --    --
    25. LP (   3)Br   3             --     --     90.0  346.8   --       --     --    --
    26. LP (   4)Br   3             --     --     90.0   76.8   --       --     --    --


 Natural Bond Orbitals (Summary):

           NBO                  Occupancy  
 -----------------------------------------------
 Molecular unit  1  (HOCl)
     1. BD (   1) O   1 -Cl   2          1.94134
     2. BD (   1) O   1 - H   4          1.97215
     3. CR (   1) O   1                  1.99954
     4. CR (   1)Cl   2                  2.00000
     5. CR (   2)Cl   2                  1.99983
     6. CR (   3)Cl   2                  1.99997
     7. CR (   4)Cl   2                  2.00003
     8. CR (   5)Cl   2                  2.00003
    18. LP (   1) O   1                  1.96668
    19. LP (   2) O   1                  1.95382
    20. LP (   1)Cl   2                  1.97472
    21. LP (   2)Cl   2                  1.95635
    22. LP (   3)Cl   2                  1.95491
    27. RY*(   1) O   1                  0.01812
    28. RY*(   2) O   1                  0.01500
    29. RY*(   3) O   1                  0.00744
    30. RY*(   4) O   1                  0.00695
    31. RY*(   5) O   1                  0.00608
    32. RY*(   6) O   1                  0.00583
    33. RY*(   7) O   1                  0.00568
    34. RY*(   8) O   1                  0.00249
    35. RY*(   9) O   1                  0.00216
    36. RY*(  10) O   1                  0.00085
    37. RY*(  11) O   1                  0.00066
    38. RY*(  12) O   1                  0.00055
    39. RY*(  13) O   1                  0.00056
    40. RY*(  14) O   1                  0.00049
    41. RY*(  15) O   1                  0.00048
    42. RY*(  16) O   1                  0.00046
    43. RY*(  17) O   1                  0.00045
    44. RY*(  18) O   1                  0.00044
    45. RY*(  19) O   1                  0.00044
    46. RY*(  20) O   1                  0.00043
    47. RY*(  21) O   1                  0.00041
    48. RY*(  22) O   1                  0.00040
    49. RY*(  23) O   1                  0.00030
    50. RY*(  24) O   1                  0.00028
    51. RY*(  25) O   1                  0.00024
    52. RY*(  26) O   1                  0.00021
    53. RY*(  27) O   1                  0.00012
    54. RY*(  28) O   1                  0.00012
    55. RY*(  29) O   1                  0.00013
    56. RY*(  30) O   1                  0.00008
    57. RY*(  31) O   1                  0.00008
    58. RY*(  32) O   1                  0.00008
    59. RY*(  33) O   1                  0.00008
    60. RY*(  34) O   1                  0.00009
    61. RY*(  35) O   1                  0.00007
    62. RY*(  36) O   1                  0.00006
    63. RY*(  37) O   1                  0.00007
    64. RY*(  38) O   1                  0.00005
    65. RY*(  39) O   1                  0.00003
    66. RY*(  40) O   1                  0.00003
    67. RY*(  41) O   1                  0.00003
    68. RY*(   1)Cl   2                  0.02237
    69. RY*(   2)Cl   2                  0.01715
    70. RY*(   3)Cl   2                  0.01667
    71. RY*(   4)Cl   2                  0.01624
    72. RY*(   5)Cl   2                  0.01139
    73. RY*(   6)Cl   2                  0.00909
    74. RY*(   7)Cl   2                  0.00886
    75. RY*(   8)Cl   2                  0.00615
    76. RY*(   9)Cl   2                  0.00164
    77. RY*(  10)Cl   2                  0.00126
    78. RY*(  11)Cl   2                  0.00126
    79. RY*(  12)Cl   2                  0.00118
    80. RY*(  13)Cl   2                  0.00119
    81. RY*(  14)Cl   2                  0.00116
    82. RY*(  15)Cl   2                  0.00109
    83. RY*(  16)Cl   2                  0.00092
    84. RY*(  17)Cl   2                  0.00075
    85. RY*(  18)Cl   2                  0.00076
    86. RY*(  19)Cl   2                  0.00063
    87. RY*(  20)Cl   2                  0.00053
    88. RY*(  21)Cl   2                  0.00042
    89. RY*(  22)Cl   2                  0.00036
    90. RY*(  23)Cl   2                  0.00034
    91. RY*(  24)Cl   2                  0.00030
    92. RY*(  25)Cl   2                  0.00018
    93. RY*(  26)Cl   2                  0.00015
    94. RY*(  27)Cl   2                  0.00013
    95. RY*(  28)Cl   2                  0.00012
    96. RY*(  29)Cl   2                  0.00012
    97. RY*(  30)Cl   2                  0.00013
    98. RY*(  31)Cl   2                  0.00010
    99. RY*(  32)Cl   2                  0.00010
   100. RY*(  33)Cl   2                  0.00009
   101. RY*(  34)Cl   2                  0.00009
   102. RY*(  35)Cl   2                  0.00010
   103. RY*(  36)Cl   2                  0.00007
   104. RY*(  37)Cl   2                  0.00007
   105. RY*(  38)Cl   2                  0.00006
   106. RY*(  39)Cl   2                  0.00003
   107. RY*(  40)Cl   2                  0.00003
   108. RY*(  41)Cl   2                  0.00000
   151. RY*(   1) H   4                  0.01080
   152. RY*(   2) H   4                  0.00558
   153. RY*(   3) H   4                  0.00523
   154. RY*(   4) H   4                  0.00352
   155. RY*(   5) H   4                  0.00061
   156. RY*(   6) H   4                  0.00048
   157. RY*(   7) H   4                  0.00043
   158. RY*(   8) H   4                  0.00031
   159. RY*(   9) H   4                  0.00029
   160. RY*(  10) H   4                  0.00021
   161. RY*(  11) H   4                  0.00021
   162. RY*(  12) H   4                  0.00022
   163. RY*(  13) H   4                  0.00016
   164. RY*(  14) H   4                  0.00015
   165. RY*(  15) H   4                  0.00013
   166. RY*(  16) H   4                  0.00011
   167. RY*(  17) H   4                  0.00008
   168. RY*(  18) H   4                  0.00008
   169. RY*(  19) H   4                  0.00005
   170. RY*(  20) H   4                  0.00004
   171. RY*(  21) H   4                  0.00004
   172. RY*(  22) H   4                  0.00003
   173. BD*(   1) O   1 -Cl   2          0.05703
   174. BD*(   1) O   1 - H   4          0.05533
       -------------------------------
              Total Lewis   25.71937  ( 98.6842%)
        Valence non-Lewis    0.11237  (  0.4311%)
        Rydberg non-Lewis    0.23055  (  0.8846%)
       -------------------------------
            Total unit  1   26.06228  (100.0000%)
           Charge unit  1   -0.06228

 Molecular unit  2  (Br)
     9. CR (   1)Br   3                  1.99998
    10. CR (   2)Br   3                  2.00002
    11. CR (   3)Br   3                  1.99999
    12. CR (   4)Br   3                  2.00002
    13. CR (   5)Br   3                  1.99768
    14. CR (   6)Br   3                  1.99771
    15. CR (   7)Br   3                  1.99769
    16. CR (   8)Br   3                  1.99766
    17. CR (   9)Br   3                  1.99769
    23. LP (   1)Br   3                  1.97975
    24. LP (   2)Br   3                  1.95410
    25. LP (   3)Br   3                  1.95375
    26. LP (   4)Br   3                  1.90804
   109. RY*(   1)Br   3                  0.01872
   110. RY*(   2)Br   3                  0.01866
   111. RY*(   3)Br   3                  0.01853
   112. RY*(   4)Br   3                  0.01852
   113. RY*(   5)Br   3                  0.01787
   114. RY*(   6)Br   3                  0.01166
   115. RY*(   7)Br   3                  0.01158
   116. RY*(   8)Br   3                  0.01007
   117. RY*(   9)Br   3                  0.00253
   118. RY*(  10)Br   3                  0.00179
   119. RY*(  11)Br   3                  0.00178
   120. RY*(  12)Br   3                  0.00174
   121. RY*(  13)Br   3                  0.00174
   122. RY*(  14)Br   3                  0.00174
   123. RY*(  15)Br   3                  0.00174
   124. RY*(  16)Br   3                  0.00174
   125. RY*(  17)Br   3                  0.00174
   126. RY*(  18)Br   3                  0.00171
   127. RY*(  19)Br   3                  0.00145
   128. RY*(  20)Br   3                  0.00141
   129. RY*(  21)Br   3                  0.00128
   130. RY*(  22)Br   3                  0.00078
   131. RY*(  23)Br   3                  0.00078
   132. RY*(  24)Br   3                  0.00072
   133. RY*(  25)Br   3                  0.00038
   134. RY*(  26)Br   3                  0.00028
   135. RY*(  27)Br   3                  0.00025
   136. RY*(  28)Br   3                  0.00025
   137. RY*(  29)Br   3                  0.00025
   138. RY*(  30)Br   3                  0.00025
   139. RY*(  31)Br   3                  0.00025
   140. RY*(  32)Br   3                  0.00025
   141. RY*(  33)Br   3                  0.00021
   142. RY*(  34)Br   3                  0.00021
   143. RY*(  35)Br   3                  0.00017
   144. RY*(  36)Br   3                  0.00016
   145. RY*(  37)Br   3                  0.00013
   146. RY*(  38)Br   3                  0.00011
   147. RY*(  39)Br   3                  0.00008
   148. RY*(  40)Br   3                  0.00008
   149. RY*(  41)Br   3                  0.00005
   150. RY*(  42)Br   3                  0.00000
       -------------------------------
              Total Lewis   35.78407  ( 99.5725%)
        Valence non-Lewis    0.00000  (  0.0000%)
        Rydberg non-Lewis    0.15365  (  0.4275%)
       -------------------------------
            Total unit  2   35.93772  (100.0000%)
           Charge unit  2   -0.93772
 Leave Link  607 at Tue Oct 19 14:33:45 2021, MaxMem= 16106127360 cpu:              69.1 elap:               2.5
 (Enter /sw/contrib/gaussian/g16/B01/g16/l9999.exe)
 1\1\GINC-N2207\SP\RMP2-FC\Gen\Br1Cl1H1O1(1-)\CGAVINH\19-Oct-2021\0\\#p
  pop=NBO SP NoSymm mp2/gen Pseudo=read density=current\\title\\-1,1\O\
 X,1,10.\Cl,1,1.68446532,2,90.\Br,1,3.06793175,2,90.,3,103.45029768,0\H
 ,1,0.85,2,90.,3,103.45029768,0\\Version=ES64L-G16RevB.01\HF=-950.50762
 3\MP2=-951.2012601\RMSD=5.128e-09\Dipole=1.2840682,1.629777,0.\Quadrup
 ole=8.1003833,-17.6157961,9.5154128,-6.7867859,0.,0.\PG=CS [SG(Br1Cl1H
 1O1)]\\@


 ... THE UNIVERSE IS NOT ONLY QUEERER THAN WE SUPPOSE,
 BUT QUEERER THAN WE CAN SUPPOSE ... 

                                   -- J. B. S. HALDANE
 Job cpu time:       0 days  0 hours  5 minutes 38.0 seconds.
 Elapsed time:       0 days  0 hours  0 minutes 18.2 seconds.
 File lengths (MBytes):  RWF=     15 Int=      0 D2E=      0 Chk=      8 Scr=      1
 Normal termination of Gaussian 16 at Tue Oct 19 14:33:45 2021.
