 Entering Gaussian System, Link 0=g16
 Input=brhocl_pp_rOH_125_sp.gjf
 Output=brhocl_pp_rOH_125_sp.log
 Initial command:
 /sw/contrib/gaussian/g16/B01/g16/l1.exe "/scr/Gau-6361.inp" -scrdir="/scr/"
 Entering Link 1 = /sw/contrib/gaussian/g16/B01/g16/l1.exe PID=      6362.
  
 Copyright (c) 1988-2017, Gaussian, Inc.  All Rights Reserved.
  
 This is part of the Gaussian(R) 16 program.  It is based on
 the Gaussian(R) 09 system (copyright 2009, Gaussian, Inc.),
 the Gaussian(R) 03 system (copyright 2003, Gaussian, Inc.),
 the Gaussian(R) 98 system (copyright 1998, Gaussian, Inc.),
 the Gaussian(R) 94 system (copyright 1995, Gaussian, Inc.),
 the Gaussian 92(TM) system (copyright 1992, Gaussian, Inc.),
 the Gaussian 90(TM) system (copyright 1990, Gaussian, Inc.),
 the Gaussian 88(TM) system (copyright 1988, Gaussian, Inc.),
 the Gaussian 86(TM) system (copyright 1986, Carnegie Mellon
 University), and the Gaussian 82(TM) system (copyright 1983,
 Carnegie Mellon University). Gaussian is a federally registered
 trademark of Gaussian, Inc.
  
 This software contains proprietary and confidential information,
 including trade secrets, belonging to Gaussian, Inc.
  
 This software is provided under written license and may be
 used, copied, transmitted, or stored only in accord with that
 written license.
  
 The following legend is applicable only to US Government
 contracts under FAR:
  
                    RESTRICTED RIGHTS LEGEND
  
 Use, reproduction and disclosure by the US Government is
 subject to restrictions as set forth in subparagraphs (a)
 and (c) of the Commercial Computer Software - Restricted
 Rights clause in FAR 52.227-19.
  
 Gaussian, Inc.
 340 Quinnipiac St., Bldg. 40, Wallingford CT 06492
  
  
 ---------------------------------------------------------------
 Warning -- This program may not be used in any manner that
 competes with the business of Gaussian, Inc. or will provide
 assistance to any competitor of Gaussian, Inc.  The licensee
 of this program is prohibited from giving any competitor of
 Gaussian, Inc. access to this program.  By using this program,
 the user acknowledges that Gaussian, Inc. is engaged in the
 business of creating and licensing software in the field of
 computational chemistry and represents and warrants to the
 licensee that it is not a competitor of Gaussian, Inc. and that
 it will not use this program in any manner prohibited above.
 ---------------------------------------------------------------
  

 Cite this work as:
 Gaussian 16, Revision B.01,
 M. J. Frisch, G. W. Trucks, H. B. Schlegel, G. E. Scuseria, 
 M. A. Robb, J. R. Cheeseman, G. Scalmani, V. Barone, 
 G. A. Petersson, H. Nakatsuji, X. Li, M. Caricato, A. V. Marenich, 
 J. Bloino, B. G. Janesko, R. Gomperts, B. Mennucci, H. P. Hratchian, 
 J. V. Ortiz, A. F. Izmaylov, J. L. Sonnenberg, D. Williams-Young, 
 F. Ding, F. Lipparini, F. Egidi, J. Goings, B. Peng, A. Petrone, 
 T. Henderson, D. Ranasinghe, V. G. Zakrzewski, J. Gao, N. Rega, 
 G. Zheng, W. Liang, M. Hada, M. Ehara, K. Toyota, R. Fukuda, 
 J. Hasegawa, M. Ishida, T. Nakajima, Y. Honda, O. Kitao, H. Nakai, 
 T. Vreven, K. Throssell, J. A. Montgomery, Jr., J. E. Peralta, 
 F. Ogliaro, M. J. Bearpark, J. J. Heyd, E. N. Brothers, K. N. Kudin, 
 V. N. Staroverov, T. A. Keith, R. Kobayashi, J. Normand, 
 K. Raghavachari, A. P. Rendell, J. C. Burant, S. S. Iyengar, 
 J. Tomasi, M. Cossi, J. M. Millam, M. Klene, C. Adamo, R. Cammi, 
 J. W. Ochterski, R. L. Martin, K. Morokuma, O. Farkas, 
 J. B. Foresman, and D. J. Fox, Gaussian, Inc., Wallingford CT, 2016.
 
 ******************************************
 Gaussian 16:  ES64L-G16RevB.01 20-Dec-2017
                19-Oct-2021 
 ******************************************
 %nproc=28
 Will use up to   28 processors via shared memory.
 %mem=120GB
 %chk=/gscratch/ilahie/mccoygrp/coire_hocl/rOH_s_oop_0/brhocl_pp/brhocl_pp_rOH_12
 5_sp.chk
 --------------------------------------------------------
 #p pop=NBO SP NoSymm mp2/gen Pseudo=read density=current
 --------------------------------------------------------
 1/30=1,38=1,172=1/1;
 2/12=2,15=1,17=6,18=5,40=1/2;
 3/5=7,11=9,16=1,17=8,25=1,30=1,71=1/1,2,3;
 4//1;
 5/5=2,38=5/2;
 8/6=4,10=1/1;
 9/15=1,16=-3/6;
 10/5=1,13=10,31=1/2;
 6/7=2,8=2,9=2,10=2,22=-1,40=1/1,7;
 99/5=1,9=1/99;
 Leave Link    1 at Tue Oct 19 14:35:58 2021, MaxMem= 16106127360 cpu:               2.4 elap:               0.1
 (Enter /sw/contrib/gaussian/g16/B01/g16/l101.exe)
 -----
 title
 -----
 Symbolic Z-matrix:
 Charge = -1 Multiplicity = 1
 O
 X                    1     10. 
 Cl                   1    r1       2     90. 
 Br                   1    r2       2     90.      3    a1       0
 H                    1    r3       2    oop      3    a1       0
       Variables:
  r1                    1.68447                  
  r2                    3.06793                  
  r3                    1.25                     
  a1                  103.4503                   
  OOP                  90.                       
 
 ITRead=  0  0  0  0
 MicOpt= -1 -1 -1 -1
 NAtoms=      4 NQM=        4 NQMF=       0 NMMI=      0 NMMIF=      0
                NMic=       0 NMicF=      0.
                    Isotopes and Nuclear Properties:
 (Nuclear quadrupole moments (NQMom) in fm**2, nuclear magnetic moments (NMagM)
  in nuclear magnetons)

  Atom         1           2           3           4
 IAtWgt=          16          35          79           1
 AtmWgt=  15.9949146  34.9688527  78.9183361   1.0078250
 NucSpn=           0           3           3           1
 AtZEff=  -0.0000000  -0.0000000  -0.0000000  -0.0000000
 NQMom=    0.0000000  -8.1650000  31.3000000   0.0000000
 NMagM=    0.0000000   0.8218740   2.1063990   2.7928460
 AtZNuc=   8.0000000  17.0000000  35.0000000   1.0000000
 Leave Link  101 at Tue Oct 19 14:35:58 2021, MaxMem= 16106127360 cpu:               2.6 elap:               0.1
 (Enter /sw/contrib/gaussian/g16/B01/g16/l202.exe)
                          Input orientation:                          
 ---------------------------------------------------------------------
 Center     Atomic      Atomic             Coordinates (Angstroms)
 Number     Number       Type             X           Y           Z
 ---------------------------------------------------------------------
      1          8           0        0.000000    0.000000    0.000000
      2         17           0        1.684465    0.000000    0.000000
      3         35           0       -0.713606   -2.983785    0.000000
      4          1           0       -0.290752   -1.215715    0.000000
 ---------------------------------------------------------------------
                    Distance matrix (angstroms):
                    1          2          3          4
     1  O    0.000000
     2  Cl   1.684465   0.000000
     3  Br   3.067932   3.828018   0.000000
     4  H    1.250000   2.319364   1.817932   0.000000
 Symmetry turned off by external request.
 Stoichiometry    BrClHO(1-)
 Framework group  CS[SG(BrClHO)]
 Deg. of freedom     5
 Full point group                 CS      NOp   2
 Rotational constants (GHZ):          22.7805681           1.2849086           1.2163045
 Leave Link  202 at Tue Oct 19 14:35:58 2021, MaxMem= 16106127360 cpu:               0.9 elap:               0.1
 (Enter /sw/contrib/gaussian/g16/B01/g16/l301.exe)
 General basis read from cards:  (5D, 7F)
 Centers:       2      1      4
 aug-cc-pVTZ
 ****
 Centers:       3
 S 10 1.00
     Exponent=  9.6593900000D+03 Coefficients=  3.7100000000D-04
     Exponent=  1.4559600000D+03 Coefficients=  2.5710000000D-03
     Exponent=  3.2591400000D+02 Coefficients=  8.4850000000D-03
     Exponent=  4.6565700000D+01 Coefficients=  7.8222000000D-02
     Exponent=  1.8246900000D+01 Coefficients= -3.9714900000D-01
     Exponent=  3.8020100000D+00 Coefficients=  6.8586400000D-01
     Exponent=  1.7863200000D+00 Coefficients=  4.8681900000D-01
     Exponent=  6.0271400000D-01 Coefficients=  3.4913000000D-02
     Exponent=  2.8401400000D-01 Coefficients= -6.5730000000D-03
     Exponent=  1.2027100000D-01 Coefficients=  1.6420000000D-03
 S 10 1.00
     Exponent=  9.6593900000D+03 Coefficients= -1.5200000000D-04
     Exponent=  1.4559600000D+03 Coefficients= -1.0080000000D-03
     Exponent=  3.2591400000D+02 Coefficients= -3.6090000000D-03
     Exponent=  4.6565700000D+01 Coefficients= -2.7872000000D-02
     Exponent=  1.8246900000D+01 Coefficients=  1.5131700000D-01
     Exponent=  3.8020100000D+00 Coefficients= -3.5149700000D-01
     Exponent=  1.7863200000D+00 Coefficients= -4.1070300000D-01
     Exponent=  6.0271400000D-01 Coefficients=  3.4731600000D-01
     Exponent=  2.8401400000D-01 Coefficients=  6.7549100000D-01
     Exponent=  1.2027100000D-01 Coefficients=  2.4400800000D-01
 S 1 1.00
     Exponent=  6.0271400000D-01 Coefficients=  1.0000000000D+00
 S 1 1.00
     Exponent=  2.8401400000D-01 Coefficients=  1.0000000000D+00
 S 1 1.00
     Exponent=  1.2027100000D-01 Coefficients=  1.0000000000D+00
 S 1 1.00
     Exponent=  4.4500000000D-02 Coefficients=  1.0000000000D+00
 P 9 1.00
     Exponent=  4.9218700000D+02 Coefficients=  4.7200000000D-04
     Exponent=  9.2364200000D+01 Coefficients=  5.4940000000D-03
     Exponent=  2.7071800000D+01 Coefficients= -8.8030000000D-02
     Exponent=  7.2653900000D+00 Coefficients=  3.4348500000D-01
     Exponent=  3.4848100000D+00 Coefficients=  5.1020800000D-01
     Exponent=  1.6404800000D+00 Coefficients=  2.4863100000D-01
     Exponent=  6.4857000000D-01 Coefficients=  2.2201000000D-02
     Exponent=  2.5640700000D-01 Coefficients= -4.1900000000D-04
     Exponent=  9.5304000000D-02 Coefficients=  6.5600000000D-04
 P 9 1.00
     Exponent=  4.9218700000D+02 Coefficients= -1.5800000000D-04
     Exponent=  9.2364200000D+01 Coefficients= -1.3440000000D-03
     Exponent=  2.7071800000D+01 Coefficients=  2.4616000000D-02
     Exponent=  7.2653900000D+00 Coefficients= -1.1253200000D-01
     Exponent=  3.4848100000D+00 Coefficients= -1.7977500000D-01
     Exponent=  1.6404800000D+00 Coefficients= -7.3661000000D-02
     Exponent=  6.4857000000D-01 Coefficients=  3.4873400000D-01
     Exponent=  2.5640700000D-01 Coefficients=  5.5794800000D-01
     Exponent=  9.5304000000D-02 Coefficients=  2.6645600000D-01
 P 1 1.00
     Exponent=  7.6660000000D-01 Coefficients=  1.0000000000D+00
 P 1 1.00
     Exponent=  1.1820000000D-01 Coefficients=  1.0000000000D+00
 P 1 1.00
     Exponent=  3.9600000000D-02 Coefficients=  1.0000000000D+00
 D 8 1.00
     Exponent=  3.3899600000D+02 Coefficients=  1.5240000000D-03
     Exponent=  1.0321700000D+02 Coefficients=  1.5673000000D-02
     Exponent=  4.2363800000D+01 Coefficients=  7.2400000000D-02
     Exponent=  1.8435600000D+01 Coefficients=  1.8630300000D-01
     Exponent=  8.3725400000D+00 Coefficients=  3.2388100000D-01
     Exponent=  3.8022200000D+00 Coefficients=  3.7453400000D-01
     Exponent=  1.6867700000D+00 Coefficients=  2.5741800000D-01
     Exponent=  6.7752000000D-01 Coefficients=  6.8051000000D-02
 D 1 1.00
     Exponent=  6.7752000000D-01 Coefficients=  1.0000000000D+00
 D 1 1.00
     Exponent=  2.5530000000D-01 Coefficients=  1.0000000000D+00
 D 1 1.00
     Exponent=  1.0090000000D-01 Coefficients=  1.0000000000D+00
 F 1 1.00
     Exponent=  5.6060000000D-01 Coefficients=  1.0000000000D+00
 F 1 1.00
     Exponent=  2.4540000000D-01 Coefficients=  1.0000000000D+00
 ****
 ======================================================================================================
                                       Pseudopotential Parameters
 ======================================================================================================
  Center     Atomic      Valence      Angular      Power
  Number     Number     Electrons     Momentum     of R      Exponent        Coefficient   SO-Coeffient
 ======================================================================================================
    1          8
                                   No pseudopotential on this center.
    2         17
                                   No pseudopotential on this center.
    3         35           25
                                      G and up 
                                                     2        1.0000000        0.00000000    0.00000000
                                      S - G
                                                     2       70.0242570       49.96283400    0.00000000
                                                     2       31.1784120      370.01420500    0.00000000
                                                     2        7.1565930       10.24143900    0.00000000
                                      P - G
                                                     2       46.7734710       99.11224400    0.00000000
                                                     2       46.1841200      198.25304600    0.00000000
                                                     2       21.7138580       28.26174000    0.00000000
                                                     2       20.9417920       56.62336600    0.00000000
                                      D - G
                                                     2       50.6988390      -18.60585300    0.00000000
                                                     2       50.6447640      -27.92328000    0.00000000
                                                     2       15.4475090       -0.37969300    0.00000000
                                                     2       15.5002590       -0.78058300    0.00000000
                                                     2        2.8003910        0.03596800    0.00000000
                                                     2        1.0774800        0.09439700    0.00000000
                                      F - G
                                                     2       14.4656060       -1.09126900    0.00000000
                                                     2       21.2340650       -2.88769100    0.00000000
    4          1
                                   No pseudopotential on this center.
 ======================================================================================================
 Ernie: Thresh=  0.10000D-02 Tol=  0.10000D-05 Strict=F.
 Ernie:  25 primitive shells out of 163 were deleted.
   174 basis functions,   373 primitive gaussians,   204 cartesian basis functions
    26 alpha electrons       26 beta electrons
       nuclear repulsion energy       150.5156173978 Hartrees.
 IExCor=    0 DFT=F Ex=HF Corr=None ExCW=0 ScaHFX=  1.000000
 ScaDFX=  1.000000  1.000000  1.000000  1.000000 ScalE2=  1.000000  1.000000
 IRadAn=      5 IRanWt=     -1 IRanGd=            0 ICorTp=0 IEmpDi=  4
 NAtoms=    4 NActive=    4 NUniq=    4 SFac= 1.00D+00 NAtFMM=   60 NAOKFM=F Big=F
 Integral buffers will be    131072 words long.
 Raffenetti 1 integral format.
 Two-electron integral symmetry is turned off.
 Leave Link  301 at Tue Oct 19 14:35:58 2021, MaxMem= 16106127360 cpu:               2.0 elap:               0.1
 (Enter /sw/contrib/gaussian/g16/B01/g16/l302.exe)
 NPDir=0 NMtPBC=     1 NCelOv=     1 NCel=       1 NClECP=     1 NCelD=      1
         NCelK=      1 NCelE2=     1 NClLst=     1 CellRange=     0.0.
 One-electron integrals computed using PRISM.
   1 Symmetry operations used in ECPInt.
 ECPInt:  NShTT=    1596 NPrTT=    9902 LenC2=    1595 LenP2D=    7771.
 LDataN:  DoStor=T MaxTD1= 7 Len=  274
 NBasis=   174 RedAO= T EigKep=  2.89D-04  NBF=   174
 NBsUse=   174 1.00D-06 EigRej= -1.00D+00 NBFU=   174
 Leave Link  302 at Tue Oct 19 14:35:59 2021, MaxMem= 16106127360 cpu:               6.3 elap:               0.2
 (Enter /sw/contrib/gaussian/g16/B01/g16/l303.exe)
 DipDrv:  MaxL=1.
 Leave Link  303 at Tue Oct 19 14:35:59 2021, MaxMem= 16106127360 cpu:               0.6 elap:               0.0
 (Enter /sw/contrib/gaussian/g16/B01/g16/l401.exe)
 ExpMin= 2.53D-02 ExpMax= 4.56D+05 ExpMxC= 1.44D+03 IAcc=3 IRadAn=         5 AccDes= 0.00D+00
 Harris functional with IExCor=  205 and IRadAn=       5 diagonalized for initial guess.
 HarFok:  IExCor=  205 AccDes= 0.00D+00 IRadAn=         5 IDoV= 1 UseB2=F ITyADJ=14
 ICtDFT=  3500011 ScaDFX=  1.000000  1.000000  1.000000  1.000000
 FoFCou: FMM=F IPFlag=           0 FMFlag=      100000 FMFlg1=           0
         NFxFlg=           0 DoJE=T BraDBF=F KetDBF=T FulRan=T
         wScrn=  0.000000 ICntrl=       500 IOpCl=  0 I1Cent=   200000004 NGrid=           0
         NMat0=    1 NMatS0=      1 NMatT0=    0 NMatD0=    1 NMtDS0=    0 NMtDT0=    0
 Symmetry not used in FoFCou.
 Harris En= -951.904642301869    
 JPrj=0 DoOrth=F DoCkMO=F.
 Leave Link  401 at Tue Oct 19 14:35:59 2021, MaxMem= 16106127360 cpu:               6.7 elap:               0.3
 (Enter /sw/contrib/gaussian/g16/B01/g16/l502.exe)
 Keep R1 ints in memory in canonical form, NReq=152797356.
 FoFCou: FMM=F IPFlag=           0 FMFlag=           0 FMFlg1=           0
         NFxFlg=           0 DoJE=F BraDBF=F KetDBF=F FulRan=T
         wScrn=  0.000000 ICntrl=       600 IOpCl=  0 I1Cent=           0 NGrid=           0
         NMat0=    1 NMatS0=  15225 NMatT0=    0 NMatD0=    1 NMtDS0=    0 NMtDT0=    0
 Symmetry not used in FoFCou.
 Two-electron integral symmetry not used.
 Closed shell SCF:
 Using DIIS extrapolation, IDIIS=  1040.
 NGot= 16106127360 LenX= 15990129205 LenY= 15990087148
 Requested convergence on RMS density matrix=1.00D-08 within 128 cycles.
 Requested convergence on MAX density matrix=1.00D-06.
 Requested convergence on             energy=1.00D-06.
 No special actions if energy rises.

 Cycle   1  Pass 1  IDiag  1:
 E= -950.357233636453    
 DIIS: error= 3.04D-02 at cycle   1 NSaved=   1.
 NSaved= 1 IEnMin= 1 EnMin= -950.357233636453     IErMin= 1 ErrMin= 3.04D-02
 ErrMax= 3.04D-02  0.00D+00 EMaxC= 1.00D-01 BMatC= 3.32D-01 BMatP= 3.32D-01
 IDIUse=3 WtCom= 6.96D-01 WtEn= 3.04D-01
 Coeff-Com:  0.100D+01
 Coeff-En:   0.100D+01
 Coeff:      0.100D+01
 Gap=     0.547 Goal=   None    Shift=    0.000
 GapD=    0.547 DampG=2.000 DampE=0.500 DampFc=1.0000 IDamp=-1.
 RMSDP=3.47D-03 MaxDP=2.18D-01              OVMax= 1.27D-01

 Cycle   2  Pass 1  IDiag  1:
 E= -950.467531827717     Delta-E=       -0.110298191265 Rises=F Damp=F
 DIIS: error= 1.73D-02 at cycle   2 NSaved=   2.
 NSaved= 2 IEnMin= 2 EnMin= -950.467531827717     IErMin= 2 ErrMin= 1.73D-02
 ErrMax= 1.73D-02  0.00D+00 EMaxC= 1.00D-01 BMatC= 4.05D-02 BMatP= 3.32D-01
 IDIUse=3 WtCom= 8.27D-01 WtEn= 1.73D-01
 Coeff-Com:  0.172D+00 0.828D+00
 Coeff-En:   0.000D+00 0.100D+01
 Coeff:      0.142D+00 0.858D+00
 Gap=     0.378 Goal=   None    Shift=    0.000
 RMSDP=1.01D-03 MaxDP=4.08D-02 DE=-1.10D-01 OVMax= 6.87D-02

 Cycle   3  Pass 1  IDiag  1:
 E= -950.487044476545     Delta-E=       -0.019512648828 Rises=F Damp=F
 DIIS: error= 9.12D-03 at cycle   3 NSaved=   3.
 NSaved= 3 IEnMin= 3 EnMin= -950.487044476545     IErMin= 3 ErrMin= 9.12D-03
 ErrMax= 9.12D-03  0.00D+00 EMaxC= 1.00D-01 BMatC= 1.31D-02 BMatP= 4.05D-02
 IDIUse=3 WtCom= 9.09D-01 WtEn= 9.12D-02
 Coeff-Com: -0.121D-01 0.353D+00 0.660D+00
 Coeff-En:   0.000D+00 0.161D+00 0.839D+00
 Coeff:     -0.110D-01 0.335D+00 0.676D+00
 Gap=     0.361 Goal=   None    Shift=    0.000
 RMSDP=3.78D-04 MaxDP=1.48D-02 DE=-1.95D-02 OVMax= 3.59D-02

 Cycle   4  Pass 1  IDiag  1:
 E= -950.496141757730     Delta-E=       -0.009097281185 Rises=F Damp=F
 DIIS: error= 1.53D-03 at cycle   4 NSaved=   4.
 NSaved= 4 IEnMin= 4 EnMin= -950.496141757730     IErMin= 4 ErrMin= 1.53D-03
 ErrMax= 1.53D-03  0.00D+00 EMaxC= 1.00D-01 BMatC= 2.70D-04 BMatP= 1.31D-02
 IDIUse=3 WtCom= 9.85D-01 WtEn= 1.53D-02
 Coeff-Com: -0.492D-02 0.398D-01 0.147D+00 0.818D+00
 Coeff-En:   0.000D+00 0.000D+00 0.000D+00 0.100D+01
 Coeff:     -0.485D-02 0.392D-01 0.145D+00 0.821D+00
 Gap=     0.357 Goal=   None    Shift=    0.000
 RMSDP=7.91D-05 MaxDP=2.38D-03 DE=-9.10D-03 OVMax= 5.08D-03

 Cycle   5  Pass 1  IDiag  1:
 E= -950.496425381232     Delta-E=       -0.000283623502 Rises=F Damp=F
 DIIS: error= 2.75D-04 at cycle   5 NSaved=   5.
 NSaved= 5 IEnMin= 5 EnMin= -950.496425381232     IErMin= 5 ErrMin= 2.75D-04
 ErrMax= 2.75D-04  0.00D+00 EMaxC= 1.00D-01 BMatC= 3.03D-05 BMatP= 2.70D-04
 IDIUse=3 WtCom= 9.97D-01 WtEn= 2.75D-03
 Coeff-Com:  0.342D-04-0.435D-01-0.716D-01 0.630D-01 0.105D+01
 Coeff-En:   0.000D+00 0.000D+00 0.000D+00 0.000D+00 0.100D+01
 Coeff:      0.341D-04-0.434D-01-0.714D-01 0.628D-01 0.105D+01
 Gap=     0.357 Goal=   None    Shift=    0.000
 RMSDP=4.67D-05 MaxDP=1.63D-03 DE=-2.84D-04 OVMax= 4.28D-03

 Cycle   6  Pass 1  IDiag  1:
 E= -950.496499761386     Delta-E=       -0.000074380154 Rises=F Damp=F
 DIIS: error= 1.44D-04 at cycle   6 NSaved=   6.
 NSaved= 6 IEnMin= 6 EnMin= -950.496499761386     IErMin= 6 ErrMin= 1.44D-04
 ErrMax= 1.44D-04  0.00D+00 EMaxC= 1.00D-01 BMatC= 4.15D-06 BMatP= 3.03D-05
 IDIUse=3 WtCom= 9.99D-01 WtEn= 1.44D-03
 Coeff-Com:  0.103D-02 0.285D-02 0.196D-02-0.947D-01-0.371D+00 0.146D+01
 Coeff-En:   0.000D+00 0.000D+00 0.000D+00 0.000D+00 0.000D+00 0.100D+01
 Coeff:      0.103D-02 0.285D-02 0.195D-02-0.946D-01-0.371D+00 0.146D+01
 Gap=     0.358 Goal=   None    Shift=    0.000
 RMSDP=2.74D-05 MaxDP=9.51D-04 DE=-7.44D-05 OVMax= 2.63D-03

 Cycle   7  Pass 1  IDiag  1:
 E= -950.496516911550     Delta-E=       -0.000017150164 Rises=F Damp=F
 DIIS: error= 5.19D-05 at cycle   7 NSaved=   7.
 NSaved= 7 IEnMin= 7 EnMin= -950.496516911550     IErMin= 7 ErrMin= 5.19D-05
 ErrMax= 5.19D-05  0.00D+00 EMaxC= 1.00D-01 BMatC= 2.66D-07 BMatP= 4.15D-06
 IDIUse=1 WtCom= 1.00D+00 WtEn= 0.00D+00
 Coeff-Com: -0.372D-03 0.263D-02 0.614D-02 0.213D-01 0.532D-01-0.523D+00
 Coeff-Com:  0.144D+01
 Coeff:     -0.372D-03 0.263D-02 0.614D-02 0.213D-01 0.532D-01-0.523D+00
 Coeff:      0.144D+01
 Gap=     0.358 Goal=   None    Shift=    0.000
 RMSDP=8.19D-06 MaxDP=3.60D-04 DE=-1.72D-05 OVMax= 7.83D-04

 Cycle   8  Pass 1  IDiag  1:
 E= -950.496518069580     Delta-E=       -0.000001158030 Rises=F Damp=F
 DIIS: error= 7.47D-06 at cycle   8 NSaved=   8.
 NSaved= 8 IEnMin= 8 EnMin= -950.496518069580     IErMin= 8 ErrMin= 7.47D-06
 ErrMax= 7.47D-06  0.00D+00 EMaxC= 1.00D-01 BMatC= 1.31D-08 BMatP= 2.66D-07
 IDIUse=1 WtCom= 1.00D+00 WtEn= 0.00D+00
 Coeff-Com: -0.504D-04-0.352D-03-0.134D-03 0.636D-02 0.267D-01-0.115D+00
 Coeff-Com:  0.869D-01 0.996D+00
 Coeff:     -0.504D-04-0.352D-03-0.134D-03 0.636D-02 0.267D-01-0.115D+00
 Coeff:      0.869D-01 0.996D+00
 Gap=     0.358 Goal=   None    Shift=    0.000
 RMSDP=1.24D-06 MaxDP=6.68D-05 DE=-1.16D-06 OVMax= 9.84D-05

 Cycle   9  Pass 1  IDiag  1:
 E= -950.496518100588     Delta-E=       -0.000000031008 Rises=F Damp=F
 DIIS: error= 1.92D-06 at cycle   9 NSaved=   9.
 NSaved= 9 IEnMin= 9 EnMin= -950.496518100588     IErMin= 9 ErrMin= 1.92D-06
 ErrMax= 1.92D-06  0.00D+00 EMaxC= 1.00D-01 BMatC= 1.09D-09 BMatP= 1.31D-08
 IDIUse=1 WtCom= 1.00D+00 WtEn= 0.00D+00
 Coeff-Com:  0.226D-04-0.232D-03-0.381D-03-0.139D-02-0.568D-02 0.446D-01
 Coeff-Com: -0.123D+00-0.885D-02 0.109D+01
 Coeff:      0.226D-04-0.232D-03-0.381D-03-0.139D-02-0.568D-02 0.446D-01
 Coeff:     -0.123D+00-0.885D-02 0.109D+01
 Gap=     0.358 Goal=   None    Shift=    0.000
 RMSDP=4.43D-07 MaxDP=2.50D-05 DE=-3.10D-08 OVMax= 2.66D-05

 Cycle  10  Pass 1  IDiag  1:
 E= -950.496518103764     Delta-E=       -0.000000003176 Rises=F Damp=F
 DIIS: error= 9.86D-07 at cycle  10 NSaved=  10.
 NSaved=10 IEnMin=10 EnMin= -950.496518103764     IErMin=10 ErrMin= 9.86D-07
 ErrMax= 9.86D-07  0.00D+00 EMaxC= 1.00D-01 BMatC= 1.27D-10 BMatP= 1.09D-09
 IDIUse=1 WtCom= 1.00D+00 WtEn= 0.00D+00
 Coeff-Com: -0.298D-05 0.887D-04 0.118D-03-0.173D-03 0.238D-03-0.545D-02
 Coeff-Com:  0.301D-01-0.710D-01-0.299D+00 0.134D+01
 Coeff:     -0.298D-05 0.887D-04 0.118D-03-0.173D-03 0.238D-03-0.545D-02
 Coeff:      0.301D-01-0.710D-01-0.299D+00 0.134D+01
 Gap=     0.358 Goal=   None    Shift=    0.000
 RMSDP=1.82D-07 MaxDP=6.88D-06 DE=-3.18D-09 OVMax= 1.34D-05

 Cycle  11  Pass 1  IDiag  1:
 E= -950.496518104366     Delta-E=       -0.000000000602 Rises=F Damp=F
 DIIS: error= 5.37D-07 at cycle  11 NSaved=  11.
 NSaved=11 IEnMin=11 EnMin= -950.496518104366     IErMin=11 ErrMin= 5.37D-07
 ErrMax= 5.37D-07  0.00D+00 EMaxC= 1.00D-01 BMatC= 2.61D-11 BMatP= 1.27D-10
 IDIUse=1 WtCom= 1.00D+00 WtEn= 0.00D+00
 Coeff-Com: -0.204D-05-0.932D-05-0.460D-07 0.336D-03 0.594D-03-0.384D-02
 Coeff-Com:  0.391D-02 0.288D-01 0.141D-01-0.747D+00 0.170D+01
 Coeff:     -0.204D-05-0.932D-05-0.460D-07 0.336D-03 0.594D-03-0.384D-02
 Coeff:      0.391D-02 0.288D-01 0.141D-01-0.747D+00 0.170D+01
 Gap=     0.358 Goal=   None    Shift=    0.000
 RMSDP=1.10D-07 MaxDP=2.39D-06 DE=-6.02D-10 OVMax= 9.48D-06

 Cycle  12  Pass 1  IDiag  1:
 E= -950.496518104535     Delta-E=       -0.000000000168 Rises=F Damp=F
 DIIS: error= 1.53D-07 at cycle  12 NSaved=  12.
 NSaved=12 IEnMin=12 EnMin= -950.496518104535     IErMin=12 ErrMin= 1.53D-07
 ErrMax= 1.53D-07  0.00D+00 EMaxC= 1.00D-01 BMatC= 2.50D-12 BMatP= 2.61D-11
 IDIUse=1 WtCom= 1.00D+00 WtEn= 0.00D+00
 Coeff-Com: -0.166D-06-0.125D-04-0.134D-04 0.727D-04 0.405D-04 0.228D-03
 Coeff-Com: -0.351D-02 0.122D-01 0.477D-01-0.252D+00 0.625D-01 0.113D+01
 Coeff:     -0.166D-06-0.125D-04-0.134D-04 0.727D-04 0.405D-04 0.228D-03
 Coeff:     -0.351D-02 0.122D-01 0.477D-01-0.252D+00 0.625D-01 0.113D+01
 Gap=     0.358 Goal=   None    Shift=    0.000
 RMSDP=3.52D-08 MaxDP=7.68D-07 DE=-1.68D-10 OVMax= 3.10D-06

 Cycle  13  Pass 1  IDiag  1:
 E= -950.496518104545     Delta-E=       -0.000000000011 Rises=F Damp=F
 DIIS: error= 2.96D-08 at cycle  13 NSaved=  13.
 NSaved=13 IEnMin=13 EnMin= -950.496518104545     IErMin=13 ErrMin= 2.96D-08
 ErrMax= 2.96D-08  0.00D+00 EMaxC= 1.00D-01 BMatC= 1.24D-13 BMatP= 2.50D-12
 IDIUse=1 WtCom= 1.00D+00 WtEn= 0.00D+00
 Coeff-Com:  0.254D-06 0.172D-05 0.279D-06-0.394D-04-0.524D-04 0.327D-03
 Coeff-Com: -0.880D-04-0.357D-02-0.543D-02 0.865D-01-0.134D+00-0.164D+00
 Coeff-Com:  0.122D+01
 Coeff:      0.254D-06 0.172D-05 0.279D-06-0.394D-04-0.524D-04 0.327D-03
 Coeff:     -0.880D-04-0.357D-02-0.543D-02 0.865D-01-0.134D+00-0.164D+00
 Coeff:      0.122D+01
 Gap=     0.358 Goal=   None    Shift=    0.000
 RMSDP=8.42D-09 MaxDP=4.55D-07 DE=-1.09D-11 OVMax= 5.98D-07

 SCF Done:  E(RHF) =  -950.496518105     A.U. after   13 cycles
            NFock= 13  Conv=0.84D-08     -V/T= 2.1446
 KE= 8.304057719886D+02 PE=-2.611517873000D+03 EE= 6.800999655087D+02
 Leave Link  502 at Tue Oct 19 14:36:03 2021, MaxMem= 16106127360 cpu:              35.8 elap:               3.7
 (Enter /sw/contrib/gaussian/g16/B01/g16/l801.exe)
 ExpMin= 2.53D-02 ExpMax= 4.56D+05 ExpMxC= 1.44D+03 IAcc=3 IRadAn=         5 AccDes= 0.00D+00
 HarFok:  IExCor=  205 AccDes= 0.00D+00 IRadAn=         5 IDoV=-2 UseB2=F ITyADJ=14
 ICtDFT= 12500011 ScaDFX=  1.000000  1.000000  1.000000  1.000000
 DSYEVD-2 returned Info=          83 IAlg= 4 N=    55 NDim=    55 NE2=   292836799 trying  DSYEV.
 Largest valence mixing into a core orbital is  4.46D-04
 Largest core mixing into a valence orbital is  1.53D-04
 Range of M.O.s used for correlation:    11   174
 NBasis=   174 NAE=    26 NBE=    26 NFC=    10 NFV=     0
 NROrb=    164 NOA=    16 NOB=    16 NVA=   148 NVB=   148

 **** Warning!!: The largest alpha MO coefficient is  0.14360683D+02

 Leave Link  801 at Tue Oct 19 14:36:03 2021, MaxMem= 16106127360 cpu:               2.1 elap:               0.1
 (Enter /sw/contrib/gaussian/g16/B01/g16/l906.exe)
 Frozen-core derivative calculation, NFC=  10 NFV=   0.
 FulOut=F Deriv=T AODrv=F NAtomX=     4
   MMem=         130  MDisk=          16 MDiskD=          16
  W3Min=      922896 MinDsk=     1491158 NBas6D=         204
 NBas2D=       21411    NTT=       20910    LW2=    16556320
    MDV= 16105732718 MDiskM=      394699 NBas2p=       21383
 Fully in-core method, ICMem=   510791049.
 IMap=   1   2   3   4   5   6   7   8   9  10  11  12  13  14  15  16  17  18  19  20
 IMap=  21  22  23  24  25  26
 JobTyp=1 Pass  1 fully in-core, NPsUse= 28.
 Compute canonical integrals.
 FoFCou: FMM=F IPFlag=           0 FMFlag=           0 FMFlg1=           0
         NFxFlg=           0 DoJE=F BraDBF=F KetDBF=F FulRan=T
         wScrn=  0.000000 ICntrl=       600 IOpCl=  1 I1Cent=           0 NGrid=           0
         NMat0=    1 NMatS0=  21411 NMatT0=    0 NMatD0=    1 NMtDS0=    0 NMtDT0=    0
 Symmetry not used in FoFCou.
 Spin components of T(2) and E(2):
     alpha-alpha T2 =       0.3178607558D-01 E2=     -0.9614619396D-01
     alpha-beta  T2 =       0.1674004683D+00 E2=     -0.5233586807D+00
     beta-beta   T2 =       0.3178607558D-01 E2=     -0.9614619396D-01
 The integrals were generated   1 times.
 ANorm=    0.1109492055D+01
 E2 =    -0.7156510686D+00 EUMP2 =    -0.95121216917313D+03
 Leave Link  906 at Tue Oct 19 14:36:08 2021, MaxMem= 16106127360 cpu:             158.9 elap:               5.7
 (Enter /sw/contrib/gaussian/g16/B01/g16/l1002.exe)
 Minotr:  Closed shell wavefunction.
          Computing MP2/KS-MP2 derivatives.
          Using Z-Vector for PSCF gradient.
          Skipping F1 and S1 gradient terms here.
          Frozen-core window.
          Direct CPHF calculation.
          Differentiating once with respect to electric field.
                with respect to dipole field.
          Electric field/nuclear overlap derivatives assumed to be zero.
          Requested convergence is 1.0D-10 RMS, and 1.0D-09 maximum.
          NewPWx=F KeepS1=T KeepF1=T KeepIn=T MapXYZ=F SortEE=F KeepMc=T.
 Keep R1 ints in memory in canonical form, NReq=152802113.
 FoFCou: FMM=F IPFlag=           0 FMFlag=           0 FMFlg1=           0
         NFxFlg=           0 DoJE=F BraDBF=F KetDBF=F FulRan=T
         wScrn=  0.000000 ICntrl=       600 IOpCl=  0 I1Cent=           0 NGrid=           0
         NMat0=    1 NMatS0=  15225 NMatT0=    0 NMatD0=    1 NMtDS0=    0 NMtDT0=    0
 Symmetry not used in FoFCou.
 Two-electron integral symmetry not used.
          MDV=   16106127360 using IRadAn=       5.
          Solving linear equations separately, MaxMat=       0.
          There are     1 degrees of freedom in the 1st order CPHF.  IDoFFX=0 NUNeed=     1.
 LinEq1:  Iter=  0 NonCon=     1 RMS=3.27D-03 Max=5.42D-02 NDo=     1
 AX will form     1 AO Fock derivatives at one time.
 LinEq1:  Iter=  1 NonCon=     1 RMS=5.33D-04 Max=6.62D-03 NDo=     1
 LinEq1:  Iter=  2 NonCon=     1 RMS=2.35D-04 Max=3.06D-03 NDo=     1
 LinEq1:  Iter=  3 NonCon=     1 RMS=8.16D-05 Max=1.25D-03 NDo=     1
 LinEq1:  Iter=  4 NonCon=     1 RMS=3.09D-05 Max=5.57D-04 NDo=     1
 LinEq1:  Iter=  5 NonCon=     1 RMS=1.26D-05 Max=1.87D-04 NDo=     1
 LinEq1:  Iter=  6 NonCon=     1 RMS=2.57D-06 Max=2.62D-05 NDo=     1
 LinEq1:  Iter=  7 NonCon=     1 RMS=6.42D-07 Max=9.56D-06 NDo=     1
 LinEq1:  Iter=  8 NonCon=     1 RMS=1.80D-07 Max=1.96D-06 NDo=     1
 LinEq1:  Iter=  9 NonCon=     1 RMS=5.89D-08 Max=6.69D-07 NDo=     1
 LinEq1:  Iter= 10 NonCon=     1 RMS=1.78D-08 Max=3.28D-07 NDo=     1
 LinEq1:  Iter= 11 NonCon=     1 RMS=4.55D-09 Max=5.92D-08 NDo=     1
 LinEq1:  Iter= 12 NonCon=     1 RMS=6.98D-10 Max=7.90D-09 NDo=     1
 LinEq1:  Iter= 13 NonCon=     1 RMS=1.25D-10 Max=1.95D-09 NDo=     1
 LinEq1:  Iter= 14 NonCon=     0 RMS=3.31D-11 Max=4.52D-10 NDo=     1
 Linear equations converged to 1.000D-10 1.000D-09 after    14 iterations.
 End of Minotr F.D. properties file   721 does not exist.
 End of Minotr F.D. properties file   722 does not exist.
 End of Minotr F.D. properties file   788 does not exist.
 Leave Link 1002 at Tue Oct 19 14:36:13 2021, MaxMem= 16106127360 cpu:              37.4 elap:               4.3
 (Enter /sw/contrib/gaussian/g16/B01/g16/l601.exe)
 Copying SCF densities to generalized density rwf, IOpCl= 0 IROHF=0.

 **********************************************************************

            Population analysis using the MP2 Density.

 **********************************************************************

 Alpha  occ. eigenvalues -- -104.70260 -20.42582 -10.42228  -9.58756  -7.88940
 Alpha  occ. eigenvalues --   -7.88704  -7.88696  -7.33634  -7.33450  -7.33448
 Alpha  occ. eigenvalues --   -2.88752  -2.88672  -2.88670  -2.88483  -2.88482
 Alpha  occ. eigenvalues --   -1.16592  -0.85493  -0.78896  -0.47053  -0.40481
 Alpha  occ. eigenvalues --   -0.39621  -0.28426  -0.24844  -0.20588  -0.19952
 Alpha  occ. eigenvalues --   -0.19905
 Alpha virt. eigenvalues --    0.15885   0.19037   0.22367   0.23742   0.24927
 Alpha virt. eigenvalues --    0.25909   0.26213   0.29682   0.31209   0.32512
 Alpha virt. eigenvalues --    0.33243   0.33555   0.36523   0.43444   0.43459
 Alpha virt. eigenvalues --    0.45517   0.45638   0.47808   0.49501   0.54609
 Alpha virt. eigenvalues --    0.55160   0.57218   0.58672   0.59628   0.61373
 Alpha virt. eigenvalues --    0.61731   0.67370   0.69850   0.74780   0.79175
 Alpha virt. eigenvalues --    0.80567   0.81227   0.82398   0.85754   0.91400
 Alpha virt. eigenvalues --    0.92475   0.92861   0.94859   0.96328   0.96892
 Alpha virt. eigenvalues --    0.99641   1.00886   1.01622   1.03287   1.04533
 Alpha virt. eigenvalues --    1.05572   1.10126   1.10864   1.12300   1.13414
 Alpha virt. eigenvalues --    1.13601   1.16713   1.17546   1.22321   1.23075
 Alpha virt. eigenvalues --    1.23903   1.28478   1.30937   1.33284   1.33480
 Alpha virt. eigenvalues --    1.34764   1.40232   1.46063   1.48566   1.50468
 Alpha virt. eigenvalues --    1.55540   1.60452   1.62944   1.68432   1.71835
 Alpha virt. eigenvalues --    1.73094   1.75953   1.77814   1.84384   1.88927
 Alpha virt. eigenvalues --    2.00658   2.18453   2.31590   2.41137   2.43757
 Alpha virt. eigenvalues --    2.44248   2.48456   2.48785   2.50792   2.51375
 Alpha virt. eigenvalues --    2.51597   2.52712   2.53566   2.55151   2.56344
 Alpha virt. eigenvalues --    2.56378   2.60088   2.60150   2.61643   2.64516
 Alpha virt. eigenvalues --    2.65414   2.69199   2.70106   2.71501   2.74538
 Alpha virt. eigenvalues --    2.74693   2.78295   2.80508   2.85749   2.89380
 Alpha virt. eigenvalues --    2.91440   3.10412   3.10959   3.19105   3.20001
 Alpha virt. eigenvalues --    3.22329   3.26191   3.26434   3.32372   3.32518
 Alpha virt. eigenvalues --    3.38005   3.54848   3.56731   3.59153   3.63323
 Alpha virt. eigenvalues --    3.93100   4.17921   4.19656   4.35386   4.40751
 Alpha virt. eigenvalues --    4.53674   4.67508   4.75156   4.80484   4.85694
 Alpha virt. eigenvalues --    5.17198   5.41240   6.39834   6.55032   6.85626
 Alpha virt. eigenvalues --    6.90901   6.94846   7.00388   7.07580   7.16421
 Alpha virt. eigenvalues --    7.37513   7.40307   7.56048   7.61768   7.93806
 Alpha virt. eigenvalues --    8.12365  12.84256  79.85657
          Condensed to atoms (all electrons):
               1          2          3          4
     1  O    8.681171  -0.135416  -0.133597   0.146766
     2  Cl  -0.135416  17.137679   0.018894  -0.027771
     3  Br  -0.133597   0.018894  25.789262   0.010246
     4  H    0.146766  -0.027771   0.010246   0.633645
 Mulliken charges:
               1
     1  O   -0.558923
     2  Cl   0.006613
     3  Br  -0.684805
     4  H    0.237115
 Sum of Mulliken charges =  -1.00000
 Mulliken charges with hydrogens summed into heavy atoms:
               1
     1  O   -0.321809
     2  Cl   0.006613
     3  Br  -0.684805
 Electronic spatial extent (au):  <R**2>=           1135.6260
 Charge=             -1.0000 electrons
 Dipole moment (field-independent basis, Debye):
    X=              0.8364    Y=              8.3348    Z=             -0.0000  Tot=              8.3766
 Quadrupole moment (field-independent basis, Debye-Ang):
   XX=            -45.5711   YY=            -69.8648   ZZ=            -42.6080
   XY=             -6.8941   XZ=             -0.0000   YZ=             -0.0000
 Traceless Quadrupole moment (field-independent basis, Debye-Ang):
   XX=              7.1102   YY=            -17.1835   ZZ=             10.0733
   XY=             -6.8941   XZ=             -0.0000   YZ=             -0.0000
 Octapole moment (field-independent basis, Debye-Ang**2):
  XXX=            -20.4212  YYY=            278.4253  ZZZ=             -0.0000  XYY=             12.3554
  XXY=             70.4094  XXZ=             -0.0000  XZZ=             -7.6851  YZZ=             65.7609
  YYZ=              0.0000  XYZ=             -0.0000
 Hexadecapole moment (field-independent basis, Debye-Ang**3):
 XXXX=           -345.4869 YYYY=          -1451.8416 ZZZZ=            -59.4291 XXXY=           -144.2713
 XXXZ=             -0.0000 YYYX=           -195.5661 YYYZ=             -0.0000 ZZZX=             -0.0000
 ZZZY=             -0.0000 XXYY=           -279.4589 XXZZ=            -71.6442 YYZZ=           -214.8660
 XXYZ=             -0.0000 YYXZ=              0.0000 ZZXY=            -46.9898
 N-N= 1.505156173978D+02 E-N=-2.610284377972D+03  KE= 8.302425645329D+02
 No NMR shielding tensors so no spin-rotation constants.
 Leave Link  601 at Tue Oct 19 14:36:13 2021, MaxMem= 16106127360 cpu:               4.7 elap:               0.2
 (Enter /sw/contrib/gaussian/g16/B01/g16/l607.exe)
 ******************************Gaussian NBO Version 3.1******************************
             N A T U R A L   A T O M I C   O R B I T A L   A N D
          N A T U R A L   B O N D   O R B I T A L   A N A L Y S I S
 ******************************Gaussian NBO Version 3.1******************************
       /RESON  / : Allow strongly delocalized NBO set

 Analyzing the MP2 density

 Job title: title                                                           

 Storage needed:     91686 in NPA,    121697 in NBO (********** available)
 GSVD:  LWork=        2436 too small for GESVD, short by       52200 words or       52200 for optimal perf.


 NATURAL POPULATIONS:  Natural atomic orbital occupancies 
                                                          
   NAO  Atom  No  lang   Type(AO)    Occupancy
 --------------------------------------------
     1    O    1  S      Cor( 1S)     1.99981
     2    O    1  S      Val( 2S)     1.83680
     3    O    1  S      Ryd( 3S)     0.01159
     4    O    1  S      Ryd( 4S)     0.00120
     5    O    1  S      Ryd( 5S)     0.00018
     6    O    1  px     Val( 2p)     1.18191
     7    O    1  px     Ryd( 3p)     0.00781
     8    O    1  px     Ryd( 4p)     0.00067
     9    O    1  px     Ryd( 5p)     0.00062
    10    O    1  py     Val( 2p)     1.73894
    11    O    1  py     Ryd( 3p)     0.01439
    12    O    1  py     Ryd( 4p)     0.00067
    13    O    1  py     Ryd( 5p)     0.00040
    14    O    1  pz     Val( 2p)     1.94521
    15    O    1  pz     Ryd( 3p)     0.02233
    16    O    1  pz     Ryd( 4p)     0.00061
    17    O    1  pz     Ryd( 5p)     0.00014
    18    O    1  dxy    Ryd( 3d)     0.00849
    19    O    1  dxy    Ryd( 4d)     0.00053
    20    O    1  dxy    Ryd( 5d)     0.00013
    21    O    1  dxz    Ryd( 3d)     0.00884
    22    O    1  dxz    Ryd( 4d)     0.00061
    23    O    1  dxz    Ryd( 5d)     0.00010
    24    O    1  dyz    Ryd( 3d)     0.00693
    25    O    1  dyz    Ryd( 4d)     0.00067
    26    O    1  dyz    Ryd( 5d)     0.00028
    27    O    1  dx2y2  Ryd( 3d)     0.01131
    28    O    1  dx2y2  Ryd( 4d)     0.00042
    29    O    1  dx2y2  Ryd( 5d)     0.00015
    30    O    1  dz2    Ryd( 3d)     0.00842
    31    O    1  dz2    Ryd( 4d)     0.00064
    32    O    1  dz2    Ryd( 5d)     0.00016
    33    O    1  f(0)   Ryd( 4f)     0.00067
    34    O    1  f(0)   Ryd( 5f)     0.00011
    35    O    1  f(C1)  Ryd( 4f)     0.00066
    36    O    1  f(C1)  Ryd( 5f)     0.00012
    37    O    1  f(S1)  Ryd( 4f)     0.00063
    38    O    1  f(S1)  Ryd( 5f)     0.00012
    39    O    1  f(C2)  Ryd( 4f)     0.00065
    40    O    1  f(C2)  Ryd( 5f)     0.00013
    41    O    1  f(S2)  Ryd( 4f)     0.00055
    42    O    1  f(S2)  Ryd( 5f)     0.00012
    43    O    1  f(C3)  Ryd( 4f)     0.00064
    44    O    1  f(C3)  Ryd( 5f)     0.00014
    45    O    1  f(S3)  Ryd( 4f)     0.00060
    46    O    1  f(S3)  Ryd( 5f)     0.00012

    47   Cl    2  S      Cor( 1S)     2.00000
    48   Cl    2  S      Cor( 2S)     1.99975
    49   Cl    2  S      Val( 3S)     1.87675
    50   Cl    2  S      Ryd( 4S)     0.00855
    51   Cl    2  S      Ryd( 5S)     0.00056
    52   Cl    2  S      Ryd( 6S)     0.00018
    53   Cl    2  px     Cor( 2p)     1.99995
    54   Cl    2  px     Val( 3p)     0.93762
    55   Cl    2  px     Ryd( 4p)     0.00702
    56   Cl    2  px     Ryd( 5p)     0.00055
    57   Cl    2  px     Ryd( 6p)     0.00022
    58   Cl    2  py     Cor( 2p)     2.00003
    59   Cl    2  py     Val( 3p)     1.95206
    60   Cl    2  py     Ryd( 4p)     0.01065
    61   Cl    2  py     Ryd( 5p)     0.00055
    62   Cl    2  py     Ryd( 6p)     0.00007
    63   Cl    2  pz     Cor( 2p)     2.00003
    64   Cl    2  pz     Val( 3p)     1.95349
    65   Cl    2  pz     Ryd( 4p)     0.01145
    66   Cl    2  pz     Ryd( 5p)     0.00072
    67   Cl    2  pz     Ryd( 6p)     0.00003
    68   Cl    2  dxy    Ryd( 3d)     0.01893
    69   Cl    2  dxy    Ryd( 4d)     0.00112
    70   Cl    2  dxy    Ryd( 5d)     0.00037
    71   Cl    2  dxz    Ryd( 3d)     0.02281
    72   Cl    2  dxz    Ryd( 4d)     0.00131
    73   Cl    2  dxz    Ryd( 5d)     0.00037
    74   Cl    2  dyz    Ryd( 3d)     0.01696
    75   Cl    2  dyz    Ryd( 4d)     0.00071
    76   Cl    2  dyz    Ryd( 5d)     0.00023
    77   Cl    2  dx2y2  Ryd( 3d)     0.01885
    78   Cl    2  dx2y2  Ryd( 4d)     0.00049
    79   Cl    2  dx2y2  Ryd( 5d)     0.00019
    80   Cl    2  dz2    Ryd( 3d)     0.01776
    81   Cl    2  dz2    Ryd( 4d)     0.00059
    82   Cl    2  dz2    Ryd( 5d)     0.00021
    83   Cl    2  f(0)   Ryd( 4f)     0.00132
    84   Cl    2  f(0)   Ryd( 5f)     0.00015
    85   Cl    2  f(C1)  Ryd( 4f)     0.00152
    86   Cl    2  f(C1)  Ryd( 5f)     0.00015
    87   Cl    2  f(S1)  Ryd( 4f)     0.00128
    88   Cl    2  f(S1)  Ryd( 5f)     0.00013
    89   Cl    2  f(C2)  Ryd( 4f)     0.00136
    90   Cl    2  f(C2)  Ryd( 5f)     0.00014
    91   Cl    2  f(S2)  Ryd( 4f)     0.00121
    92   Cl    2  f(S2)  Ryd( 5f)     0.00014
    93   Cl    2  f(C3)  Ryd( 4f)     0.00167
    94   Cl    2  f(C3)  Ryd( 5f)     0.00014
    95   Cl    2  f(S3)  Ryd( 4f)     0.00131
    96   Cl    2  f(S3)  Ryd( 5f)     0.00015

    97   Br    3  S      Cor( 3S)     1.99955
    98   Br    3  S      Val( 4S)     1.94084
    99   Br    3  S      Ryd( 5S)     0.00141
   100   Br    3  S      Ryd( 6S)     0.00047
   101   Br    3  S      Ryd( 7S)     0.00019
   102   Br    3  S      Ryd( 8S)     0.00000
   103   Br    3  px     Cor( 3p)     1.99996
   104   Br    3  px     Val( 4p)     1.94087
   105   Br    3  px     Ryd( 5p)     0.01038
   106   Br    3  px     Ryd( 6p)     0.00076
   107   Br    3  px     Ryd( 7p)     0.00013
   108   Br    3  py     Cor( 3p)     1.99983
   109   Br    3  py     Val( 4p)     1.72708
   110   Br    3  py     Ryd( 5p)     0.00868
   111   Br    3  py     Ryd( 6p)     0.00069
   112   Br    3  py     Ryd( 7p)     0.00014
   113   Br    3  pz     Cor( 3p)     1.99997
   114   Br    3  pz     Val( 4p)     1.95429
   115   Br    3  pz     Ryd( 5p)     0.01051
   116   Br    3  pz     Ryd( 6p)     0.00076
   117   Br    3  pz     Ryd( 7p)     0.00011
   118   Br    3  dxy    Cor( 3d)     1.99765
   119   Br    3  dxy    Ryd( 4d)     0.01825
   120   Br    3  dxy    Ryd( 5d)     0.00128
   121   Br    3  dxy    Ryd( 6d)     0.00021
   122   Br    3  dxz    Cor( 3d)     1.99770
   123   Br    3  dxz    Ryd( 4d)     0.01811
   124   Br    3  dxz    Ryd( 5d)     0.00165
   125   Br    3  dxz    Ryd( 6d)     0.00024
   126   Br    3  dyz    Cor( 3d)     1.99767
   127   Br    3  dyz    Ryd( 4d)     0.01822
   128   Br    3  dyz    Ryd( 5d)     0.00129
   129   Br    3  dyz    Ryd( 6d)     0.00021
   130   Br    3  dx2y2  Cor( 3d)     1.99759
   131   Br    3  dx2y2  Ryd( 4d)     0.01865
   132   Br    3  dx2y2  Ryd( 5d)     0.00146
   133   Br    3  dx2y2  Ryd( 6d)     0.00024
   134   Br    3  dz2    Cor( 3d)     1.99766
   135   Br    3  dz2    Ryd( 4d)     0.01836
   136   Br    3  dz2    Ryd( 5d)     0.00162
   137   Br    3  dz2    Ryd( 6d)     0.00018
   138   Br    3  f(0)   Ryd( 4f)     0.00169
   139   Br    3  f(0)   Ryd( 5f)     0.00025
   140   Br    3  f(C1)  Ryd( 4f)     0.00172
   141   Br    3  f(C1)  Ryd( 5f)     0.00024
   142   Br    3  f(S1)  Ryd( 4f)     0.00177
   143   Br    3  f(S1)  Ryd( 5f)     0.00029
   144   Br    3  f(C2)  Ryd( 4f)     0.00167
   145   Br    3  f(C2)  Ryd( 5f)     0.00025
   146   Br    3  f(S2)  Ryd( 4f)     0.00170
   147   Br    3  f(S2)  Ryd( 5f)     0.00025
   148   Br    3  f(C3)  Ryd( 4f)     0.00170
   149   Br    3  f(C3)  Ryd( 5f)     0.00027
   150   Br    3  f(S3)  Ryd( 4f)     0.00173
   151   Br    3  f(S3)  Ryd( 5f)     0.00028

   152    H    4  S      Val( 1S)     0.58588
   153    H    4  S      Ryd( 2S)     0.00557
   154    H    4  S      Ryd( 3S)     0.00079
   155    H    4  S      Ryd( 4S)     0.00020
   156    H    4  px     Ryd( 2p)     0.00473
   157    H    4  px     Ryd( 3p)     0.00050
   158    H    4  px     Ryd( 4p)     0.00012
   159    H    4  py     Ryd( 2p)     0.00502
   160    H    4  py     Ryd( 3p)     0.00152
   161    H    4  py     Ryd( 4p)     0.00021
   162    H    4  pz     Ryd( 2p)     0.00604
   163    H    4  pz     Ryd( 3p)     0.00038
   164    H    4  pz     Ryd( 4p)     0.00027
   165    H    4  dxy    Ryd( 3d)     0.00031
   166    H    4  dxy    Ryd( 4d)     0.00011
   167    H    4  dxz    Ryd( 3d)     0.00026
   168    H    4  dxz    Ryd( 4d)     0.00007
   169    H    4  dyz    Ryd( 3d)     0.00039
   170    H    4  dyz    Ryd( 4d)     0.00009
   171    H    4  dx2y2  Ryd( 3d)     0.00027
   172    H    4  dx2y2  Ryd( 4d)     0.00016
   173    H    4  dz2    Ryd( 3d)     0.00026
   174    H    4  dz2    Ryd( 4d)     0.00012

 [ 10 electrons found in the effective core potential]

 WARNING:  5 low occupancy (<1.9990e) core orbitals found on Br    3


 Summary of Natural Population Analysis:                  
                                                          
                                       Natural Population 
                Natural  -----------------------------------------------
    Atom  No    Charge         Core      Valence    Rydberg      Total
 -----------------------------------------------------------------------
      O    1   -0.81623      1.99981     6.70287    0.11356     8.81623
     Cl    2    0.12817      9.99976     6.71993    0.15214    16.87183
     Br    3   -0.69867     27.98758     7.56308    0.14801    35.69867
      H    4    0.38673      0.00000     0.58588    0.02738     0.61327
 =======================================================================
   * Total *   -1.00000     39.98715    21.57176    0.44109    62.00000

                                 Natural Population      
 --------------------------------------------------------
   Effective Core            10.00000
   Core                      29.98715 ( 99.9572% of  30)
   Valence                   21.57176 ( 98.0535% of  22)
   Natural Minimal Basis     61.55891 ( 99.2886% of  62)
   Natural Rydberg Basis      0.44109 (  0.7114% of  62)
 --------------------------------------------------------

    Atom  No          Natural Electron Configuration
 ----------------------------------------------------------------------------
      O    1      [core]2S( 1.84)2p( 4.87)3S( 0.01)3p( 0.04)3d( 0.04)
     Cl    2      [core]3S( 1.88)3p( 4.84)4S( 0.01)3d( 0.10)4p( 0.03)4f( 0.01)
     Br    3      [core]4S( 1.94)4p( 5.62)4d( 0.09)5p( 0.03)4f( 0.01)5d( 0.01)
      H    4            1S( 0.59)2S( 0.01)2p( 0.02)


 NATURAL BOND ORBITAL ANALYSIS:
 Warning:  a bond orbital has occupanc of -0.00014

                       Occupancies       Lewis Structure    Low   High
           Occ.    -------------------  -----------------   occ   occ
  Cycle   Thresh.   Lewis   Non-Lewis     CR  BD  3C  LP    (L)   (NL)   Dev
 =============================================================================
   1(1)    1.90    61.24262   0.75738     15   2   0   9     1      1    0.38
 Warning:  a bond orbital has occupanc of -0.00014
   2(2)    1.90    61.22420   0.77580     15   2   0   9     1      1    0.40
 Warning:  a bond orbital has occupanc of -0.00014
   3(3)    1.90    61.24262   0.75738     15   2   0   9     1      1    0.38
 Warning:  a bond orbital has occupanc of -0.00014
   4(1)    1.80    61.24262   0.75738     15   2   0   9     1      1    0.38
 Warning:  a bond orbital has occupanc of -0.00014
   5(2)    1.80    61.22420   0.77580     15   2   0   9     1      1    0.40
 Warning:  a bond orbital has occupanc of -0.00014
   6(3)    1.80    61.24262   0.75738     15   2   0   9     1      1    0.38
 Warning:  a bond orbital has occupanc of -0.00014
   7(1)    1.70    61.24262   0.75738     15   2   0   9     1      1    0.38
 Warning:  a bond orbital has occupanc of -0.00014
   8(2)    1.70    61.22420   0.77580     15   2   0   9     1      1    0.40
 Warning:  a bond orbital has occupanc of -0.00014
   9(3)    1.70    61.24262   0.75738     15   2   0   9     1      1    0.38
 Warning:  a bond orbital has occupanc of -0.00014
  10(1)    1.60    60.96179   1.03821     15   1   0  10     0      1    0.40
 Warning:  a bond orbital has occupanc of -0.00014
  11(2)    1.60    60.96179   1.03821     15   1   0  10     0      1    0.40
 Warning:  a bond orbital has occupanc of -0.00014
  12(1)    1.50    60.96179   1.03821     15   1   0  10     0      1    0.40
 Warning:  a bond orbital has occupanc of -0.00014
  13(2)    1.50    60.96179   1.03821     15   1   0  10     0      1    0.40
 Warning:  a bond orbital has occupanc of -0.00014
  14(1)    1.90    61.24262   0.75738     15   2   0   9     1      1    0.38
 -----------------------------------------------------------------------------

 Structure accepted: RESONANCE keyword permits strongly delocalized structure

 WARNING:  5 low occupancy (<1.9990e) core orbitals found on Br    3

 --------------------------------------------------------
   Effective Core           10.00000
   Core                     29.98714 ( 99.957% of  30)
   Valence Lewis            21.25548 ( 96.616% of  22)
  ==================       ============================
   Total Lewis              61.24262 ( 98.778% of  62)
  -----------------------------------------------------
   Valence non-Lewis         0.36138 (  0.583% of  62)
   Rydberg non-Lewis         0.39599 (  0.639% of  62)
  ==================       ============================
   Total non-Lewis           0.75738 (  1.222% of  62)
 --------------------------------------------------------


       (Occupancy)   Bond orbital/ Coefficients/ Hybrids
 ---------------------------------------------------------------------------------
     1. (1.93723) BD ( 1) O   1 -Cl   2  
                ( 57.54%)   0.7586* O   1 s( 10.37%)p 8.60( 89.13%)d 0.05(  0.49%)
                                                  f 0.00(  0.02%)
                                            0.0003  0.3167 -0.0554  0.0169 -0.0008
                                            0.9413 -0.0424 -0.0108 -0.0162 -0.0503
                                           -0.0230 -0.0040  0.0019  0.0000  0.0000
                                            0.0000  0.0000 -0.0154 -0.0017  0.0013
                                            0.0000  0.0000  0.0000  0.0000  0.0000
                                            0.0000  0.0543  0.0039  0.0020 -0.0410
                                           -0.0036  0.0000  0.0000  0.0000 -0.0107
                                            0.0009  0.0000  0.0000  0.0000  0.0000
                                            0.0000  0.0000  0.0078  0.0009 -0.0009
                                            0.0012
                ( 42.46%)   0.6516*Cl   2 s(  9.23%)p 9.70( 89.55%)d 0.12(  1.10%)
                                                  f 0.01(  0.12%)
                                           -0.0000  0.0006  0.2978 -0.0594 -0.0104
                                           -0.0026 -0.0004 -0.9438  0.0656  0.0137
                                           -0.0036 -0.0000 -0.0116 -0.0015  0.0032
                                           -0.0015  0.0000  0.0000  0.0000  0.0000
                                            0.0000  0.0132 -0.0002  0.0001  0.0000
                                            0.0000  0.0000  0.0000  0.0000  0.0000
                                            0.0870 -0.0124 -0.0017 -0.0552  0.0077
                                            0.0020  0.0000  0.0000  0.0219 -0.0029
                                            0.0006 -0.0001  0.0000  0.0000  0.0000
                                            0.0000 -0.0268  0.0029 -0.0022  0.0003
     2. (1.95314) BD ( 1) O   1 - H   4  
                ( 82.87%)   0.9103* O   1 s( 20.67%)p 3.82( 79.04%)d 0.01(  0.28%)
                                                  f 0.00(  0.01%)
                                           -0.0002 -0.4546 -0.0013 -0.0075 -0.0025
                                            0.1975 -0.0122 -0.0023 -0.0061  0.8666
                                            0.0091 -0.0021 -0.0040  0.0000  0.0000
                                            0.0000  0.0000  0.0118  0.0030  0.0006
                                            0.0000  0.0000  0.0000  0.0000  0.0000
                                            0.0000  0.0447  0.0057 -0.0012  0.0241
                                            0.0014 -0.0043  0.0000  0.0000 -0.0016
                                           -0.0004 -0.0087  0.0012  0.0000  0.0000
                                            0.0000  0.0000 -0.0021 -0.0008  0.0013
                                            0.0003
                ( 17.13%)   0.4139* H   4 s( 99.74%)p 0.00(  0.23%)d 0.00(  0.03%)
                                           -0.9982  0.0218 -0.0240  0.0008 -0.0076
                                           -0.0153  0.0023  0.0129 -0.0403 -0.0132
                                            0.0000  0.0000  0.0000 -0.0026 -0.0043
                                            0.0000  0.0000  0.0000  0.0000  0.0095
                                            0.0085  0.0035  0.0096
     3. (1.99981) CR ( 1) O   1           s(100.00%)p 0.00(  0.00%)
                                            1.0000 -0.0003  0.0000 -0.0000 -0.0000
                                           -0.0002  0.0000  0.0000  0.0000  0.0001
                                            0.0000 -0.0000 -0.0000  0.0000  0.0000
                                            0.0000  0.0000  0.0000  0.0000  0.0000
                                            0.0000  0.0000  0.0000  0.0000  0.0000
                                            0.0000 -0.0000  0.0000 -0.0000  0.0000
                                            0.0000 -0.0000  0.0000  0.0000  0.0000
                                           -0.0000 -0.0000  0.0000  0.0000  0.0000
                                            0.0000  0.0000 -0.0000 -0.0000 -0.0000
                                           -0.0000
     4. (2.00000) CR ( 1)Cl   2           s(100.00%)
                                            1.0000  0.0000 -0.0000 -0.0000 -0.0000
                                           -0.0000 -0.0000 -0.0000  0.0000  0.0000
                                           -0.0000 -0.0000 -0.0000 -0.0000  0.0000
                                           -0.0000  0.0000  0.0000  0.0000  0.0000
                                            0.0000  0.0000 -0.0000 -0.0000  0.0000
                                            0.0000  0.0000  0.0000  0.0000  0.0000
                                            0.0000 -0.0000 -0.0000 -0.0000  0.0000
                                            0.0000  0.0000  0.0000  0.0000 -0.0000
                                            0.0000 -0.0000  0.0000  0.0000  0.0000
                                            0.0000 -0.0000  0.0000 -0.0000  0.0000
     5. (1.99975) CR ( 2)Cl   2           s(100.00%)p 0.00(  0.00%)
                                            0.0000  1.0000 -0.0004  0.0000  0.0000
                                            0.0000  0.0000  0.0005 -0.0000 -0.0000
                                            0.0000 -0.0000  0.0000  0.0000 -0.0000
                                            0.0000  0.0000  0.0000  0.0000  0.0000
                                            0.0000 -0.0000  0.0000  0.0000  0.0000
                                            0.0000  0.0000  0.0000  0.0000  0.0000
                                           -0.0000  0.0000  0.0000  0.0000 -0.0000
                                           -0.0000  0.0000  0.0000 -0.0000  0.0000
                                           -0.0000  0.0000  0.0000  0.0000  0.0000
                                            0.0000  0.0000 -0.0000  0.0000 -0.0000
     6. (1.99995) CR ( 3)Cl   2           s(  0.00%)p 1.00(100.00%)
                                           -0.0000  0.0000  0.0001 -0.0000 -0.0000
                                           -0.0000  1.0000 -0.0004  0.0000  0.0000
                                           -0.0000  0.0000 -0.0000 -0.0000  0.0000
                                           -0.0000  0.0000  0.0000  0.0000  0.0000
                                            0.0000  0.0000 -0.0000 -0.0000  0.0000
                                            0.0000  0.0000  0.0000  0.0000  0.0000
                                            0.0000 -0.0000 -0.0000 -0.0000  0.0000
                                            0.0000  0.0000  0.0000  0.0000 -0.0000
                                            0.0000 -0.0000  0.0000  0.0000  0.0000
                                            0.0000 -0.0000  0.0000 -0.0000  0.0000
     7. (2.00003) CR ( 4)Cl   2           s(  0.00%)p 1.00(100.00%)
                                           -0.0000 -0.0000  0.0000  0.0000  0.0000
                                           -0.0000  0.0000 -0.0000  0.0000  0.0000
                                           -0.0000  1.0000  0.0002  0.0000  0.0000
                                            0.0000  0.0000  0.0000  0.0000  0.0000
                                            0.0000  0.0000  0.0000  0.0000  0.0000
                                            0.0000  0.0000  0.0000  0.0000  0.0000
                                           -0.0000 -0.0000 -0.0000 -0.0000 -0.0000
                                            0.0000  0.0000  0.0000  0.0000  0.0000
                                           -0.0000  0.0000  0.0000  0.0000  0.0000
                                            0.0000 -0.0000  0.0000  0.0000 -0.0000
     8. (2.00003) CR ( 5)Cl   2           s(  0.00%)p 1.00(100.00%)
                                            0.0000  0.0000  0.0000  0.0000  0.0000
                                            0.0000  0.0000  0.0000  0.0000  0.0000
                                            0.0000  0.0000  0.0000  0.0000  0.0000
                                            0.0000  1.0000  0.0002  0.0000  0.0000
                                           -0.0000  0.0000  0.0000  0.0000  0.0000
                                            0.0000  0.0000  0.0000  0.0000  0.0000
                                            0.0000  0.0000  0.0000  0.0000  0.0000
                                            0.0000 -0.0000  0.0000  0.0000  0.0000
                                            0.0000  0.0000  0.0000 -0.0000  0.0000
                                           -0.0000  0.0000  0.0000  0.0000  0.0000
     9. (1.99955) CR ( 1)Br   3           s(100.00%)p 0.00(  0.00%)
                                            1.0000 -0.0004 -0.0000 -0.0000  0.0000
                                            0.0000  0.0000  0.0000 -0.0000  0.0000
                                            0.0000  0.0000  0.0001 -0.0000  0.0000
                                            0.0000  0.0000  0.0000  0.0000  0.0000
                                            0.0000  0.0000  0.0000 -0.0000  0.0000
                                            0.0000  0.0000  0.0000  0.0000  0.0000
                                            0.0000  0.0000  0.0000 -0.0000 -0.0000
                                            0.0000 -0.0000 -0.0000 -0.0000  0.0000
                                           -0.0000  0.0000  0.0000 -0.0000 -0.0000
                                           -0.0000  0.0000  0.0000  0.0000  0.0000
                                            0.0000 -0.0000  0.0000 -0.0000  0.0000
    10. (1.99996) CR ( 2)Br   3           s(  0.00%)p 1.00(100.00%)
                                            0.0000  0.0001  0.0000  0.0000 -0.0000
                                            0.0000  1.0000 -0.0004 -0.0000 -0.0000
                                            0.0000  0.0000  0.0001  0.0000  0.0000
                                           -0.0000  0.0000  0.0000  0.0000  0.0000
                                            0.0000  0.0000 -0.0000  0.0000  0.0000
                                            0.0000  0.0000  0.0000  0.0000  0.0000
                                            0.0000  0.0000  0.0000  0.0000 -0.0000
                                           -0.0000  0.0000  0.0000  0.0000  0.0000
                                           -0.0000  0.0000  0.0000  0.0000  0.0000
                                           -0.0000 -0.0000  0.0000  0.0000  0.0000
                                            0.0000  0.0000  0.0000 -0.0000 -0.0000
    11. (1.99983) CR ( 3)Br   3           s(  0.00%)p 1.00(100.00%)
                                            0.0000  0.0002  0.0000  0.0000 -0.0000
                                           -0.0000  0.0000  0.0001  0.0000  0.0000
                                           -0.0000  1.0000 -0.0001  0.0000 -0.0000
                                           -0.0000  0.0000  0.0000  0.0000  0.0000
                                            0.0000 -0.0000  0.0000  0.0000 -0.0000
                                            0.0000  0.0000  0.0000  0.0000  0.0000
                                            0.0000  0.0000  0.0000  0.0000  0.0000
                                           -0.0000 -0.0000  0.0000  0.0000 -0.0000
                                            0.0000  0.0000  0.0000 -0.0000 -0.0000
                                            0.0000  0.0000  0.0000  0.0000  0.0000
                                            0.0000 -0.0000 -0.0000  0.0000  0.0000
    12. (1.99997) CR ( 4)Br   3           s(  0.00%)p 1.00(100.00%)
                                            0.0000  0.0000  0.0000  0.0000  0.0000
                                            0.0000  0.0000  0.0000  0.0000  0.0000
                                            0.0000  0.0000  0.0000  0.0000  0.0000
                                            0.0000  1.0000 -0.0004 -0.0000 -0.0000
                                            0.0000  0.0000  0.0000  0.0000  0.0000
                                            0.0000 -0.0000 -0.0000  0.0000  0.0000
                                           -0.0000  0.0000  0.0000  0.0000  0.0000
                                            0.0000  0.0000  0.0000  0.0000  0.0000
                                            0.0000  0.0000  0.0000  0.0000  0.0000
                                            0.0000  0.0000  0.0000  0.0000 -0.0000
                                           -0.0000  0.0000  0.0000  0.0000  0.0000
    13. (1.99765) CR ( 5)Br   3           s(  0.00%)p 0.00(  0.00%)d 1.00(100.00%)
                                            0.0000  0.0000  0.0000  0.0000 -0.0000
                                           -0.0000  0.0000  0.0000  0.0000  0.0000
                                           -0.0000 -0.0000 -0.0000  0.0000 -0.0000
                                           -0.0000  0.0000  0.0000  0.0000  0.0000
                                            0.0000  1.0000  0.0000 -0.0000 -0.0000
                                            0.0000  0.0000  0.0000  0.0000  0.0000
                                            0.0000  0.0000  0.0000  0.0000  0.0000
                                            0.0000 -0.0000  0.0000  0.0000 -0.0000
                                            0.0000  0.0000  0.0000 -0.0000 -0.0000
                                            0.0000  0.0000  0.0000  0.0000  0.0000
                                            0.0000 -0.0000 -0.0000  0.0000  0.0000
    14. (1.99770) CR ( 6)Br   3           s(  0.00%)p 0.00(  0.00%)d 1.00(100.00%)
                                            0.0000  0.0000  0.0000  0.0000  0.0000
                                            0.0000  0.0000  0.0000  0.0000  0.0000
                                            0.0000  0.0000  0.0000  0.0000  0.0000
                                            0.0000  0.0000  0.0000  0.0000  0.0000
                                           -0.0000  0.0000  0.0000  0.0000  0.0000
                                            1.0000  0.0000  0.0000 -0.0000 -0.0000
                                            0.0000 -0.0000 -0.0000  0.0000  0.0000
                                            0.0000  0.0000  0.0000  0.0000  0.0000
                                            0.0000 -0.0000 -0.0000  0.0000  0.0000
                                            0.0000  0.0000 -0.0000 -0.0000  0.0000
                                            0.0000  0.0000  0.0000  0.0000  0.0000
    15. (1.99767) CR ( 7)Br   3           s(  0.00%)p 0.00(  0.00%)d 1.00(100.00%)
                                            0.0000  0.0000  0.0000  0.0000  0.0000
                                            0.0000  0.0000  0.0000  0.0000  0.0000
                                            0.0000  0.0000  0.0000  0.0000  0.0000
                                            0.0000  0.0000  0.0000  0.0000  0.0000
                                           -0.0000  0.0000  0.0000  0.0000  0.0000
                                           -0.0000  0.0000  0.0000 -0.0000  1.0000
                                            0.0000 -0.0000 -0.0000  0.0000  0.0000
                                            0.0000  0.0000  0.0000  0.0000  0.0000
                                            0.0000 -0.0000 -0.0000  0.0000  0.0000
                                            0.0000  0.0000 -0.0000 -0.0000  0.0000
                                            0.0000  0.0000  0.0000  0.0000  0.0000
    16. (1.99759) CR ( 8)Br   3           s(  0.00%)p 0.00(  0.00%)d 1.00(100.00%)
                                           -0.0000 -0.0001 -0.0000 -0.0000  0.0000
                                            0.0000  0.0000  0.0000  0.0000  0.0000
                                           -0.0000  0.0000  0.0000 -0.0000 -0.0000
                                            0.0000  0.0000  0.0000  0.0000  0.0000
                                            0.0000  0.0000  0.0000 -0.0000 -0.0000
                                            0.0000  0.0000  0.0000  0.0000  0.0000
                                            0.0000  0.0000  0.0000  1.0000 -0.0000
                                            0.0000 -0.0000 -0.0000 -0.0000  0.0000
                                           -0.0000  0.0000  0.0000 -0.0000 -0.0000
                                           -0.0000  0.0000  0.0000  0.0000  0.0000
                                            0.0000 -0.0000 -0.0000  0.0000  0.0000
    17. (1.99766) CR ( 9)Br   3           s(  0.00%)p 0.00(  0.00%)d 1.00(100.00%)
                                           -0.0000 -0.0000 -0.0000 -0.0000  0.0000
                                            0.0000  0.0000  0.0000 -0.0000  0.0000
                                            0.0000  0.0000  0.0000 -0.0000  0.0000
                                            0.0000  0.0000  0.0000  0.0000  0.0000
                                            0.0000  0.0000  0.0000 -0.0000  0.0000
                                            0.0000  0.0000  0.0000  0.0000  0.0000
                                            0.0000  0.0000  0.0000 -0.0000 -0.0000
                                            0.0000 -0.0000  1.0000 -0.0000  0.0000
                                           -0.0000  0.0000  0.0000 -0.0000 -0.0000
                                           -0.0000  0.0000  0.0000  0.0000  0.0000
                                            0.0000 -0.0000  0.0000 -0.0000  0.0000
    18. (1.96640) LP ( 1) O   1           s( 69.25%)p 0.44( 30.69%)d 0.00(  0.06%)
                                                  f 0.00(  0.00%)
                                            0.0002  0.8321  0.0097 -0.0077 -0.0014
                                           -0.2526  0.0012 -0.0041 -0.0009  0.4930
                                            0.0069  0.0048  0.0014  0.0000  0.0000
                                            0.0000  0.0000  0.0204  0.0026 -0.0023
                                            0.0000  0.0000  0.0000  0.0000  0.0000
                                            0.0000  0.0085  0.0001 -0.0031  0.0066
                                            0.0004  0.0011  0.0000  0.0000 -0.0003
                                            0.0005 -0.0016 -0.0001  0.0000  0.0000
                                            0.0000  0.0000  0.0033 -0.0022  0.0043
                                           -0.0010
    19. (1.94908) LP ( 2) O   1           s(  0.00%)p 1.00( 99.84%)d 0.00(  0.15%)
                                                  f 0.00(  0.01%)
                                            0.0000  0.0000  0.0000  0.0000  0.0000
                                            0.0000  0.0000  0.0000  0.0000  0.0000
                                            0.0000  0.0000  0.0000  0.9990  0.0160
                                            0.0044  0.0107  0.0000  0.0000  0.0000
                                            0.0321  0.0046 -0.0019 -0.0174  0.0039
                                            0.0098  0.0000  0.0000  0.0000  0.0000
                                            0.0000  0.0000 -0.0088  0.0002  0.0000
                                            0.0000  0.0000  0.0000  0.0071 -0.0023
                                            0.0002  0.0011  0.0000  0.0000  0.0000
                                            0.0000
    20. (1.97366) LP ( 1)Cl   2           s( 90.96%)p 0.10(  9.02%)d 0.00(  0.02%)
                                                  f 0.00(  0.00%)
                                            0.0000  0.0003  0.9537  0.0076  0.0013
                                            0.0004  0.0001  0.2984 -0.0064 -0.0032
                                            0.0014  0.0000 -0.0322  0.0009 -0.0000
                                           -0.0006  0.0000  0.0000  0.0000  0.0000
                                            0.0000 -0.0003 -0.0003 -0.0002  0.0000
                                            0.0000  0.0000  0.0000  0.0000  0.0000
                                           -0.0133  0.0002  0.0004  0.0082  0.0005
                                            0.0001  0.0000  0.0000 -0.0024 -0.0003
                                            0.0001 -0.0000  0.0000  0.0000  0.0000
                                            0.0000  0.0037 -0.0001 -0.0003  0.0001
    21. (1.95528) LP ( 2)Cl   2           s(  0.00%)p 1.00( 99.94%)d 0.00(  0.06%)
                                                  f 0.00(  0.01%)
                                            0.0000  0.0000  0.0000  0.0000  0.0000
                                            0.0000  0.0000  0.0000  0.0000  0.0000
                                            0.0000  0.0000  0.0000  0.0000  0.0000
                                            0.0000 -0.0002  0.9995  0.0154  0.0051
                                           -0.0023  0.0000  0.0000  0.0000  0.0109
                                            0.0197  0.0075  0.0024  0.0019  0.0002
                                            0.0000  0.0000  0.0000  0.0000  0.0000
                                            0.0000 -0.0055  0.0015  0.0000  0.0000
                                            0.0000  0.0000  0.0064 -0.0012  0.0007
                                           -0.0005  0.0000  0.0000  0.0000  0.0000
    22. (1.95369) LP ( 3)Cl   2           s(  0.12%)p99.99( 99.83%)d 0.36(  0.04%)
                                                  f 0.07(  0.01%)
                                            0.0000 -0.0000  0.0343  0.0046  0.0038
                                           -0.0025  0.0000 -0.0022  0.0004  0.0001
                                           -0.0005 -0.0002  0.9990  0.0139  0.0015
                                            0.0004  0.0000  0.0000  0.0000  0.0000
                                            0.0000  0.0033  0.0179  0.0074  0.0000
                                            0.0000  0.0000  0.0000  0.0000  0.0000
                                           -0.0057 -0.0040 -0.0024 -0.0001 -0.0019
                                            0.0001  0.0000  0.0000  0.0001  0.0002
                                           -0.0025  0.0005  0.0000  0.0000  0.0000
                                            0.0000 -0.0011  0.0003  0.0084 -0.0018
    23. (1.97639) LP ( 1)Br   3           s( 87.99%)p 0.14( 12.00%)d 0.00(  0.00%)
                                                  f 0.00(  0.00%)
                                            0.0004  0.9381  0.0009  0.0018 -0.0006
                                           -0.0001 -0.0001 -0.0888  0.0005 -0.0002
                                           -0.0001 -0.0002 -0.3349  0.0037 -0.0000
                                           -0.0005 -0.0000 -0.0000 -0.0000 -0.0000
                                           -0.0000 -0.0000 -0.0017  0.0002 -0.0002
                                           -0.0000 -0.0000 -0.0000 -0.0000 -0.0000
                                           -0.0000 -0.0000 -0.0000  0.0001  0.0031
                                           -0.0003  0.0003  0.0000  0.0024 -0.0003
                                            0.0005 -0.0000 -0.0000  0.0001  0.0000
                                            0.0003 -0.0000 -0.0000 -0.0000 -0.0000
                                           -0.0000  0.0003 -0.0000  0.0003 -0.0001
    24. (1.95465) LP ( 2)Br   3           s(  0.00%)p 1.00( 99.98%)d 0.00(  0.01%)
                                                  f 0.00(  0.00%)
                                            0.0000  0.0000  0.0000  0.0000  0.0000
                                            0.0000  0.0000  0.0000  0.0000  0.0000
                                            0.0000  0.0000  0.0000  0.0000  0.0000
                                            0.0000  0.0004  0.9999  0.0050  0.0024
                                           -0.0009  0.0000  0.0000  0.0000  0.0000
                                           -0.0000  0.0018  0.0002 -0.0014 -0.0000
                                            0.0099 -0.0007 -0.0040  0.0000  0.0000
                                            0.0000  0.0000  0.0000  0.0000  0.0000
                                            0.0000 -0.0034 -0.0014  0.0000  0.0000
                                            0.0000  0.0000 -0.0039 -0.0015  0.0019
                                            0.0008  0.0000  0.0000  0.0000  0.0000
    25. (1.95431) LP ( 3)Br   3           s(  0.01%)p 1.00( 99.98%)d 0.00(  0.01%)
                                                  f 0.00(  0.00%)
                                            0.0000  0.0078 -0.0006 -0.0006  0.0007
                                           -0.0001  0.0004  0.9716  0.0048  0.0021
                                           -0.0010 -0.0001 -0.2359 -0.0012 -0.0008
                                            0.0003  0.0000  0.0000  0.0000  0.0000
                                            0.0000 -0.0000  0.0100 -0.0004 -0.0036
                                            0.0000  0.0000  0.0000  0.0000  0.0000
                                            0.0000  0.0000  0.0000 -0.0000  0.0035
                                            0.0005 -0.0029  0.0000  0.0003 -0.0003
                                            0.0003  0.0000  0.0000 -0.0013 -0.0006
                                            0.0003  0.0001  0.0000  0.0000  0.0000
                                            0.0000 -0.0041 -0.0015  0.0031  0.0012
    26. (1.68165) LP ( 4)Br   3           s( 11.99%)p 7.32( 87.84%)d 0.01(  0.15%)
                                                  f 0.00(  0.02%)
                                           -0.0000  0.3462 -0.0027 -0.0057  0.0018
                                            0.0004 -0.0000  0.2185 -0.0016 -0.0007
                                            0.0000  0.0000  0.9113 -0.0106 -0.0057
                                            0.0022  0.0000  0.0000  0.0000  0.0000
                                            0.0000  0.0000  0.0147 -0.0027  0.0003
                                            0.0000  0.0000  0.0000  0.0000  0.0000
                                            0.0000  0.0000  0.0000 -0.0000 -0.0289
                                            0.0046  0.0008  0.0000 -0.0199  0.0036
                                           -0.0008  0.0000  0.0000 -0.0019 -0.0006
                                           -0.0078 -0.0021  0.0000  0.0000  0.0000
                                            0.0000 -0.0064 -0.0015 -0.0075 -0.0014
    27. (0.02201) RY*( 1) O   1           s(  0.00%)p 1.00( 99.12%)d 0.01(  0.83%)
                                                  f 0.00(  0.04%)
                                            0.0000  0.0000  0.0000  0.0000  0.0000
                                            0.0000  0.0000  0.0000  0.0000  0.0000
                                            0.0000  0.0000  0.0000 -0.0192  0.9949
                                           -0.0305 -0.0138  0.0000  0.0000  0.0000
                                            0.0694  0.0263  0.0064 -0.0514 -0.0011
                                            0.0112  0.0000  0.0000  0.0000  0.0000
                                            0.0000  0.0000 -0.0127  0.0099  0.0000
                                            0.0000  0.0000  0.0000  0.0101 -0.0092
                                           -0.0012  0.0010  0.0000  0.0000  0.0000
                                            0.0000
    28. (0.01794) RY*( 2) O   1           s( 25.79%)p 2.81( 72.50%)d 0.06(  1.58%)
                                                  f 0.00(  0.13%)
                                           -0.0000  0.0067  0.5073  0.0167 -0.0159
                                            0.0345 -0.3145 -0.0145  0.0267 -0.0191
                                            0.7875 -0.0079 -0.0581  0.0000  0.0000
                                            0.0000  0.0000  0.1163  0.0332  0.0145
                                            0.0000  0.0000  0.0000  0.0000  0.0000
                                            0.0000  0.0042  0.0063  0.0056  0.0295
                                            0.0022 -0.0057  0.0000  0.0000 -0.0035
                                            0.0002  0.0012  0.0036  0.0000  0.0000
                                            0.0000  0.0000  0.0252 -0.0105  0.0204
                                           -0.0097
    29. (0.00864) RY*( 3) O   1           s( 29.20%)p 0.89( 26.03%)d 1.51( 44.08%)
                                                  f 0.02(  0.69%)
                                           -0.0000  0.0079  0.5280  0.1139  0.0164
                                           -0.0078 -0.3025  0.0064  0.0841 -0.0013
                                           -0.3918  0.0300 -0.0851 -0.0000 -0.0000
[...]
                                           -0.0298  0.0838  0.0062
   158. (0.00032) RY*( 8) H   4           s( 28.77%)p 0.82( 23.66%)d 1.65( 47.57%)
                                           -0.0001 -0.0304  0.2514  0.4728 -0.0990
                                            0.1546 -0.2130  0.0514 -0.2171  0.3283
                                           -0.0000 -0.0000 -0.0000 -0.6159 -0.0326
                                           -0.0000 -0.0000 -0.0000 -0.0000  0.1785
                                           -0.0964  0.2313 -0.0258
   159. (0.00029) RY*( 9) H   4           s(  0.00%)p 1.00(  2.84%)d34.19( 97.16%)
                                            0.0000  0.0000  0.0000  0.0000  0.0000
                                            0.0000  0.0000  0.0000  0.0000  0.0000
                                            0.0169 -0.1676 -0.0050  0.0000  0.0000
                                            0.9127 -0.3380 -0.1422  0.0638  0.0000
                                            0.0000  0.0000  0.0000
   160. (0.00029) RY*(10) H   4           s(  0.31%)p11.04(  3.40%)d99.99( 96.29%)
                                            0.0048 -0.0223  0.0487 -0.0137 -0.0425
                                            0.0363 -0.0419  0.0168  0.0300 -0.1673
                                           -0.0000 -0.0000 -0.0000 -0.1719  0.0818
                                           -0.0000 -0.0000 -0.0000 -0.0000  0.5645
                                           -0.0446 -0.7126  0.3134
   161. (0.00026) RY*(11) H   4           s(  0.00%)p 1.00( 69.05%)d 0.45( 30.95%)
                                            0.0000  0.0000  0.0000  0.0000  0.0000
                                            0.0000  0.0000  0.0000  0.0000  0.0000
                                           -0.0362  0.8059  0.1991  0.0000  0.0000
                                            0.2232  0.0221  0.4863  0.1508  0.0000
                                            0.0000  0.0000  0.0000
   162. (0.00023) RY*(12) H   4           s( 12.58%)p 0.60(  7.57%)d 6.35( 79.85%)
                                            0.0060 -0.0021  0.0848  0.3444  0.1124
                                            0.0965  0.2175  0.0094 -0.0757 -0.0249
                                            0.0000  0.0000  0.0000  0.5242  0.0927
                                            0.0000  0.0000  0.0000  0.0000  0.6172
                                            0.1396  0.3368 -0.0343
   163. (0.00020) RY*(13) H   4           s( 10.48%)p 3.20( 33.58%)d 5.33( 55.94%)
                                           -0.0149  0.0647  0.0045  0.3169  0.0033
                                           -0.0700  0.0933 -0.0066 -0.0033  0.5675
                                            0.0000  0.0000  0.0000  0.3326  0.2310
                                            0.0000  0.0000  0.0000  0.0000 -0.1911
                                           -0.3630 -0.4265 -0.2126
   164. (0.00014) RY*(14) H   4           s( 65.49%)p 0.43( 28.24%)d 0.10(  6.27%)
                                            0.0004 -0.0420  0.7235 -0.3601 -0.0204
                                           -0.0908 -0.1800  0.0099 -0.4883 -0.0533
                                            0.0000  0.0000  0.0000  0.2008  0.0880
                                            0.0000  0.0000  0.0000  0.0000 -0.0305
                                           -0.0910 -0.0293 -0.0672
   165. (0.00011) RY*(15) H   4           s( 34.14%)p 1.49( 50.79%)d 0.44( 15.08%)
                                            0.0003  0.0036  0.1129  0.5732 -0.0182
                                            0.0801 -0.2122  0.0705 -0.0014 -0.6716
                                            0.0000  0.0000  0.0000  0.1168  0.0149
                                            0.0000  0.0000  0.0000  0.0000 -0.3047
                                           -0.1282 -0.1312 -0.1023
   166. (0.00008) RY*(16) H   4           s(  0.00%)p 1.00(  1.55%)d63.67( 98.45%)
   167. (0.00008) RY*(17) H   4           s(  0.00%)p 1.00( 69.58%)d 0.44( 30.42%)
   168. (0.00008) RY*(18) H   4           s(  1.06%)p12.45( 13.23%)d80.65( 85.71%)
   169. (0.00005) RY*(19) H   4           s(  3.58%)p19.45( 69.57%)d 7.51( 26.86%)
   170. (0.00004) RY*(20) H   4           s(  5.60%)p 1.28(  7.18%)d15.58( 87.22%)
   171. (0.00003) RY*(21) H   4           s(  0.00%)p 1.00(  0.27%)d99.99( 99.73%)
   172. (0.00003) RY*(22) H   4           s(  2.86%)p 1.60(  4.58%)d32.33( 92.55%)
   173. (0.05916) BD*( 1) O   1 -Cl   2  
                ( 42.46%)   0.6516* O   1 s( 10.37%)p 8.60( 89.13%)d 0.05(  0.49%)
                                                  f 0.00(  0.02%)
                                           -0.0003 -0.3167  0.0554 -0.0169  0.0008
                                           -0.9413  0.0424  0.0108  0.0162  0.0503
                                            0.0230  0.0040 -0.0019 -0.0000 -0.0000
                                           -0.0000 -0.0000  0.0154  0.0017 -0.0013
                                           -0.0000 -0.0000 -0.0000 -0.0000 -0.0000
                                           -0.0000 -0.0543 -0.0039 -0.0020  0.0410
                                            0.0036 -0.0000 -0.0000 -0.0000  0.0107
                                           -0.0009 -0.0000 -0.0000 -0.0000 -0.0000
                                           -0.0000 -0.0000 -0.0078 -0.0009  0.0009
                                           -0.0012
                ( 57.54%)  -0.7586*Cl   2 s(  9.23%)p 9.70( 89.55%)d 0.12(  1.10%)
                                                  f 0.01(  0.12%)
                                            0.0000 -0.0006 -0.2978  0.0594  0.0104
                                            0.0026  0.0004  0.9438 -0.0656 -0.0137
                                            0.0036  0.0000  0.0116  0.0015 -0.0032
                                            0.0015 -0.0000 -0.0000 -0.0000 -0.0000
                                           -0.0000 -0.0132  0.0002 -0.0001 -0.0000
                                           -0.0000 -0.0000 -0.0000 -0.0000 -0.0000
                                           -0.0870  0.0124  0.0017  0.0552 -0.0077
                                           -0.0020 -0.0000 -0.0000 -0.0219  0.0029
                                           -0.0006  0.0001 -0.0000 -0.0000 -0.0000
                                           -0.0000  0.0268 -0.0029  0.0022 -0.0003
   174. (0.30223) BD*( 1) O   1 - H   4  
                ( 17.13%)   0.4139* O   1 s( 20.67%)p 3.82( 79.04%)d 0.01(  0.28%)
                                                  f 0.00(  0.01%)
                                            0.0002  0.4546  0.0013  0.0075  0.0025
                                           -0.1975  0.0122  0.0023  0.0061 -0.8666
                                           -0.0091  0.0021  0.0040 -0.0000 -0.0000
                                           -0.0000 -0.0000 -0.0118 -0.0030 -0.0006
                                           -0.0000 -0.0000 -0.0000 -0.0000 -0.0000
                                           -0.0000 -0.0447 -0.0057  0.0012 -0.0241
                                           -0.0014  0.0043 -0.0000 -0.0000  0.0016
                                            0.0004  0.0087 -0.0012 -0.0000 -0.0000
                                           -0.0000 -0.0000  0.0021  0.0008 -0.0013
                                           -0.0003
                ( 82.87%)  -0.9103* H   4 s( 99.74%)p 0.00(  0.23%)d 0.00(  0.03%)
                                            0.9982 -0.0218  0.0240 -0.0008  0.0076
                                            0.0153 -0.0023 -0.0129  0.0403  0.0132
                                           -0.0000 -0.0000 -0.0000  0.0026  0.0043
                                           -0.0000 -0.0000 -0.0000 -0.0000 -0.0095
                                           -0.0085 -0.0035 -0.0096


 NHO Directionality and "Bond Bending" (deviations from line of nuclear centers)

         [Thresholds for printing:  angular deviation  >  1.0 degree]
                                    hybrid p-character > 25.0%
                                    orbital occupancy  >  0.10e

                                Line of Centers        Hybrid 1              Hybrid 2
                                ---------------  -------------------   ------------------
                NBO               Theta   Phi    Theta   Phi    Dev    Theta   Phi    Dev
 ========================================================================================
     1. BD (   1) O   1 -Cl   2    90.0    0.0    90.0  355.1   4.9      --     --    --
     2. BD (   1) O   1 - H   4    90.0  256.5    90.0  258.5   2.0      --     --    --
    18. LP (   1) O   1             --     --     90.0  116.9   --       --     --    --
    19. LP (   2) O   1             --     --      0.0    0.0   --       --     --    --
    21. LP (   2)Cl   2             --     --      0.0    0.0   --       --     --    --
    22. LP (   3)Cl   2             --     --     90.0   90.1   --       --     --    --
    24. LP (   2)Br   3             --     --      0.0    0.0   --       --     --    --
    25. LP (   3)Br   3             --     --     90.0  346.3   --       --     --    --
    26. LP (   4)Br   3             --     --     90.0   76.5   --       --     --    --
   174. BD*(   1) O   1 - H   4    90.0  256.5    90.0  258.5   2.0      --     --    --


 Natural Bond Orbitals (Summary):

           NBO                  Occupancy  
 -----------------------------------------------
 Molecular unit  1  (HOCl)
     1. BD (   1) O   1 -Cl   2          1.93723
     2. BD (   1) O   1 - H   4          1.95314
     3. CR (   1) O   1                  1.99981
     4. CR (   1)Cl   2                  2.00000
     5. CR (   2)Cl   2                  1.99975
     6. CR (   3)Cl   2                  1.99995
     7. CR (   4)Cl   2                  2.00003
     8. CR (   5)Cl   2                  2.00003
    18. LP (   1) O   1                  1.96640
    19. LP (   2) O   1                  1.94908
    20. LP (   1)Cl   2                  1.97366
    21. LP (   2)Cl   2                  1.95528
    22. LP (   3)Cl   2                  1.95369
    27. RY*(   1) O   1                  0.02201
    28. RY*(   2) O   1                  0.01794
    29. RY*(   3) O   1                  0.00864
    30. RY*(   4) O   1                  0.00699
    31. RY*(   5) O   1                  0.00675
    32. RY*(   6) O   1                  0.00631
    33. RY*(   7) O   1                  0.00574
    34. RY*(   8) O   1                  0.00470
    35. RY*(   9) O   1                  0.00232
    36. RY*(  10) O   1                  0.00072
    37. RY*(  11) O   1                  0.00068
    38. RY*(  12) O   1                  0.00067
    39. RY*(  13) O   1                  0.00060
    40. RY*(  14) O   1                  0.00055
    41. RY*(  15) O   1                  0.00054
    42. RY*(  16) O   1                  0.00049
    43. RY*(  17) O   1                  0.00049
    44. RY*(  18) O   1                  0.00049
    45. RY*(  19) O   1                  0.00046
    46. RY*(  20) O   1                  0.00047
    47. RY*(  21) O   1                  0.00046
    48. RY*(  22) O   1                  0.00046
    49. RY*(  23) O   1                  0.00041
    50. RY*(  24) O   1                  0.00035
    51. RY*(  25) O   1                  0.00028
    52. RY*(  26) O   1                  0.00016
    53. RY*(  27) O   1                  0.00013
    54. RY*(  28) O   1                  0.00012
    55. RY*(  29) O   1                  0.00012
    56. RY*(  30) O   1                  0.00009
    57. RY*(  31) O   1                  0.00009
    58. RY*(  32) O   1                  0.00008
    59. RY*(  33) O   1                  0.00009
    60. RY*(  34) O   1                  0.00008
    61. RY*(  35) O   1                  0.00009
    62. RY*(  36) O   1                  0.00007
    63. RY*(  37) O   1                  0.00007
    64. RY*(  38) O   1                  0.00006
    65. RY*(  39) O   1                  0.00005
    66. RY*(  40) O   1                  0.00003
    67. RY*(  41) O   1                 -0.00014
    68. RY*(   1)Cl   2                  0.02431
    69. RY*(   2)Cl   2                  0.02003
    70. RY*(   3)Cl   2                  0.01698
    71. RY*(   4)Cl   2                  0.01695
    72. RY*(   5)Cl   2                  0.01248
    73. RY*(   6)Cl   2                  0.00975
    74. RY*(   7)Cl   2                  0.00945
    75. RY*(   8)Cl   2                  0.00667
    76. RY*(   9)Cl   2                  0.00185
    77. RY*(  10)Cl   2                  0.00127
    78. RY*(  11)Cl   2                  0.00127
    79. RY*(  12)Cl   2                  0.00121
    80. RY*(  13)Cl   2                  0.00122
    81. RY*(  14)Cl   2                  0.00118
    82. RY*(  15)Cl   2                  0.00113
    83. RY*(  16)Cl   2                  0.00099
    84. RY*(  17)Cl   2                  0.00080
    85. RY*(  18)Cl   2                  0.00078
    86. RY*(  19)Cl   2                  0.00069
    87. RY*(  20)Cl   2                  0.00063
    88. RY*(  21)Cl   2                  0.00046
    89. RY*(  22)Cl   2                  0.00038
    90. RY*(  23)Cl   2                  0.00036
    91. RY*(  24)Cl   2                  0.00032
    92. RY*(  25)Cl   2                  0.00018
    93. RY*(  26)Cl   2                  0.00018
    94. RY*(  27)Cl   2                  0.00017
    95. RY*(  28)Cl   2                  0.00014
    96. RY*(  29)Cl   2                  0.00013
    97. RY*(  30)Cl   2                  0.00012
    98. RY*(  31)Cl   2                  0.00013
    99. RY*(  32)Cl   2                  0.00011
   100. RY*(  33)Cl   2                  0.00011
   101. RY*(  34)Cl   2                  0.00010
   102. RY*(  35)Cl   2                  0.00009
   103. RY*(  36)Cl   2                  0.00010
   104. RY*(  37)Cl   2                  0.00008
   105. RY*(  38)Cl   2                  0.00004
   106. RY*(  39)Cl   2                  0.00004
   107. RY*(  40)Cl   2                  0.00003
   108. RY*(  41)Cl   2                  0.00000
   151. RY*(   1) H   4                  0.00705
   152. RY*(   2) H   4                  0.00607
   153. RY*(   3) H   4                  0.00469
   154. RY*(   4) H   4                  0.00424
   155. RY*(   5) H   4                  0.00293
   156. RY*(   6) H   4                  0.00069
   157. RY*(   7) H   4                  0.00037
   158. RY*(   8) H   4                  0.00032
   159. RY*(   9) H   4                  0.00029
   160. RY*(  10) H   4                  0.00029
   161. RY*(  11) H   4                  0.00026
   162. RY*(  12) H   4                  0.00023
   163. RY*(  13) H   4                  0.00020
   164. RY*(  14) H   4                  0.00014
   165. RY*(  15) H   4                  0.00011
   166. RY*(  16) H   4                  0.00008
   167. RY*(  17) H   4                  0.00008
   168. RY*(  18) H   4                  0.00008
   169. RY*(  19) H   4                  0.00005
   170. RY*(  20) H   4                  0.00004
   171. RY*(  21) H   4                  0.00003
   172. RY*(  22) H   4                  0.00003
   173. BD*(   1) O   1 -Cl   2          0.05916
   174. BD*(   1) O   1 - H   4          0.30223
       -------------------------------
              Total Lewis   25.68805  ( 97.6682%)
        Valence non-Lewis    0.36138  (  1.3740%)
        Rydberg non-Lewis    0.25190  (  0.9577%)
       -------------------------------
            Total unit  1   26.30133  (100.0000%)
           Charge unit  1   -0.30133

 Molecular unit  2  (Br)
     9. CR (   1)Br   3                  1.99955
    10. CR (   2)Br   3                  1.99996
    11. CR (   3)Br   3                  1.99983
    12. CR (   4)Br   3                  1.99997
    13. CR (   5)Br   3                  1.99765
    14. CR (   6)Br   3                  1.99770
    15. CR (   7)Br   3                  1.99767
    16. CR (   8)Br   3                  1.99759
    17. CR (   9)Br   3                  1.99766
    23. LP (   1)Br   3                  1.97639
    24. LP (   2)Br   3                  1.95465
    25. LP (   3)Br   3                  1.95431
    26. LP (   4)Br   3                  1.68165
   109. RY*(   1)Br   3                  0.01815
   110. RY*(   2)Br   3                  0.01814
   111. RY*(   3)Br   3                  0.01802
   112. RY*(   4)Br   3                  0.01792
   113. RY*(   5)Br   3                  0.01711
   114. RY*(   6)Br   3                  0.01046
   115. RY*(   7)Br   3                  0.01040
   116. RY*(   8)Br   3                  0.00813
   117. RY*(   9)Br   3                  0.00172
   118. RY*(  10)Br   3                  0.00171
   119. RY*(  11)Br   3                  0.00172
   120. RY*(  12)Br   3                  0.00171
   121. RY*(  13)Br   3                  0.00168
   122. RY*(  14)Br   3                  0.00169
   123. RY*(  15)Br   3                  0.00167
   124. RY*(  16)Br   3                  0.00167
   125. RY*(  17)Br   3                  0.00168
   126. RY*(  18)Br   3                  0.00163
   127. RY*(  19)Br   3                  0.00125
   128. RY*(  20)Br   3                  0.00121
   129. RY*(  21)Br   3                  0.00116
   130. RY*(  22)Br   3                  0.00073
   131. RY*(  23)Br   3                  0.00073
   132. RY*(  24)Br   3                  0.00061
   133. RY*(  25)Br   3                  0.00042
   134. RY*(  26)Br   3                  0.00028
   135. RY*(  27)Br   3                  0.00026
   136. RY*(  28)Br   3                  0.00023
   137. RY*(  29)Br   3                  0.00024
   138. RY*(  30)Br   3                  0.00023
   139. RY*(  31)Br   3                  0.00023
   140. RY*(  32)Br   3                  0.00023
   141. RY*(  33)Br   3                  0.00020
   142. RY*(  34)Br   3                  0.00018
   143. RY*(  35)Br   3                  0.00014
   144. RY*(  36)Br   3                  0.00012
   145. RY*(  37)Br   3                  0.00012
   146. RY*(  38)Br   3                  0.00012
   147. RY*(  39)Br   3                  0.00008
   148. RY*(  40)Br   3                  0.00008
   149. RY*(  41)Br   3                  0.00005
   150. RY*(  42)Br   3                  0.00000
       -------------------------------
              Total Lewis   35.55457  ( 99.5964%)
        Valence non-Lewis    0.00000  (  0.0000%)
        Rydberg non-Lewis    0.14410  (  0.4036%)
       -------------------------------
            Total unit  2   35.69867  (100.0000%)
           Charge unit  2   -0.69867
 Leave Link  607 at Tue Oct 19 14:36:16 2021, MaxMem= 16106127360 cpu:              80.8 elap:               2.9
 (Enter /sw/contrib/gaussian/g16/B01/g16/l9999.exe)
 1\1\GINC-N2207\SP\RMP2-FC\Gen\Br1Cl1H1O1(1-)\CGAVINH\19-Oct-2021\0\\#p
  pop=NBO SP NoSymm mp2/gen Pseudo=read density=current\\title\\-1,1\O\
 X,1,10.\Cl,1,1.68446532,2,90.\Br,1,3.06793175,2,90.,3,103.45029768,0\H
 ,1,1.25,2,90.,3,103.45029768,0\\Version=ES64L-G16RevB.01\HF=-950.49651
 81\MP2=-951.2121692\RMSD=8.417e-09\Dipole=0.7183066,0.4701205,0.\Quadr
 upole=5.2862239,-12.7755063,7.4892824,-5.1256261,0.,0.\PG=CS [SG(Br1Cl
 1H1O1)]\\@


 WHEN A MATHEMATICIAN ENGAGED IN INVESTIGATING
 PHYSICAL ACTIONS AND RESULTS HAS ARRIVED AT HIS
 CONCLUSIONS, MAY THEY NOT BE EXPRESSED IN COMMON
 LANGUAGE AS FULLY, CLEARLY, AND DEFINITELY AS IN
 MATHEMATICAL FORMULAE?
           - LETTER FROM M. FARADAY TO J.C. MAXWELL, 1857.
 Job cpu time:       0 days  0 hours  5 minutes 44.8 seconds.
 Elapsed time:       0 days  0 hours  0 minutes 18.1 seconds.
 File lengths (MBytes):  RWF=     15 Int=      0 D2E=      0 Chk=      8 Scr=      1
 Normal termination of Gaussian 16 at Tue Oct 19 14:36:17 2021.
