 Entering Gaussian System, Link 0=g16
 Input=brhocl_pp_rOH_140_sp.gjf
 Output=brhocl_pp_rOH_140_sp.log
 Initial command:
 /sw/contrib/gaussian/g16/B01/g16/l1.exe "/scr/Gau-7744.inp" -scrdir="/scr/"
 Entering Link 1 = /sw/contrib/gaussian/g16/B01/g16/l1.exe PID=      7745.
  
 Copyright (c) 1988-2017, Gaussian, Inc.  All Rights Reserved.
  
 This is part of the Gaussian(R) 16 program.  It is based on
 the Gaussian(R) 09 system (copyright 2009, Gaussian, Inc.),
 the Gaussian(R) 03 system (copyright 2003, Gaussian, Inc.),
 the Gaussian(R) 98 system (copyright 1998, Gaussian, Inc.),
 the Gaussian(R) 94 system (copyright 1995, Gaussian, Inc.),
 the Gaussian 92(TM) system (copyright 1992, Gaussian, Inc.),
 the Gaussian 90(TM) system (copyright 1990, Gaussian, Inc.),
 the Gaussian 88(TM) system (copyright 1988, Gaussian, Inc.),
 the Gaussian 86(TM) system (copyright 1986, Carnegie Mellon
 University), and the Gaussian 82(TM) system (copyright 1983,
 Carnegie Mellon University). Gaussian is a federally registered
 trademark of Gaussian, Inc.
  
 This software contains proprietary and confidential information,
 including trade secrets, belonging to Gaussian, Inc.
  
 This software is provided under written license and may be
 used, copied, transmitted, or stored only in accord with that
 written license.
  
 The following legend is applicable only to US Government
 contracts under FAR:
  
                    RESTRICTED RIGHTS LEGEND
  
 Use, reproduction and disclosure by the US Government is
 subject to restrictions as set forth in subparagraphs (a)
 and (c) of the Commercial Computer Software - Restricted
 Rights clause in FAR 52.227-19.
  
 Gaussian, Inc.
 340 Quinnipiac St., Bldg. 40, Wallingford CT 06492
  
  
 ---------------------------------------------------------------
 Warning -- This program may not be used in any manner that
 competes with the business of Gaussian, Inc. or will provide
 assistance to any competitor of Gaussian, Inc.  The licensee
 of this program is prohibited from giving any competitor of
 Gaussian, Inc. access to this program.  By using this program,
 the user acknowledges that Gaussian, Inc. is engaged in the
 business of creating and licensing software in the field of
 computational chemistry and represents and warrants to the
 licensee that it is not a competitor of Gaussian, Inc. and that
 it will not use this program in any manner prohibited above.
 ---------------------------------------------------------------
  

 Cite this work as:
 Gaussian 16, Revision B.01,
 M. J. Frisch, G. W. Trucks, H. B. Schlegel, G. E. Scuseria, 
 M. A. Robb, J. R. Cheeseman, G. Scalmani, V. Barone, 
 G. A. Petersson, H. Nakatsuji, X. Li, M. Caricato, A. V. Marenich, 
 J. Bloino, B. G. Janesko, R. Gomperts, B. Mennucci, H. P. Hratchian, 
 J. V. Ortiz, A. F. Izmaylov, J. L. Sonnenberg, D. Williams-Young, 
 F. Ding, F. Lipparini, F. Egidi, J. Goings, B. Peng, A. Petrone, 
 T. Henderson, D. Ranasinghe, V. G. Zakrzewski, J. Gao, N. Rega, 
 G. Zheng, W. Liang, M. Hada, M. Ehara, K. Toyota, R. Fukuda, 
 J. Hasegawa, M. Ishida, T. Nakajima, Y. Honda, O. Kitao, H. Nakai, 
 T. Vreven, K. Throssell, J. A. Montgomery, Jr., J. E. Peralta, 
 F. Ogliaro, M. J. Bearpark, J. J. Heyd, E. N. Brothers, K. N. Kudin, 
 V. N. Staroverov, T. A. Keith, R. Kobayashi, J. Normand, 
 K. Raghavachari, A. P. Rendell, J. C. Burant, S. S. Iyengar, 
 J. Tomasi, M. Cossi, J. M. Millam, M. Klene, C. Adamo, R. Cammi, 
 J. W. Ochterski, R. L. Martin, K. Morokuma, O. Farkas, 
 J. B. Foresman, and D. J. Fox, Gaussian, Inc., Wallingford CT, 2016.
 
 ******************************************
 Gaussian 16:  ES64L-G16RevB.01 20-Dec-2017
                19-Oct-2021 
 ******************************************
 %nproc=28
 Will use up to   28 processors via shared memory.
 %mem=120GB
 %chk=/gscratch/ilahie/mccoygrp/coire_hocl/rOH_s_oop_0/brhocl_pp/brhocl_pp_rOH_14
 0_sp.chk
 --------------------------------------------------------
 #p pop=NBO SP NoSymm mp2/gen Pseudo=read density=current
 --------------------------------------------------------
 1/30=1,38=1,172=1/1;
 2/12=2,15=1,17=6,18=5,40=1/2;
 3/5=7,11=9,16=1,17=8,25=1,30=1,71=1/1,2,3;
 4//1;
 5/5=2,38=5/2;
 8/6=4,10=1/1;
 9/15=1,16=-3/6;
 10/5=1,13=10,31=1/2;
 6/7=2,8=2,9=2,10=2,22=-1,40=1/1,7;
 99/5=1,9=1/99;
 Leave Link    1 at Tue Oct 19 14:36:55 2021, MaxMem= 16106127360 cpu:               2.6 elap:               0.1
 (Enter /sw/contrib/gaussian/g16/B01/g16/l101.exe)
 -----
 title
 -----
 Symbolic Z-matrix:
 Charge = -1 Multiplicity = 1
 O
 X                    1     10. 
 Cl                   1    r1       2     90. 
 Br                   1    r2       2     90.      3    a1       0
 H                    1    r3       2    oop      3    a1       0
       Variables:
  r1                    1.68447                  
  r2                    3.06793                  
  r3                    1.4                      
  a1                  103.4503                   
  OOP                  90.                       
 
 ITRead=  0  0  0  0
 MicOpt= -1 -1 -1 -1
 NAtoms=      4 NQM=        4 NQMF=       0 NMMI=      0 NMMIF=      0
                NMic=       0 NMicF=      0.
                    Isotopes and Nuclear Properties:
 (Nuclear quadrupole moments (NQMom) in fm**2, nuclear magnetic moments (NMagM)
  in nuclear magnetons)

  Atom         1           2           3           4
 IAtWgt=          16          35          79           1
 AtmWgt=  15.9949146  34.9688527  78.9183361   1.0078250
 NucSpn=           0           3           3           1
 AtZEff=  -0.0000000  -0.0000000  -0.0000000  -0.0000000
 NQMom=    0.0000000  -8.1650000  31.3000000   0.0000000
 NMagM=    0.0000000   0.8218740   2.1063990   2.7928460
 AtZNuc=   8.0000000  17.0000000  35.0000000   1.0000000
 Leave Link  101 at Tue Oct 19 14:36:55 2021, MaxMem= 16106127360 cpu:               2.0 elap:               0.1
 (Enter /sw/contrib/gaussian/g16/B01/g16/l202.exe)
                          Input orientation:                          
 ---------------------------------------------------------------------
 Center     Atomic      Atomic             Coordinates (Angstroms)
 Number     Number       Type             X           Y           Z
 ---------------------------------------------------------------------
      1          8           0        0.000000    0.000000    0.000000
      2         17           0        1.684465    0.000000    0.000000
      3         35           0       -0.713606   -2.983785    0.000000
      4          1           0       -0.325642   -1.361601    0.000000
 ---------------------------------------------------------------------
                    Distance matrix (angstroms):
                    1          2          3          4
     1  O    0.000000
     2  Cl   1.684465   0.000000
     3  Br   3.067932   3.828018   0.000000
     4  H    1.400000   2.427857   1.667932   0.000000
 Symmetry turned off by external request.
 Stoichiometry    BrClHO(1-)
 Framework group  CS[SG(BrClHO)]
 Deg. of freedom     5
 Full point group                 CS      NOp   2
 Rotational constants (GHZ):          22.8425565           1.2851370           1.2166855
 Leave Link  202 at Tue Oct 19 14:36:55 2021, MaxMem= 16106127360 cpu:               0.2 elap:               0.0
 (Enter /sw/contrib/gaussian/g16/B01/g16/l301.exe)
 General basis read from cards:  (5D, 7F)
 Centers:       2      1      4
 aug-cc-pVTZ
 ****
 Centers:       3
 S 10 1.00
     Exponent=  9.6593900000D+03 Coefficients=  3.7100000000D-04
     Exponent=  1.4559600000D+03 Coefficients=  2.5710000000D-03
     Exponent=  3.2591400000D+02 Coefficients=  8.4850000000D-03
     Exponent=  4.6565700000D+01 Coefficients=  7.8222000000D-02
     Exponent=  1.8246900000D+01 Coefficients= -3.9714900000D-01
     Exponent=  3.8020100000D+00 Coefficients=  6.8586400000D-01
     Exponent=  1.7863200000D+00 Coefficients=  4.8681900000D-01
     Exponent=  6.0271400000D-01 Coefficients=  3.4913000000D-02
     Exponent=  2.8401400000D-01 Coefficients= -6.5730000000D-03
     Exponent=  1.2027100000D-01 Coefficients=  1.6420000000D-03
 S 10 1.00
     Exponent=  9.6593900000D+03 Coefficients= -1.5200000000D-04
     Exponent=  1.4559600000D+03 Coefficients= -1.0080000000D-03
     Exponent=  3.2591400000D+02 Coefficients= -3.6090000000D-03
     Exponent=  4.6565700000D+01 Coefficients= -2.7872000000D-02
     Exponent=  1.8246900000D+01 Coefficients=  1.5131700000D-01
     Exponent=  3.8020100000D+00 Coefficients= -3.5149700000D-01
     Exponent=  1.7863200000D+00 Coefficients= -4.1070300000D-01
     Exponent=  6.0271400000D-01 Coefficients=  3.4731600000D-01
     Exponent=  2.8401400000D-01 Coefficients=  6.7549100000D-01
     Exponent=  1.2027100000D-01 Coefficients=  2.4400800000D-01
 S 1 1.00
     Exponent=  6.0271400000D-01 Coefficients=  1.0000000000D+00
 S 1 1.00
     Exponent=  2.8401400000D-01 Coefficients=  1.0000000000D+00
 S 1 1.00
     Exponent=  1.2027100000D-01 Coefficients=  1.0000000000D+00
 S 1 1.00
     Exponent=  4.4500000000D-02 Coefficients=  1.0000000000D+00
 P 9 1.00
     Exponent=  4.9218700000D+02 Coefficients=  4.7200000000D-04
     Exponent=  9.2364200000D+01 Coefficients=  5.4940000000D-03
     Exponent=  2.7071800000D+01 Coefficients= -8.8030000000D-02
     Exponent=  7.2653900000D+00 Coefficients=  3.4348500000D-01
     Exponent=  3.4848100000D+00 Coefficients=  5.1020800000D-01
     Exponent=  1.6404800000D+00 Coefficients=  2.4863100000D-01
     Exponent=  6.4857000000D-01 Coefficients=  2.2201000000D-02
     Exponent=  2.5640700000D-01 Coefficients= -4.1900000000D-04
     Exponent=  9.5304000000D-02 Coefficients=  6.5600000000D-04
 P 9 1.00
     Exponent=  4.9218700000D+02 Coefficients= -1.5800000000D-04
     Exponent=  9.2364200000D+01 Coefficients= -1.3440000000D-03
     Exponent=  2.7071800000D+01 Coefficients=  2.4616000000D-02
     Exponent=  7.2653900000D+00 Coefficients= -1.1253200000D-01
     Exponent=  3.4848100000D+00 Coefficients= -1.7977500000D-01
     Exponent=  1.6404800000D+00 Coefficients= -7.3661000000D-02
     Exponent=  6.4857000000D-01 Coefficients=  3.4873400000D-01
     Exponent=  2.5640700000D-01 Coefficients=  5.5794800000D-01
     Exponent=  9.5304000000D-02 Coefficients=  2.6645600000D-01
 P 1 1.00
     Exponent=  7.6660000000D-01 Coefficients=  1.0000000000D+00
 P 1 1.00
     Exponent=  1.1820000000D-01 Coefficients=  1.0000000000D+00
 P 1 1.00
     Exponent=  3.9600000000D-02 Coefficients=  1.0000000000D+00
 D 8 1.00
     Exponent=  3.3899600000D+02 Coefficients=  1.5240000000D-03
     Exponent=  1.0321700000D+02 Coefficients=  1.5673000000D-02
     Exponent=  4.2363800000D+01 Coefficients=  7.2400000000D-02
     Exponent=  1.8435600000D+01 Coefficients=  1.8630300000D-01
     Exponent=  8.3725400000D+00 Coefficients=  3.2388100000D-01
     Exponent=  3.8022200000D+00 Coefficients=  3.7453400000D-01
     Exponent=  1.6867700000D+00 Coefficients=  2.5741800000D-01
     Exponent=  6.7752000000D-01 Coefficients=  6.8051000000D-02
 D 1 1.00
     Exponent=  6.7752000000D-01 Coefficients=  1.0000000000D+00
 D 1 1.00
     Exponent=  2.5530000000D-01 Coefficients=  1.0000000000D+00
 D 1 1.00
     Exponent=  1.0090000000D-01 Coefficients=  1.0000000000D+00
 F 1 1.00
     Exponent=  5.6060000000D-01 Coefficients=  1.0000000000D+00
 F 1 1.00
     Exponent=  2.4540000000D-01 Coefficients=  1.0000000000D+00
 ****
 ======================================================================================================
                                       Pseudopotential Parameters
 ======================================================================================================
  Center     Atomic      Valence      Angular      Power
  Number     Number     Electrons     Momentum     of R      Exponent        Coefficient   SO-Coeffient
 ======================================================================================================
    1          8
                                   No pseudopotential on this center.
    2         17
                                   No pseudopotential on this center.
    3         35           25
                                      G and up 
                                                     2        1.0000000        0.00000000    0.00000000
                                      S - G
                                                     2       70.0242570       49.96283400    0.00000000
                                                     2       31.1784120      370.01420500    0.00000000
                                                     2        7.1565930       10.24143900    0.00000000
                                      P - G
                                                     2       46.7734710       99.11224400    0.00000000
                                                     2       46.1841200      198.25304600    0.00000000
                                                     2       21.7138580       28.26174000    0.00000000
                                                     2       20.9417920       56.62336600    0.00000000
                                      D - G
                                                     2       50.6988390      -18.60585300    0.00000000
                                                     2       50.6447640      -27.92328000    0.00000000
                                                     2       15.4475090       -0.37969300    0.00000000
                                                     2       15.5002590       -0.78058300    0.00000000
                                                     2        2.8003910        0.03596800    0.00000000
                                                     2        1.0774800        0.09439700    0.00000000
                                      F - G
                                                     2       14.4656060       -1.09126900    0.00000000
                                                     2       21.2340650       -2.88769100    0.00000000
    4          1
                                   No pseudopotential on this center.
 ======================================================================================================
 Ernie: Thresh=  0.10000D-02 Tol=  0.10000D-05 Strict=F.
 Ernie:  25 primitive shells out of 163 were deleted.
   174 basis functions,   373 primitive gaussians,   204 cartesian basis functions
    26 alpha electrons       26 beta electrons
       nuclear repulsion energy       150.6338778049 Hartrees.
 IExCor=    0 DFT=F Ex=HF Corr=None ExCW=0 ScaHFX=  1.000000
 ScaDFX=  1.000000  1.000000  1.000000  1.000000 ScalE2=  1.000000  1.000000
 IRadAn=      5 IRanWt=     -1 IRanGd=            0 ICorTp=0 IEmpDi=  4
 NAtoms=    4 NActive=    4 NUniq=    4 SFac= 1.00D+00 NAtFMM=   60 NAOKFM=F Big=F
 Integral buffers will be    131072 words long.
 Raffenetti 1 integral format.
 Two-electron integral symmetry is turned off.
 Leave Link  301 at Tue Oct 19 14:36:55 2021, MaxMem= 16106127360 cpu:               2.3 elap:               0.1
 (Enter /sw/contrib/gaussian/g16/B01/g16/l302.exe)
 NPDir=0 NMtPBC=     1 NCelOv=     1 NCel=       1 NClECP=     1 NCelD=      1
         NCelK=      1 NCelE2=     1 NClLst=     1 CellRange=     0.0.
 One-electron integrals computed using PRISM.
   1 Symmetry operations used in ECPInt.
 ECPInt:  NShTT=    1596 NPrTT=    9902 LenC2=    1595 LenP2D=    7773.
 LDataN:  DoStor=T MaxTD1= 7 Len=  274
 NBasis=   174 RedAO= T EigKep=  2.10D-04  NBF=   174
 NBsUse=   174 1.00D-06 EigRej= -1.00D+00 NBFU=   174
 Leave Link  302 at Tue Oct 19 14:36:55 2021, MaxMem= 16106127360 cpu:               7.7 elap:               0.3
 (Enter /sw/contrib/gaussian/g16/B01/g16/l303.exe)
 DipDrv:  MaxL=1.
 Leave Link  303 at Tue Oct 19 14:36:55 2021, MaxMem= 16106127360 cpu:               0.8 elap:               0.1
 (Enter /sw/contrib/gaussian/g16/B01/g16/l401.exe)
 ExpMin= 2.53D-02 ExpMax= 4.56D+05 ExpMxC= 1.44D+03 IAcc=3 IRadAn=         5 AccDes= 0.00D+00
 Harris functional with IExCor=  205 and IRadAn=       5 diagonalized for initial guess.
 HarFok:  IExCor=  205 AccDes= 0.00D+00 IRadAn=         5 IDoV= 1 UseB2=F ITyADJ=14
 ICtDFT=  3500011 ScaDFX=  1.000000  1.000000  1.000000  1.000000
 FoFCou: FMM=F IPFlag=           0 FMFlag=      100000 FMFlg1=           0
         NFxFlg=           0 DoJE=T BraDBF=F KetDBF=T FulRan=T
         wScrn=  0.000000 ICntrl=       500 IOpCl=  0 I1Cent=   200000004 NGrid=           0
         NMat0=    1 NMatS0=      1 NMatT0=    0 NMatD0=    1 NMtDS0=    0 NMtDT0=    0
 Symmetry not used in FoFCou.
 Harris En= -951.884142934095    
 JPrj=0 DoOrth=F DoCkMO=F.
 Leave Link  401 at Tue Oct 19 14:36:56 2021, MaxMem= 16106127360 cpu:               7.5 elap:               0.3
 (Enter /sw/contrib/gaussian/g16/B01/g16/l502.exe)
 Keep R1 ints in memory in canonical form, NReq=152797400.
 FoFCou: FMM=F IPFlag=           0 FMFlag=           0 FMFlg1=           0
         NFxFlg=           0 DoJE=F BraDBF=F KetDBF=F FulRan=T
         wScrn=  0.000000 ICntrl=       600 IOpCl=  0 I1Cent=           0 NGrid=           0
         NMat0=    1 NMatS0=  15225 NMatT0=    0 NMatD0=    1 NMtDS0=    0 NMtDT0=    0
 Symmetry not used in FoFCou.
 Two-electron integral symmetry not used.
 Closed shell SCF:
 Using DIIS extrapolation, IDIIS=  1040.
 NGot= 16106127360 LenX= 15990129205 LenY= 15990087148
 Requested convergence on RMS density matrix=1.00D-08 within 128 cycles.
 Requested convergence on MAX density matrix=1.00D-06.
 Requested convergence on             energy=1.00D-06.
 No special actions if energy rises.

 Cycle   1  Pass 1  IDiag  1:
 E= -950.342183689350    
 DIIS: error= 3.16D-02 at cycle   1 NSaved=   1.
 NSaved= 1 IEnMin= 1 EnMin= -950.342183689350     IErMin= 1 ErrMin= 3.16D-02
 ErrMax= 3.16D-02  0.00D+00 EMaxC= 1.00D-01 BMatC= 3.39D-01 BMatP= 3.39D-01
 IDIUse=3 WtCom= 6.84D-01 WtEn= 3.16D-01
 Coeff-Com:  0.100D+01
 Coeff-En:   0.100D+01
 Coeff:      0.100D+01
 Gap=     0.543 Goal=   None    Shift=    0.000
 GapD=    0.543 DampG=2.000 DampE=0.500 DampFc=1.0000 IDamp=-1.
 RMSDP=3.21D-03 MaxDP=1.82D-01              OVMax= 1.43D-01

 Cycle   2  Pass 1  IDiag  1:
 E= -950.443647771417     Delta-E=       -0.101464082067 Rises=F Damp=F
 DIIS: error= 1.78D-02 at cycle   2 NSaved=   2.
 NSaved= 2 IEnMin= 2 EnMin= -950.443647771417     IErMin= 2 ErrMin= 1.78D-02
 ErrMax= 1.78D-02  0.00D+00 EMaxC= 1.00D-01 BMatC= 5.24D-02 BMatP= 3.39D-01
 IDIUse=3 WtCom= 8.22D-01 WtEn= 1.78D-01
 Coeff-Com:  0.203D+00 0.797D+00
 Coeff-En:   0.000D+00 0.100D+01
 Coeff:      0.167D+00 0.833D+00
 Gap=     0.402 Goal=   None    Shift=    0.000
 RMSDP=1.05D-03 MaxDP=3.50D-02 DE=-1.01D-01 OVMax= 8.06D-02

 Cycle   3  Pass 1  IDiag  1:
 E= -950.469267863882     Delta-E=       -0.025620092465 Rises=F Damp=F
 DIIS: error= 9.43D-03 at cycle   3 NSaved=   3.
 NSaved= 3 IEnMin= 3 EnMin= -950.469267863882     IErMin= 3 ErrMin= 9.43D-03
 ErrMax= 9.43D-03  0.00D+00 EMaxC= 1.00D-01 BMatC= 1.75D-02 BMatP= 5.24D-02
 IDIUse=3 WtCom= 9.06D-01 WtEn= 9.43D-02
 Coeff-Com: -0.148D-01 0.357D+00 0.658D+00
 Coeff-En:   0.000D+00 0.186D+00 0.814D+00
 Coeff:     -0.134D-01 0.341D+00 0.672D+00
 Gap=     0.377 Goal=   None    Shift=    0.000
 RMSDP=4.27D-04 MaxDP=1.96D-02 DE=-2.56D-02 OVMax= 4.12D-02

 Cycle   4  Pass 1  IDiag  1:
 E= -950.481780128569     Delta-E=       -0.012512264687 Rises=F Damp=F
 DIIS: error= 1.19D-03 at cycle   4 NSaved=   4.
 NSaved= 4 IEnMin= 4 EnMin= -950.481780128569     IErMin= 4 ErrMin= 1.19D-03
 ErrMax= 1.19D-03  0.00D+00 EMaxC= 1.00D-01 BMatC= 2.58D-04 BMatP= 1.75D-02
 IDIUse=3 WtCom= 9.88D-01 WtEn= 1.19D-02
 Coeff-Com: -0.460D-02 0.190D-01 0.995D-01 0.886D+00
 Coeff-En:   0.000D+00 0.000D+00 0.000D+00 0.100D+01
 Coeff:     -0.455D-02 0.188D-01 0.983D-01 0.887D+00
 Gap=     0.363 Goal=   None    Shift=    0.000
 RMSDP=9.23D-05 MaxDP=2.49D-03 DE=-1.25D-02 OVMax= 7.06D-03

 Cycle   5  Pass 1  IDiag  1:
 E= -950.482126328800     Delta-E=       -0.000346200231 Rises=F Damp=F
 DIIS: error= 3.18D-04 at cycle   5 NSaved=   5.
 NSaved= 5 IEnMin= 5 EnMin= -950.482126328800     IErMin= 5 ErrMin= 3.18D-04
 ErrMax= 3.18D-04  0.00D+00 EMaxC= 1.00D-01 BMatC= 3.99D-05 BMatP= 2.58D-04
 IDIUse=3 WtCom= 9.97D-01 WtEn= 3.18D-03
 Coeff-Com:  0.596D-03-0.486D-01-0.804D-01 0.813D-01 0.105D+01
 Coeff-En:   0.000D+00 0.000D+00 0.000D+00 0.000D+00 0.100D+01
 Coeff:      0.594D-03-0.485D-01-0.802D-01 0.811D-01 0.105D+01
 Gap=     0.364 Goal=   None    Shift=    0.000
 RMSDP=5.73D-05 MaxDP=1.87D-03 DE=-3.46D-04 OVMax= 4.98D-03

 Cycle   6  Pass 1  IDiag  1:
 E= -950.482231929246     Delta-E=       -0.000105600447 Rises=F Damp=F
 DIIS: error= 1.48D-04 at cycle   6 NSaved=   6.
 NSaved= 6 IEnMin= 6 EnMin= -950.482231929246     IErMin= 6 ErrMin= 1.48D-04
 ErrMax= 1.48D-04  0.00D+00 EMaxC= 1.00D-01 BMatC= 5.67D-06 BMatP= 3.99D-05
 IDIUse=3 WtCom= 9.99D-01 WtEn= 1.48D-03
 Coeff-Com:  0.100D-02 0.591D-02 0.696D-02-0.117D+00-0.388D+00 0.149D+01
 Coeff-En:   0.000D+00 0.000D+00 0.000D+00 0.000D+00 0.000D+00 0.100D+01
 Coeff:      0.100D-02 0.590D-02 0.695D-02-0.117D+00-0.387D+00 0.149D+01
 Gap=     0.364 Goal=   None    Shift=    0.000
 RMSDP=3.52D-05 MaxDP=1.16D-03 DE=-1.06D-04 OVMax= 3.24D-03

 Cycle   7  Pass 1  IDiag  1:
 E= -950.482257391164     Delta-E=       -0.000025461918 Rises=F Damp=F
 DIIS: error= 4.83D-05 at cycle   7 NSaved=   7.
 NSaved= 7 IEnMin= 7 EnMin= -950.482257391164     IErMin= 7 ErrMin= 4.83D-05
 ErrMax= 4.83D-05  0.00D+00 EMaxC= 1.00D-01 BMatC= 3.31D-07 BMatP= 5.67D-06
 IDIUse=1 WtCom= 1.00D+00 WtEn= 0.00D+00
 Coeff-Com: -0.373D-03 0.209D-02 0.509D-02 0.265D-01 0.558D-01-0.517D+00
 Coeff-Com:  0.143D+01
 Coeff:     -0.373D-03 0.209D-02 0.509D-02 0.265D-01 0.558D-01-0.517D+00
 Coeff:      0.143D+01
 Gap=     0.364 Goal=   None    Shift=    0.000
 RMSDP=9.50D-06 MaxDP=4.61D-04 DE=-2.55D-05 OVMax= 8.80D-04

 Cycle   8  Pass 1  IDiag  1:
 E= -950.482258838013     Delta-E=       -0.000001446850 Rises=F Damp=F
 DIIS: error= 7.93D-06 at cycle   8 NSaved=   8.
 NSaved= 8 IEnMin= 8 EnMin= -950.482258838013     IErMin= 8 ErrMin= 7.93D-06
 ErrMax= 7.93D-06  0.00D+00 EMaxC= 1.00D-01 BMatC= 1.28D-08 BMatP= 3.31D-07
 IDIUse=1 WtCom= 1.00D+00 WtEn= 0.00D+00
 Coeff-Com: -0.395D-04-0.525D-03-0.404D-03 0.670D-02 0.210D-01-0.868D-01
 Coeff-Com:  0.464D-01 0.101D+01
 Coeff:     -0.395D-04-0.525D-03-0.404D-03 0.670D-02 0.210D-01-0.868D-01
 Coeff:      0.464D-01 0.101D+01
 Gap=     0.364 Goal=   None    Shift=    0.000
 RMSDP=1.29D-06 MaxDP=7.85D-05 DE=-1.45D-06 OVMax= 9.28D-05

 Cycle   9  Pass 1  IDiag  1:
 E= -950.482258866930     Delta-E=       -0.000000028917 Rises=F Damp=F
 DIIS: error= 2.04D-06 at cycle   9 NSaved=   9.
 NSaved= 9 IEnMin= 9 EnMin= -950.482258866930     IErMin= 9 ErrMin= 2.04D-06
 ErrMax= 2.04D-06  0.00D+00 EMaxC= 1.00D-01 BMatC= 1.01D-09 BMatP= 1.28D-08
 IDIUse=1 WtCom= 1.00D+00 WtEn= 0.00D+00
 Coeff-Com:  0.211D-04-0.202D-03-0.307D-03-0.148D-02-0.452D-02 0.375D-01
 Coeff-Com: -0.116D+00 0.683D-01 0.102D+01
 Coeff:      0.211D-04-0.202D-03-0.307D-03-0.148D-02-0.452D-02 0.375D-01
 Coeff:     -0.116D+00 0.683D-01 0.102D+01
 Gap=     0.364 Goal=   None    Shift=    0.000
 RMSDP=3.64D-07 MaxDP=2.32D-05 DE=-2.89D-08 OVMax= 2.23D-05

 Cycle  10  Pass 1  IDiag  1:
 E= -950.482258868901     Delta-E=       -0.000000001970 Rises=F Damp=F
 DIIS: error= 4.06D-07 at cycle  10 NSaved=  10.
 NSaved=10 IEnMin=10 EnMin= -950.482258868901     IErMin=10 ErrMin= 4.06D-07
 ErrMax= 4.06D-07  0.00D+00 EMaxC= 1.00D-01 BMatC= 3.61D-11 BMatP= 1.01D-09
 IDIUse=1 WtCom= 1.00D+00 WtEn= 0.00D+00
 Coeff-Com:  0.408D-06 0.384D-04 0.487D-04-0.315D-03-0.212D-03 0.310D-03
 Coeff-Com:  0.904D-02-0.550D-01-0.956D-01 0.114D+01
 Coeff:      0.408D-06 0.384D-04 0.487D-04-0.315D-03-0.212D-03 0.310D-03
 Coeff:      0.904D-02-0.550D-01-0.956D-01 0.114D+01
 Gap=     0.364 Goal=   None    Shift=    0.000
 RMSDP=8.48D-08 MaxDP=5.65D-06 DE=-1.97D-09 OVMax= 3.72D-06

 Cycle  11  Pass 1  IDiag  1:
 E= -950.482258868983     Delta-E=       -0.000000000082 Rises=F Damp=F
 DIIS: error= 1.02D-07 at cycle  11 NSaved=  11.
 NSaved=11 IEnMin=11 EnMin= -950.482258868983     IErMin=11 ErrMin= 1.02D-07
 ErrMax= 1.02D-07  0.00D+00 EMaxC= 1.00D-01 BMatC= 1.94D-12 BMatP= 3.61D-11
 IDIUse=1 WtCom= 1.00D+00 WtEn= 0.00D+00
 Coeff-Com: -0.538D-06-0.427D-05-0.305D-05 0.113D-03 0.131D-03-0.915D-03
 Coeff-Com:  0.762D-03 0.852D-02 0.293D-02-0.277D+00 0.127D+01
 Coeff:     -0.538D-06-0.427D-05-0.305D-05 0.113D-03 0.131D-03-0.915D-03
 Coeff:      0.762D-03 0.852D-02 0.293D-02-0.277D+00 0.127D+01
 Gap=     0.364 Goal=   None    Shift=    0.000
 RMSDP=2.05D-08 MaxDP=6.33D-07 DE=-8.23D-11 OVMax= 1.81D-06

 Cycle  12  Pass 1  IDiag  1:
 E= -950.482258868993     Delta-E=       -0.000000000010 Rises=F Damp=F
 DIIS: error= 5.02D-08 at cycle  12 NSaved=  12.
 NSaved=12 IEnMin=12 EnMin= -950.482258868993     IErMin=12 ErrMin= 5.02D-08
 ErrMax= 5.02D-08  0.00D+00 EMaxC= 1.00D-01 BMatC= 4.65D-13 BMatP= 1.94D-12
 IDIUse=1 WtCom= 1.00D+00 WtEn= 0.00D+00
 Coeff-Com: -0.216D-06-0.292D-05-0.202D-05 0.306D-04 0.188D-04-0.787D-04
 Coeff-Com: -0.645D-03 0.490D-02 0.106D-01-0.107D+00-0.162D+00 0.125D+01
 Coeff:     -0.216D-06-0.292D-05-0.202D-05 0.306D-04 0.188D-04-0.787D-04
 Coeff:     -0.645D-03 0.490D-02 0.106D-01-0.107D+00-0.162D+00 0.125D+01
 Gap=     0.364 Goal=   None    Shift=    0.000
 RMSDP=1.03D-08 MaxDP=2.22D-07 DE=-1.02D-11 OVMax= 1.13D-06

 Cycle  13  Pass 1  IDiag  1:
 E= -950.482258868993     Delta-E=        0.000000000000 Rises=F Damp=F
 DIIS: error= 2.51D-08 at cycle  13 NSaved=  13.
 NSaved=13 IEnMin=12 EnMin= -950.482258868993     IErMin=13 ErrMin= 2.51D-08
 ErrMax= 2.51D-08  0.00D+00 EMaxC= 1.00D-01 BMatC= 1.07D-13 BMatP= 4.65D-13
 IDIUse=1 WtCom= 1.00D+00 WtEn= 0.00D+00
 Coeff-Com:  0.261D-06 0.127D-05 0.230D-06-0.388D-04-0.399D-04 0.292D-03
 Coeff-Com: -0.186D-03-0.343D-02-0.144D-02 0.928D-01-0.269D+00-0.377D+00
 Coeff-Com:  0.156D+01
 Coeff:      0.261D-06 0.127D-05 0.230D-06-0.388D-04-0.399D-04 0.292D-03
 Coeff:     -0.186D-03-0.343D-02-0.144D-02 0.928D-01-0.269D+00-0.377D+00
 Coeff:      0.156D+01
 Gap=     0.364 Goal=   None    Shift=    0.000
 RMSDP=7.58D-09 MaxDP=1.76D-07 DE= 4.55D-13 OVMax= 8.69D-07

 SCF Done:  E(RHF) =  -950.482258869     A.U. after   13 cycles
            NFock= 13  Conv=0.76D-08     -V/T= 2.1446
 KE= 8.304196791832D+02 PE=-2.611789970148D+03 EE= 6.802541542913D+02
 Leave Link  502 at Tue Oct 19 14:37:00 2021, MaxMem= 16106127360 cpu:              38.4 elap:               3.9
 (Enter /sw/contrib/gaussian/g16/B01/g16/l801.exe)
 ExpMin= 2.53D-02 ExpMax= 4.56D+05 ExpMxC= 1.44D+03 IAcc=3 IRadAn=         5 AccDes= 0.00D+00
 HarFok:  IExCor=  205 AccDes= 0.00D+00 IRadAn=         5 IDoV=-2 UseB2=F ITyADJ=14
 ICtDFT= 12500011 ScaDFX=  1.000000  1.000000  1.000000  1.000000
 Largest valence mixing into a core orbital is  4.46D-04
 Largest core mixing into a valence orbital is  1.17D-04
 Range of M.O.s used for correlation:    11   174
 NBasis=   174 NAE=    26 NBE=    26 NFC=    10 NFV=     0
 NROrb=    164 NOA=    16 NOB=    16 NVA=   148 NVB=   148

 **** Warning!!: The largest alpha MO coefficient is  0.21413538D+02

 Leave Link  801 at Tue Oct 19 14:37:00 2021, MaxMem= 16106127360 cpu:               4.9 elap:               0.2
 (Enter /sw/contrib/gaussian/g16/B01/g16/l906.exe)
 Frozen-core derivative calculation, NFC=  10 NFV=   0.
 FulOut=F Deriv=T AODrv=F NAtomX=     4
   MMem=         130  MDisk=          16 MDiskD=          16
  W3Min=      922896 MinDsk=     1491158 NBas6D=         204
 NBas2D=       21411    NTT=       20910    LW2=    16556320
    MDV= 16105732844 MDiskM=      394699 NBas2p=       21383
 Fully in-core method, ICMem=   510791049.
 IMap=   1   2   3   4   5   6   7   8   9  10  11  12  13  14  15  16  17  18  19  20
 IMap=  21  22  23  24  25  26
 JobTyp=1 Pass  1 fully in-core, NPsUse= 28.
 Compute canonical integrals.
 FoFCou: FMM=F IPFlag=           0 FMFlag=           0 FMFlg1=           0
         NFxFlg=           0 DoJE=F BraDBF=F KetDBF=F FulRan=T
         wScrn=  0.000000 ICntrl=       600 IOpCl=  1 I1Cent=           0 NGrid=           0
         NMat0=    1 NMatS0=  21411 NMatT0=    0 NMatD0=    1 NMtDS0=    0 NMtDT0=    0
 Symmetry not used in FoFCou.
 Spin components of T(2) and E(2):
     alpha-alpha T2 =       0.3216898457D-01 E2=     -0.9671529107D-01
     alpha-beta  T2 =       0.1688732953D+00 E2=     -0.5253893735D+00
     beta-beta   T2 =       0.3216898457D-01 E2=     -0.9671529107D-01
 The integrals were generated   1 times.
 ANorm=    0.1110500457D+01
 E2 =    -0.7188199556D+00 EUMP2 =    -0.95120107882462D+03
 Leave Link  906 at Tue Oct 19 14:37:05 2021, MaxMem= 16106127360 cpu:             158.4 elap:               5.7
 (Enter /sw/contrib/gaussian/g16/B01/g16/l1002.exe)
 Minotr:  Closed shell wavefunction.
          Computing MP2/KS-MP2 derivatives.
          Using Z-Vector for PSCF gradient.
          Skipping F1 and S1 gradient terms here.
          Frozen-core window.
          Direct CPHF calculation.
          Differentiating once with respect to electric field.
                with respect to dipole field.
          Electric field/nuclear overlap derivatives assumed to be zero.
          Requested convergence is 1.0D-10 RMS, and 1.0D-09 maximum.
          NewPWx=F KeepS1=T KeepF1=T KeepIn=T MapXYZ=F SortEE=F KeepMc=T.
 Keep R1 ints in memory in canonical form, NReq=152802333.
 FoFCou: FMM=F IPFlag=           0 FMFlag=           0 FMFlg1=           0
         NFxFlg=           0 DoJE=F BraDBF=F KetDBF=F FulRan=T
         wScrn=  0.000000 ICntrl=       600 IOpCl=  0 I1Cent=           0 NGrid=           0
         NMat0=    1 NMatS0=  15225 NMatT0=    0 NMatD0=    1 NMtDS0=    0 NMtDT0=    0
 Symmetry not used in FoFCou.
 Two-electron integral symmetry not used.
          MDV=   16106127360 using IRadAn=       5.
          Solving linear equations separately, MaxMat=       0.
          There are     1 degrees of freedom in the 1st order CPHF.  IDoFFX=0 NUNeed=     1.
 LinEq1:  Iter=  0 NonCon=     1 RMS=3.55D-03 Max=5.83D-02 NDo=     1
 AX will form     1 AO Fock derivatives at one time.
 LinEq1:  Iter=  1 NonCon=     1 RMS=6.06D-04 Max=1.04D-02 NDo=     1
 LinEq1:  Iter=  2 NonCon=     1 RMS=2.42D-04 Max=3.14D-03 NDo=     1
 LinEq1:  Iter=  3 NonCon=     1 RMS=8.43D-05 Max=1.22D-03 NDo=     1
 LinEq1:  Iter=  4 NonCon=     1 RMS=2.69D-05 Max=3.45D-04 NDo=     1
 LinEq1:  Iter=  5 NonCon=     1 RMS=1.45D-05 Max=2.80D-04 NDo=     1
 LinEq1:  Iter=  6 NonCon=     1 RMS=2.60D-06 Max=2.76D-05 NDo=     1
 LinEq1:  Iter=  7 NonCon=     1 RMS=7.22D-07 Max=1.53D-05 NDo=     1
 LinEq1:  Iter=  8 NonCon=     1 RMS=2.16D-07 Max=3.19D-06 NDo=     1
 LinEq1:  Iter=  9 NonCon=     1 RMS=6.18D-08 Max=9.77D-07 NDo=     1
 LinEq1:  Iter= 10 NonCon=     1 RMS=1.51D-08 Max=2.49D-07 NDo=     1
 LinEq1:  Iter= 11 NonCon=     1 RMS=4.43D-09 Max=5.00D-08 NDo=     1
 LinEq1:  Iter= 12 NonCon=     1 RMS=8.07D-10 Max=8.96D-09 NDo=     1
 LinEq1:  Iter= 13 NonCon=     1 RMS=1.64D-10 Max=2.38D-09 NDo=     1
 LinEq1:  Iter= 14 NonCon=     0 RMS=4.03D-11 Max=6.42D-10 NDo=     1
 Linear equations converged to 1.000D-10 1.000D-09 after    14 iterations.
 End of Minotr F.D. properties file   721 does not exist.
 End of Minotr F.D. properties file   722 does not exist.
 End of Minotr F.D. properties file   788 does not exist.
 Leave Link 1002 at Tue Oct 19 14:37:10 2021, MaxMem= 16106127360 cpu:              38.2 elap:               4.5
 (Enter /sw/contrib/gaussian/g16/B01/g16/l601.exe)
 Copying SCF densities to generalized density rwf, IOpCl= 0 IROHF=0.

 **********************************************************************

            Population analysis using the MP2 Density.

 **********************************************************************

 Alpha  occ. eigenvalues -- -104.68117 -20.39157 -10.40096  -9.61187  -7.86804
 Alpha  occ. eigenvalues --   -7.86588  -7.86583  -7.36134  -7.35846  -7.35844
 Alpha  occ. eigenvalues --   -2.91268  -2.91137  -2.91135  -2.90838  -2.90838
 Alpha  occ. eigenvalues --   -1.12958  -0.83247  -0.81334  -0.43778  -0.37747
 Alpha  occ. eigenvalues --   -0.36854  -0.28569  -0.22613  -0.22104  -0.21766
 Alpha  occ. eigenvalues --   -0.20555
 Alpha virt. eigenvalues --    0.15873   0.19568   0.22213   0.23925   0.24947
 Alpha virt. eigenvalues --    0.25539   0.26061   0.29600   0.31901   0.33253
 Alpha virt. eigenvalues --    0.34057   0.34457   0.37189   0.42474   0.43066
 Alpha virt. eigenvalues --    0.44276   0.44909   0.47494   0.50375   0.54942
 Alpha virt. eigenvalues --    0.55189   0.57444   0.59460   0.59937   0.61421
 Alpha virt. eigenvalues --    0.63089   0.67586   0.68707   0.74935   0.79784
 Alpha virt. eigenvalues --    0.79973   0.80466   0.82816   0.86600   0.91621
 Alpha virt. eigenvalues --    0.93053   0.94145   0.94225   0.95112   0.96766
 Alpha virt. eigenvalues --    0.99618   1.01428   1.02719   1.04848   1.05235
 Alpha virt. eigenvalues --    1.06208   1.10133   1.10866   1.12696   1.13823
 Alpha virt. eigenvalues --    1.14532   1.18144   1.19523   1.21812   1.22549
 Alpha virt. eigenvalues --    1.25458   1.28546   1.31936   1.33053   1.34582
 Alpha virt. eigenvalues --    1.36292   1.41705   1.45111   1.49321   1.50391
 Alpha virt. eigenvalues --    1.57140   1.61079   1.62847   1.68579   1.73142
 Alpha virt. eigenvalues --    1.75581   1.78336   1.78980   1.87822   1.90565
 Alpha virt. eigenvalues --    2.02825   2.11504   2.32295   2.41828   2.42374
 Alpha virt. eigenvalues --    2.43570   2.46278   2.46491   2.49181   2.49458
 Alpha virt. eigenvalues --    2.49610   2.51429   2.52905   2.54219   2.54397
 Alpha virt. eigenvalues --    2.55105   2.57524   2.58024   2.61396   2.64036
 Alpha virt. eigenvalues --    2.66571   2.68451   2.71209   2.72935   2.76245
 Alpha virt. eigenvalues --    2.76516   2.79152   2.81904   2.86172   2.91986
 Alpha virt. eigenvalues --    2.93056   3.12902   3.13116   3.21872   3.22139
 Alpha virt. eigenvalues --    3.25239   3.31148   3.32299   3.34521   3.34761
 Alpha virt. eigenvalues --    3.37695   3.57094   3.58426   3.66068   3.74229
 Alpha virt. eigenvalues --    3.96877   4.15977   4.16578   4.27896   4.42193
 Alpha virt. eigenvalues --    4.54255   4.57721   4.67298   4.69176   4.75310
 Alpha virt. eigenvalues --    5.22561   5.39336   6.08677   6.55795   6.87031
 Alpha virt. eigenvalues --    6.93480   6.97548   7.00317   7.09610   7.19976
 Alpha virt. eigenvalues --    7.32164   7.40003   7.49594   7.52285   7.78761
 Alpha virt. eigenvalues --    8.18487  12.91692  79.83431
          Condensed to atoms (all electrons):
               1          2          3          4
     1  O    8.757571  -0.159943  -0.139708   0.163557
     2  Cl  -0.159943  17.190655   0.021120  -0.031035
     3  Br  -0.139708   0.021120  25.643629   0.014972
     4  H    0.163557  -0.031035   0.014972   0.670217
 Mulliken charges:
               1
     1  O   -0.621478
     2  Cl  -0.020797
     3  Br  -0.540013
     4  H    0.182288
 Sum of Mulliken charges =  -1.00000
 Mulliken charges with hydrogens summed into heavy atoms:
               1
     1  O   -0.439190
     2  Cl  -0.020797
     3  Br  -0.540013
 Electronic spatial extent (au):  <R**2>=           1133.3754
 Charge=             -1.0000 electrons
 Dipole moment (field-independent basis, Debye):
    X=              0.1386    Y=              6.8023    Z=              0.0000  Tot=              6.8037
 Quadrupole moment (field-independent basis, Debye-Ang):
   XX=            -45.8506   YY=            -64.8417   ZZ=            -42.4151
   XY=             -5.7003   XZ=              0.0000   YZ=             -0.0000
 Traceless Quadrupole moment (field-independent basis, Debye-Ang):
   XX=              5.1852   YY=            -13.8059   ZZ=              8.6207
   XY=             -5.7003   XZ=              0.0000   YZ=             -0.0000
 Octapole moment (field-independent basis, Debye-Ang**2):
  XXX=            -24.6281  YYY=            258.0871  ZZZ=              0.0000  XYY=              7.9751
  XXY=             67.9650  XXZ=              0.0000  XZZ=             -8.4444  YZZ=             64.0785
  YYZ=              0.0000  XYZ=             -0.0000
 Hexadecapole moment (field-independent basis, Debye-Ang**3):
 XXXX=           -349.9802 YYYY=          -1369.8701 ZZZZ=            -58.2072 XXXY=           -139.8518
 XXXZ=              0.0000 YYYX=           -179.9249 YYYZ=             -0.0000 ZZZX=              0.0000
 ZZZY=             -0.0000 XXYY=           -271.8501 XXZZ=            -71.7783 YYZZ=           -209.4301
 XXYZ=             -0.0000 YYXZ=             -0.0000 ZZXY=            -45.7494
 N-N= 1.506338778049D+02 E-N=-2.610508024224D+03  KE= 8.302315100009D+02
 No NMR shielding tensors so no spin-rotation constants.
 Leave Link  601 at Tue Oct 19 14:37:10 2021, MaxMem= 16106127360 cpu:               4.3 elap:               0.2
 (Enter /sw/contrib/gaussian/g16/B01/g16/l607.exe)
 ******************************Gaussian NBO Version 3.1******************************
             N A T U R A L   A T O M I C   O R B I T A L   A N D
          N A T U R A L   B O N D   O R B I T A L   A N A L Y S I S
 ******************************Gaussian NBO Version 3.1******************************
       /RESON  / : Allow strongly delocalized NBO set

 Analyzing the MP2 density

 Job title: title                                                           

 Storage needed:     91686 in NPA,    121697 in NBO (********** available)
 GSVD:  LWork=        2436 too small for GESVD, short by       52200 words or       52200 for optimal perf.


 NATURAL POPULATIONS:  Natural atomic orbital occupancies 
                                                          
   NAO  Atom  No  lang   Type(AO)    Occupancy
 --------------------------------------------
     1    O    1  S      Cor( 1S)     1.99985
     2    O    1  S      Val( 2S)     1.85709
     3    O    1  S      Ryd( 3S)     0.01297
     4    O    1  S      Ryd( 4S)     0.00129
     5    O    1  S      Ryd( 5S)     0.00018
     6    O    1  px     Val( 2p)     1.16527
     7    O    1  px     Ryd( 3p)     0.00831
     8    O    1  px     Ryd( 5p)     0.00071
     9    O    1  px     Ryd( 4p)     0.00078
    10    O    1  py     Val( 2p)     1.76763
    11    O    1  py     Ryd( 3p)     0.01605
    12    O    1  py     Ryd( 4p)     0.00064
    13    O    1  py     Ryd( 5p)     0.00025
    14    O    1  pz     Val( 2p)     1.94309
    15    O    1  pz     Ryd( 3p)     0.02362
    16    O    1  pz     Ryd( 4p)     0.00060
    17    O    1  pz     Ryd( 5p)     0.00015
    18    O    1  dxy    Ryd( 3d)     0.00847
    19    O    1  dxy    Ryd( 4d)     0.00056
    20    O    1  dxy    Ryd( 5d)     0.00013
    21    O    1  dxz    Ryd( 3d)     0.00873
    22    O    1  dxz    Ryd( 4d)     0.00059
    23    O    1  dxz    Ryd( 5d)     0.00012
    24    O    1  dyz    Ryd( 3d)     0.00665
    25    O    1  dyz    Ryd( 4d)     0.00068
    26    O    1  dyz    Ryd( 5d)     0.00024
    27    O    1  dx2y2  Ryd( 3d)     0.00974
    28    O    1  dx2y2  Ryd( 4d)     0.00043
    29    O    1  dx2y2  Ryd( 5d)     0.00014
    30    O    1  dz2    Ryd( 3d)     0.00776
    31    O    1  dz2    Ryd( 4d)     0.00065
    32    O    1  dz2    Ryd( 5d)     0.00015
    33    O    1  f(0)   Ryd( 4f)     0.00064
    34    O    1  f(0)   Ryd( 5f)     0.00011
    35    O    1  f(C1)  Ryd( 4f)     0.00065
    36    O    1  f(C1)  Ryd( 5f)     0.00012
    37    O    1  f(S1)  Ryd( 4f)     0.00061
    38    O    1  f(S1)  Ryd( 5f)     0.00013
    39    O    1  f(C2)  Ryd( 4f)     0.00068
    40    O    1  f(C2)  Ryd( 5f)     0.00014
    41    O    1  f(S2)  Ryd( 4f)     0.00056
    42    O    1  f(S2)  Ryd( 5f)     0.00012
    43    O    1  f(C3)  Ryd( 4f)     0.00066
    44    O    1  f(C3)  Ryd( 5f)     0.00014
    45    O    1  f(S3)  Ryd( 4f)     0.00064
    46    O    1  f(S3)  Ryd( 5f)     0.00013

    47   Cl    2  S      Cor( 1S)     2.00000
    48   Cl    2  S      Cor( 2S)     1.99974
    49   Cl    2  S      Val( 3S)     1.87434
    50   Cl    2  S      Ryd( 4S)     0.00930
    51   Cl    2  S      Ryd( 5S)     0.00061
    52   Cl    2  S      Ryd( 6S)     0.00018
    53   Cl    2  px     Cor( 2p)     1.99995
    54   Cl    2  px     Val( 3p)     0.95719
    55   Cl    2  px     Ryd( 4p)     0.00748
    56   Cl    2  px     Ryd( 5p)     0.00058
    57   Cl    2  px     Ryd( 6p)     0.00022
    58   Cl    2  py     Cor( 2p)     2.00003
    59   Cl    2  py     Val( 3p)     1.95134
    60   Cl    2  py     Ryd( 4p)     0.01142
    61   Cl    2  py     Ryd( 5p)     0.00061
    62   Cl    2  py     Ryd( 6p)     0.00006
    63   Cl    2  pz     Cor( 2p)     2.00003
    64   Cl    2  pz     Val( 3p)     1.95269
    65   Cl    2  pz     Ryd( 4p)     0.01202
    66   Cl    2  pz     Ryd( 5p)     0.00077
    67   Cl    2  pz     Ryd( 6p)     0.00003
    68   Cl    2  dxy    Ryd( 3d)     0.02105
    69   Cl    2  dxy    Ryd( 4d)     0.00125
    70   Cl    2  dxy    Ryd( 5d)     0.00038
    71   Cl    2  dxz    Ryd( 3d)     0.02421
    72   Cl    2  dxz    Ryd( 4d)     0.00147
    73   Cl    2  dxz    Ryd( 5d)     0.00039
    74   Cl    2  dyz    Ryd( 3d)     0.01707
    75   Cl    2  dyz    Ryd( 4d)     0.00071
    76   Cl    2  dyz    Ryd( 5d)     0.00025
    77   Cl    2  dx2y2  Ryd( 3d)     0.01915
    78   Cl    2  dx2y2  Ryd( 4d)     0.00053
    79   Cl    2  dx2y2  Ryd( 5d)     0.00020
    80   Cl    2  dz2    Ryd( 3d)     0.01795
    81   Cl    2  dz2    Ryd( 4d)     0.00061
    82   Cl    2  dz2    Ryd( 5d)     0.00023
    83   Cl    2  f(0)   Ryd( 4f)     0.00133
    84   Cl    2  f(0)   Ryd( 5f)     0.00015
    85   Cl    2  f(C1)  Ryd( 4f)     0.00154
    86   Cl    2  f(C1)  Ryd( 5f)     0.00015
    87   Cl    2  f(S1)  Ryd( 4f)     0.00128
    88   Cl    2  f(S1)  Ryd( 5f)     0.00013
    89   Cl    2  f(C2)  Ryd( 4f)     0.00137
    90   Cl    2  f(C2)  Ryd( 5f)     0.00015
    91   Cl    2  f(S2)  Ryd( 4f)     0.00123
    92   Cl    2  f(S2)  Ryd( 5f)     0.00014
    93   Cl    2  f(C3)  Ryd( 4f)     0.00172
    94   Cl    2  f(C3)  Ryd( 5f)     0.00015
    95   Cl    2  f(S3)  Ryd( 4f)     0.00135
    96   Cl    2  f(S3)  Ryd( 5f)     0.00017

    97   Br    3  S      Cor( 3S)     1.99938
    98   Br    3  S      Val( 4S)     1.91990
    99   Br    3  S      Ryd( 5S)     0.00126
   100   Br    3  S      Ryd( 6S)     0.00054
   101   Br    3  S      Ryd( 7S)     0.00020
   102   Br    3  S      Ryd( 8S)     0.00000
   103   Br    3  px     Cor( 3p)     1.99994
   104   Br    3  px     Val( 4p)     1.93625
   105   Br    3  px     Ryd( 5p)     0.00981
   106   Br    3  px     Ryd( 6p)     0.00074
   107   Br    3  px     Ryd( 7p)     0.00015
   108   Br    3  py     Cor( 3p)     1.99977
   109   Br    3  py     Val( 4p)     1.64012
   110   Br    3  py     Ryd( 5p)     0.00824
   111   Br    3  py     Ryd( 6p)     0.00066
   112   Br    3  py     Ryd( 7p)     0.00015
   113   Br    3  pz     Cor( 3p)     1.99995
   114   Br    3  pz     Val( 4p)     1.95482
   115   Br    3  pz     Ryd( 5p)     0.00988
   116   Br    3  pz     Ryd( 6p)     0.00073
   117   Br    3  pz     Ryd( 7p)     0.00011
   118   Br    3  dxy    Cor( 3d)     1.99763
   119   Br    3  dxy    Ryd( 4d)     0.01783
   120   Br    3  dxy    Ryd( 5d)     0.00120
   121   Br    3  dxy    Ryd( 6d)     0.00023
   122   Br    3  dxz    Cor( 3d)     1.99771
   123   Br    3  dxz    Ryd( 4d)     0.01782
   124   Br    3  dxz    Ryd( 5d)     0.00159
   125   Br    3  dxz    Ryd( 6d)     0.00023
   126   Br    3  dyz    Cor( 3d)     1.99767
   127   Br    3  dyz    Ryd( 4d)     0.01771
   128   Br    3  dyz    Ryd( 5d)     0.00122
   129   Br    3  dyz    Ryd( 6d)     0.00025
   130   Br    3  dx2y2  Cor( 3d)     1.99754
   131   Br    3  dx2y2  Ryd( 4d)     0.01859
   132   Br    3  dx2y2  Ryd( 5d)     0.00135
   133   Br    3  dx2y2  Ryd( 6d)     0.00024
   134   Br    3  dz2    Cor( 3d)     1.99764
   135   Br    3  dz2    Ryd( 4d)     0.01818
   136   Br    3  dz2    Ryd( 5d)     0.00155
   137   Br    3  dz2    Ryd( 6d)     0.00017
   138   Br    3  f(0)   Ryd( 4f)     0.00167
   139   Br    3  f(0)   Ryd( 5f)     0.00025
   140   Br    3  f(C1)  Ryd( 4f)     0.00170
   141   Br    3  f(C1)  Ryd( 5f)     0.00023
   142   Br    3  f(S1)  Ryd( 4f)     0.00176
   143   Br    3  f(S1)  Ryd( 5f)     0.00027
   144   Br    3  f(C2)  Ryd( 4f)     0.00165
   145   Br    3  f(C2)  Ryd( 5f)     0.00024
   146   Br    3  f(S2)  Ryd( 4f)     0.00166
   147   Br    3  f(S2)  Ryd( 5f)     0.00024
   148   Br    3  f(C3)  Ryd( 4f)     0.00169
   149   Br    3  f(C3)  Ryd( 5f)     0.00025
   150   Br    3  f(S3)  Ryd( 4f)     0.00172
   151   Br    3  f(S3)  Ryd( 5f)     0.00027

   152    H    4  S      Val( 1S)     0.64557
   153    H    4  S      Ryd( 2S)     0.00592
   154    H    4  S      Ryd( 3S)     0.00078
   155    H    4  S      Ryd( 4S)     0.00017
   156    H    4  px     Ryd( 2p)     0.00491
   157    H    4  px     Ryd( 3p)     0.00045
   158    H    4  px     Ryd( 4p)     0.00011
   159    H    4  py     Ryd( 2p)     0.00495
   160    H    4  py     Ryd( 3p)     0.00135
   161    H    4  py     Ryd( 4p)     0.00021
   162    H    4  pz     Ryd( 2p)     0.00635
   163    H    4  pz     Ryd( 3p)     0.00054
   164    H    4  pz     Ryd( 4p)     0.00027
   165    H    4  dxy    Ryd( 3d)     0.00030
   166    H    4  dxy    Ryd( 4d)     0.00011
   167    H    4  dxz    Ryd( 3d)     0.00026
   168    H    4  dxz    Ryd( 4d)     0.00008
   169    H    4  dyz    Ryd( 3d)     0.00031
   170    H    4  dyz    Ryd( 4d)     0.00008
   171    H    4  dx2y2  Ryd( 3d)     0.00033
   172    H    4  dx2y2  Ryd( 4d)     0.00019
   173    H    4  dz2    Ryd( 3d)     0.00027
   174    H    4  dz2    Ryd( 4d)     0.00016

 [ 10 electrons found in the effective core potential]

 WARNING:  5 low occupancy (<1.9990e) core orbitals found on Br    3


 Summary of Natural Population Analysis:                  
                                                          
                                       Natural Population 
                Natural  -----------------------------------------------
    Atom  No    Charge         Core      Valence    Rydberg      Total
 -----------------------------------------------------------------------
      O    1   -0.84884      1.99985     6.73308    0.11591     8.84884
     Cl    2    0.10509      9.99976     6.73556    0.15959    16.89491
     Br    3   -0.58256     27.98723     7.45109    0.14424    35.58256
      H    4    0.32631      0.00000     0.64557    0.02812     0.67369
 =======================================================================
   * Total *   -1.00000     39.98684    21.56530    0.44786    62.00000

                                 Natural Population      
 --------------------------------------------------------
   Effective Core            10.00000
   Core                      29.98684 ( 99.9561% of  30)
   Valence                   21.56530 ( 98.0241% of  22)
   Natural Minimal Basis     61.55214 ( 99.2776% of  62)
   Natural Rydberg Basis      0.44786 (  0.7224% of  62)
 --------------------------------------------------------

    Atom  No          Natural Electron Configuration
 ----------------------------------------------------------------------------
      O    1      [core]2S( 1.86)2p( 4.88)3S( 0.01)3p( 0.05)3d( 0.04)
     Cl    2      [core]3S( 1.87)3p( 4.86)4S( 0.01)3d( 0.10)4p( 0.03)4f( 0.01)
     Br    3      [core]4S( 1.92)4p( 5.53)4d( 0.09)5p( 0.03)4f( 0.01)5d( 0.01)
      H    4            1S( 0.65)2S( 0.01)2p( 0.02)


 NATURAL BOND ORBITAL ANALYSIS:
 Warning:  a bond orbital has occupanc of -0.00002
 Warning:  a bond orbital has occupanc of -0.00026

                       Occupancies       Lewis Structure    Low   High
           Occ.    -------------------  -----------------   occ   occ
  Cycle   Thresh.   Lewis   Non-Lewis     CR  BD  3C  LP    (L)   (NL)   Dev
 =============================================================================
   1(1)    1.90    61.12494   0.87506     15   2   0   9     1      1    0.51
 Warning:  a bond orbital has occupanc of -0.00002
 Warning:  a bond orbital has occupanc of -0.00026
   2(2)    1.90    61.26961   0.73039     15   2   0   9     1      1    0.31
 Warning:  a bond orbital has occupanc of -0.00002
 Warning:  a bond orbital has occupanc of -0.00026
   3(3)    1.90    61.12494   0.87506     15   2   0   9     1      1    0.51
 Warning:  a bond orbital has occupanc of -0.00002
 Warning:  a bond orbital has occupanc of -0.00026
   4(4)    1.90    61.26961   0.73039     15   2   0   9     1      1    0.31
 Warning:  a bond orbital has occupanc of -0.00002
 Warning:  a bond orbital has occupanc of -0.00026
   5(1)    1.80    61.26961   0.73039     15   2   0   9     1      1    0.31
 Warning:  a bond orbital has occupanc of -0.00002
 Warning:  a bond orbital has occupanc of -0.00026
   6(2)    1.80    61.12494   0.87506     15   2   0   9     1      1    0.51
 Warning:  a bond orbital has occupanc of -0.00002
 Warning:  a bond orbital has occupanc of -0.00026
   7(3)    1.80    61.26961   0.73039     15   2   0   9     1      1    0.31
 Warning:  a bond orbital has occupanc of -0.00002
 Warning:  a bond orbital has occupanc of -0.00026
   8(1)    1.70    61.28202   0.71798     15   2   0   9     0      1    0.31
 Warning:  a bond orbital has occupanc of -0.00002
 Warning:  a bond orbital has occupanc of -0.00026
   9(2)    1.70    61.28202   0.71798     15   2   0   9     0      1    0.31
 Warning:  a bond orbital has occupanc of -0.00002
 Warning:  a bond orbital has occupanc of -0.00026
  10(1)    1.60    61.28202   0.71798     15   2   0   9     0      1    0.31
 Warning:  a bond orbital has occupanc of -0.00002
 Warning:  a bond orbital has occupanc of -0.00026
  11(2)    1.60    61.28202   0.71798     15   2   0   9     0      1    0.31
 Warning:  a bond orbital has occupanc of -0.00002
 Warning:  a bond orbital has occupanc of -0.00026
  12(1)    1.50    60.89874   1.10126     15   1   0  10     0      1    0.51
 Warning:  a bond orbital has occupanc of -0.00002
 Warning:  a bond orbital has occupanc of -0.00026
  13(2)    1.50    60.89874   1.10126     15   1   0  10     0      1    0.51
 Warning:  a bond orbital has occupanc of -0.00002
 Warning:  a bond orbital has occupanc of -0.00026
  14(1)    1.70    61.28202   0.71798     15   2   0   9     0      1    0.31
 -----------------------------------------------------------------------------

 Structure accepted: RESONANCE keyword permits strongly delocalized structure

 WARNING:  5 low occupancy (<1.9990e) core orbitals found on Br    3

 --------------------------------------------------------
   Effective Core           10.00000
   Core                     29.98684 ( 99.956% of  30)
   Valence Lewis            21.29517 ( 96.796% of  22)
  ==================       ============================
   Total Lewis              61.28202 ( 98.842% of  62)
  -----------------------------------------------------
   Valence non-Lewis         0.31777 (  0.513% of  62)
   Rydberg non-Lewis         0.40021 (  0.646% of  62)
  ==================       ============================
   Total non-Lewis           0.71798 (  1.158% of  62)
 --------------------------------------------------------


       (Occupancy)   Bond orbital/ Coefficients/ Hybrids
 ---------------------------------------------------------------------------------
     1. (1.93502) BD ( 1) O   1 -Cl   2  
                ( 56.47%)   0.7514* O   1 s(  8.39%)p10.86( 91.12%)d 0.06(  0.48%)
                                                  f 0.00(  0.02%)
                                            0.0003  0.2819 -0.0645  0.0161 -0.0017
                                            0.9527 -0.0485 -0.0121 -0.0192  0.0135
                                           -0.0193 -0.0031  0.0029  0.0000  0.0000
                                            0.0000  0.0000 -0.0100 -0.0013  0.0008
                                            0.0000  0.0000  0.0000  0.0000  0.0000
                                            0.0000  0.0560  0.0036  0.0011 -0.0388
                                           -0.0031 -0.0001  0.0000  0.0000 -0.0104
                                            0.0008 -0.0005  0.0001  0.0000  0.0000
                                            0.0000  0.0000  0.0087  0.0007 -0.0006
                                            0.0010
                ( 43.53%)   0.6598*Cl   2 s(  9.73%)p 9.16( 89.10%)d 0.11(  1.05%)
                                                  f 0.01(  0.12%)
                                           -0.0000  0.0007  0.3049 -0.0647 -0.0113
                                           -0.0021 -0.0004 -0.9414  0.0669  0.0130
                                           -0.0024  0.0000 -0.0079 -0.0042  0.0027
                                           -0.0019  0.0000  0.0000  0.0000  0.0000
                                            0.0000  0.0069 -0.0013 -0.0008  0.0000
                                            0.0000  0.0000  0.0000  0.0000  0.0000
                                            0.0853 -0.0136 -0.0022 -0.0537  0.0087
                                            0.0023  0.0000  0.0000  0.0217 -0.0028
                                            0.0003 -0.0001  0.0000  0.0000  0.0000
                                            0.0000 -0.0268  0.0029 -0.0009  0.0006
     2. (1.95450) BD ( 1)Br   3 - H   4  
                ( 77.35%)   0.8795*Br   3 s( 13.83%)p 6.21( 85.87%)d 0.02(  0.28%)
                                                  f 0.00(  0.02%)
                                            0.0004  0.3719 -0.0026 -0.0039  0.0004
                                            0.0006  0.0001  0.2167 -0.0033 -0.0012
                                            0.0007  0.0006  0.9007 -0.0175 -0.0069
                                            0.0031  0.0000  0.0000  0.0000  0.0000
                                            0.0000  0.0000  0.0203 -0.0022  0.0004
                                            0.0000  0.0000  0.0000  0.0000  0.0000
                                            0.0000  0.0000  0.0000 -0.0000 -0.0402
                                            0.0032 -0.0007 -0.0000 -0.0269  0.0026
                                           -0.0008  0.0000  0.0000 -0.0022 -0.0001
                                           -0.0090 -0.0006  0.0000  0.0000  0.0000
                                            0.0000 -0.0077 -0.0003 -0.0087 -0.0010
                ( 22.65%)   0.4759* H   4 s( 99.78%)p 0.00(  0.19%)d 0.00(  0.03%)
                                            0.9986 -0.0152 -0.0172 -0.0001 -0.0076
                                           -0.0029 -0.0049 -0.0319 -0.0274 -0.0079
                                            0.0000  0.0000  0.0000  0.0000  0.0078
                                            0.0000  0.0000  0.0000  0.0000 -0.0005
                                           -0.0130 -0.0006 -0.0099
     3. (1.99985) CR ( 1) O   1           s(100.00%)p 0.00(  0.00%)
                                            1.0000 -0.0001  0.0000 -0.0000  0.0000
                                           -0.0003  0.0000  0.0000  0.0000 -0.0004
                                            0.0000  0.0000 -0.0000  0.0000  0.0000
                                            0.0000  0.0000 -0.0000 -0.0000  0.0000
                                            0.0000  0.0000  0.0000  0.0000  0.0000
                                            0.0000 -0.0000 -0.0000  0.0000  0.0000
                                            0.0000  0.0000  0.0000  0.0000  0.0000
                                           -0.0000  0.0000 -0.0000  0.0000  0.0000
                                            0.0000  0.0000 -0.0000  0.0000 -0.0000
                                           -0.0000
     4. (2.00000) CR ( 1)Cl   2           s(100.00%)
                                            1.0000  0.0000  0.0000 -0.0000 -0.0000
                                           -0.0000 -0.0000 -0.0000  0.0000  0.0000
                                           -0.0000  0.0000 -0.0000 -0.0000  0.0000
                                           -0.0000  0.0000  0.0000  0.0000  0.0000
                                            0.0000  0.0000 -0.0000 -0.0000  0.0000
                                            0.0000  0.0000  0.0000  0.0000  0.0000
                                            0.0000 -0.0000 -0.0000 -0.0000  0.0000
                                            0.0000  0.0000  0.0000  0.0000 -0.0000
                                            0.0000 -0.0000  0.0000  0.0000  0.0000
                                            0.0000 -0.0000  0.0000 -0.0000  0.0000
     5. (1.99975) CR ( 2)Cl   2           s(100.00%)p 0.00(  0.00%)
                                            0.0000  1.0000 -0.0005  0.0000  0.0000
                                            0.0000  0.0000  0.0006 -0.0000 -0.0000
                                            0.0000 -0.0000  0.0000  0.0000 -0.0000
                                            0.0000  0.0000  0.0000  0.0000  0.0000
                                            0.0000 -0.0000  0.0000  0.0000  0.0000
                                            0.0000  0.0000  0.0000  0.0000  0.0000
                                           -0.0001  0.0000  0.0000  0.0000 -0.0000
                                           -0.0000  0.0000  0.0000 -0.0000  0.0000
                                           -0.0000  0.0000  0.0000  0.0000  0.0000
                                            0.0000  0.0000 -0.0000  0.0000 -0.0000
     6. (1.99995) CR ( 3)Cl   2           s(  0.00%)p 1.00(100.00%)
                                           -0.0000  0.0000  0.0001 -0.0000 -0.0000
                                           -0.0000  1.0000 -0.0004  0.0000  0.0000
                                           -0.0000  0.0000 -0.0000 -0.0000  0.0000
                                           -0.0000  0.0000  0.0000  0.0000  0.0000
                                            0.0000  0.0000 -0.0000 -0.0000  0.0000
                                            0.0000  0.0000  0.0000  0.0000  0.0000
                                            0.0000 -0.0000 -0.0000 -0.0000  0.0000
                                            0.0000  0.0000  0.0000  0.0000 -0.0000
                                            0.0000 -0.0000  0.0000  0.0000  0.0000
                                            0.0000 -0.0000  0.0000 -0.0000  0.0000
     7. (2.00003) CR ( 4)Cl   2           s(  0.00%)p 1.00(100.00%)
                                            0.0000 -0.0000  0.0000  0.0000  0.0000
                                           -0.0000  0.0000  0.0000  0.0000  0.0000
                                           -0.0000  1.0000  0.0001  0.0000  0.0000
                                            0.0000  0.0000  0.0000  0.0000  0.0000
                                            0.0000  0.0000  0.0000  0.0000  0.0000
                                            0.0000  0.0000  0.0000  0.0000  0.0000
                                           -0.0000 -0.0000 -0.0000  0.0000 -0.0000
                                            0.0000  0.0000  0.0000  0.0000  0.0000
                                           -0.0000  0.0000  0.0000  0.0000  0.0000
                                            0.0000 -0.0000  0.0000  0.0000 -0.0000
     8. (2.00003) CR ( 5)Cl   2           s(  0.00%)p 1.00(100.00%)
                                            0.0000  0.0000  0.0000  0.0000  0.0000
                                            0.0000  0.0000  0.0000  0.0000  0.0000
                                            0.0000  0.0000  0.0000  0.0000  0.0000
                                            0.0000  1.0000  0.0001  0.0000  0.0000
                                           -0.0000  0.0000  0.0000  0.0000  0.0000
                                            0.0000  0.0000  0.0000  0.0000 -0.0000
                                            0.0000  0.0000  0.0000  0.0000  0.0000
                                            0.0000 -0.0000  0.0000  0.0000  0.0000
                                            0.0000  0.0000  0.0000 -0.0000  0.0000
                                           -0.0000  0.0000  0.0000  0.0000  0.0000
     9. (1.99938) CR ( 1)Br   3           s(100.00%)p 0.00(  0.00%)
                                            1.0000 -0.0006  0.0000  0.0000  0.0000
                                           -0.0000 -0.0000 -0.0000  0.0000  0.0000
                                           -0.0000 -0.0000 -0.0002  0.0000  0.0000
                                           -0.0000  0.0000  0.0000  0.0000  0.0000
                                            0.0000  0.0000 -0.0000  0.0000  0.0000
                                            0.0000  0.0000  0.0000  0.0000  0.0000
                                            0.0000  0.0000  0.0000 -0.0000  0.0000
                                           -0.0000  0.0000 -0.0000  0.0000 -0.0000
                                           -0.0000  0.0000  0.0000  0.0000  0.0000
                                            0.0000  0.0000  0.0000  0.0000  0.0000
                                            0.0000  0.0000  0.0000  0.0000  0.0000
    10. (1.99994) CR ( 2)Br   3           s(  0.00%)p 1.00(100.00%)
                                           -0.0000  0.0000  0.0000  0.0000 -0.0000
                                           -0.0000  1.0000 -0.0005 -0.0000 -0.0000
                                            0.0000 -0.0000 -0.0000  0.0000  0.0000
                                           -0.0000  0.0000  0.0000  0.0000  0.0000
                                            0.0000  0.0000 -0.0000  0.0000  0.0000
                                            0.0000  0.0000  0.0000  0.0000  0.0000
                                            0.0000  0.0000  0.0000  0.0000  0.0000
                                           -0.0000  0.0000  0.0000  0.0000 -0.0000
                                           -0.0000  0.0000  0.0000  0.0000 -0.0000
                                            0.0000  0.0000  0.0000  0.0000  0.0000
                                            0.0000  0.0000 -0.0000 -0.0000  0.0000
    11. (1.99978) CR ( 3)Br   3           s(  0.00%)p 1.00(100.00%)
                                           -0.0000  0.0001  0.0000  0.0000 -0.0000
                                           -0.0000 -0.0000 -0.0000  0.0000  0.0000
                                           -0.0000  1.0000 -0.0007  0.0000  0.0000
                                           -0.0000  0.0000  0.0000  0.0000  0.0000
                                            0.0000 -0.0000 -0.0000  0.0000 -0.0000
                                            0.0000  0.0000  0.0000  0.0000  0.0000
                                            0.0000  0.0000  0.0000  0.0000  0.0000
                                           -0.0000  0.0000  0.0000  0.0000 -0.0000
                                            0.0000  0.0000  0.0000  0.0000  0.0000
                                            0.0000  0.0000  0.0000  0.0000  0.0000
                                            0.0000  0.0000  0.0000  0.0000  0.0000
    12. (1.99995) CR ( 4)Br   3           s(  0.00%)p 1.00(100.00%)
                                            0.0000  0.0000  0.0000  0.0000  0.0000
                                            0.0000  0.0000  0.0000  0.0000  0.0000
                                            0.0000  0.0000  0.0000  0.0000  0.0000
                                            0.0000  1.0000 -0.0005 -0.0000 -0.0000
                                            0.0000  0.0000  0.0000  0.0000  0.0000
                                            0.0000 -0.0000 -0.0000  0.0000  0.0000
                                           -0.0000 -0.0000  0.0000  0.0000  0.0000
                                            0.0000  0.0000  0.0000  0.0000  0.0000
                                            0.0000  0.0000 -0.0000  0.0000  0.0000
                                            0.0000  0.0000  0.0000 -0.0000 -0.0000
                                            0.0000  0.0000  0.0000  0.0000  0.0000
    13. (1.99763) CR ( 5)Br   3           s(  0.00%)p 0.00(  0.00%)d 1.00(100.00%)
                                            0.0000  0.0000  0.0000  0.0000 -0.0000
                                           -0.0000  0.0000  0.0000  0.0000  0.0000
                                           -0.0000 -0.0000 -0.0000  0.0000  0.0000
                                           -0.0000  0.0000  0.0000  0.0000  0.0000
                                            0.0000  1.0000  0.0000  0.0000 -0.0000
                                            0.0000  0.0000  0.0000  0.0000  0.0000
                                            0.0000  0.0000  0.0000  0.0000  0.0000
                                            0.0000 -0.0000  0.0000  0.0000 -0.0000
                                            0.0000  0.0000  0.0000 -0.0000  0.0000
                                            0.0000  0.0000  0.0000  0.0000  0.0000
                                            0.0000 -0.0000  0.0000  0.0000 -0.0000
    14. (1.99771) CR ( 6)Br   3           s(  0.00%)p 0.00(  0.00%)d 1.00(100.00%)
                                            0.0000  0.0000  0.0000  0.0000  0.0000
                                            0.0000  0.0000  0.0000  0.0000  0.0000
                                            0.0000  0.0000  0.0000  0.0000  0.0000
                                            0.0000  0.0000  0.0000  0.0000  0.0000
                                           -0.0000  0.0000  0.0000  0.0000  0.0000
                                            1.0000  0.0000  0.0000 -0.0000 -0.0000
                                            0.0000  0.0000 -0.0000  0.0000  0.0000
                                            0.0000  0.0000  0.0000  0.0000  0.0000
                                            0.0000 -0.0000  0.0000  0.0000  0.0000
                                            0.0000  0.0000 -0.0000  0.0000  0.0000
                                           -0.0000  0.0000  0.0000  0.0000  0.0000
    15. (1.99767) CR ( 7)Br   3           s(  0.00%)p 0.00(  0.00%)d 1.00(100.00%)
                                            0.0000  0.0000  0.0000  0.0000  0.0000
                                            0.0000  0.0000  0.0000  0.0000  0.0000
                                            0.0000  0.0000  0.0000  0.0000  0.0000
                                            0.0000  0.0000  0.0000  0.0000  0.0000
                                           -0.0000  0.0000  0.0000  0.0000  0.0000
                                           -0.0000  0.0000  0.0000 -0.0000  1.0000
                                            0.0000  0.0000 -0.0000  0.0000  0.0000
                                            0.0000  0.0000  0.0000  0.0000  0.0000
                                            0.0000 -0.0000  0.0000  0.0000  0.0000
                                            0.0000  0.0000 -0.0000  0.0000  0.0000
                                           -0.0000  0.0000  0.0000  0.0000  0.0000
    16. (1.99754) CR ( 8)Br   3           s(  0.00%)p 0.00(  0.00%)d 1.00(100.00%)
                                           -0.0000 -0.0001 -0.0000 -0.0000  0.0000
                                            0.0000  0.0000  0.0000  0.0000  0.0000
                                           -0.0000  0.0000  0.0000 -0.0000 -0.0000
                                            0.0000  0.0000  0.0000  0.0000  0.0000
                                            0.0000  0.0000  0.0000 -0.0000 -0.0000
                                            0.0000  0.0000  0.0000  0.0000  0.0000
                                            0.0000  0.0000  0.0000  1.0000 -0.0000
                                            0.0000 -0.0000 -0.0000 -0.0000  0.0000
                                           -0.0000  0.0000  0.0000 -0.0000  0.0000
                                           -0.0000 -0.0000  0.0000  0.0000  0.0000
                                            0.0000 -0.0000  0.0000 -0.0000 -0.0000
    17. (1.99764) CR ( 9)Br   3           s(  0.00%)p 0.00(  0.00%)d 1.00(100.00%)
                                           -0.0000 -0.0001 -0.0000 -0.0000  0.0000
                                            0.0000  0.0000  0.0000 -0.0000  0.0000
                                            0.0000  0.0000  0.0000 -0.0000 -0.0000
                                            0.0000  0.0000  0.0000  0.0000  0.0000
                                            0.0000  0.0000  0.0000 -0.0000  0.0000
                                            0.0000  0.0000  0.0000  0.0000  0.0000
                                            0.0000  0.0000  0.0000 -0.0000 -0.0000
                                            0.0000 -0.0000  1.0000 -0.0000  0.0000
                                           -0.0000  0.0000  0.0000 -0.0000 -0.0000
                                           -0.0000 -0.0000  0.0000  0.0000  0.0000
                                            0.0000 -0.0000 -0.0000 -0.0000 -0.0000
    18. (1.96707) LP ( 1) O   1           s( 73.70%)p 0.36( 26.25%)d 0.00(  0.04%)
                                                  f 0.00(  0.00%)
                                            0.0002  0.8584  0.0104 -0.0073 -0.0012
                                           -0.2591  0.0033 -0.0039  0.0005  0.4420
                                            0.0062  0.0038  0.0013  0.0000  0.0000
                                            0.0000  0.0000  0.0186  0.0028 -0.0019
                                            0.0000  0.0000  0.0000  0.0000  0.0000
                                            0.0000  0.0043 -0.0004 -0.0029  0.0036
                                           -0.0004  0.0009  0.0000  0.0000 -0.0004
                                            0.0006 -0.0009 -0.0002  0.0000  0.0000
                                            0.0000  0.0000  0.0033 -0.0020  0.0047
                                           -0.0009
    19. (1.94679) LP ( 2) O   1           s(  0.00%)p 1.00( 99.86%)d 0.00(  0.13%)
                                                  f 0.00(  0.01%)
                                            0.0000  0.0000  0.0000  0.0000  0.0000
                                            0.0000  0.0000  0.0000  0.0000  0.0000
                                            0.0000  0.0000  0.0000  0.9990  0.0166
                                            0.0044  0.0129  0.0000  0.0000  0.0000
                                            0.0321  0.0040 -0.0031 -0.0127  0.0039
                                            0.0087  0.0000  0.0000  0.0000  0.0000
                                            0.0000  0.0000 -0.0081 -0.0002  0.0000
                                            0.0000  0.0000  0.0000  0.0082 -0.0025
                                           -0.0002  0.0011  0.0000  0.0000  0.0000
                                            0.0000
    20. (1.72453) LP ( 3) O   1           s( 18.32%)p 4.45( 81.51%)d 0.01(  0.16%)
                                                  f 0.00(  0.01%)
                                           -0.0003  0.4278  0.0021  0.0100  0.0035
                                           -0.1130  0.0055  0.0011  0.0066 -0.8956
                                           -0.0138  0.0001  0.0030 -0.0000 -0.0000
                                           -0.0000 -0.0000 -0.0204 -0.0038 -0.0001
                                           -0.0000 -0.0000 -0.0000 -0.0000 -0.0000
                                           -0.0000 -0.0289 -0.0044  0.0017 -0.0177
                                           -0.0009  0.0041 -0.0000 -0.0000  0.0005
                                            0.0003  0.0074 -0.0018 -0.0000 -0.0000
                                           -0.0000 -0.0000  0.0021 -0.0000 -0.0041
                                           -0.0006
    21. (1.97417) LP ( 1)Cl   2           s( 90.60%)p 0.10(  9.37%)d 0.00(  0.03%)
                                                  f 0.00(  0.00%)
                                            0.0000  0.0003  0.9518  0.0087  0.0015
                                            0.0003  0.0001  0.3053 -0.0064 -0.0033
                                            0.0015  0.0000 -0.0211  0.0009  0.0001
                                           -0.0006  0.0000  0.0000  0.0000  0.0000
                                            0.0000 -0.0003 -0.0001 -0.0001  0.0000
                                            0.0000  0.0000  0.0000  0.0000  0.0000
                                           -0.0143 -0.0001  0.0005  0.0086  0.0004
                                           -0.0001  0.0000  0.0000 -0.0025 -0.0002
                                            0.0001 -0.0000  0.0000  0.0000  0.0000
                                            0.0000  0.0037 -0.0001 -0.0001  0.0000
    22. (1.95465) LP ( 2)Cl   2           s(  0.00%)p 1.00( 99.93%)d 0.00(  0.07%)
                                                  f 0.00(  0.01%)
                                            0.0000  0.0000  0.0000  0.0000  0.0000
                                            0.0000  0.0000  0.0000  0.0000  0.0000
                                            0.0000  0.0000  0.0000  0.0000  0.0000
                                            0.0000 -0.0001  0.9995  0.0156  0.0049
                                           -0.0021  0.0000  0.0000  0.0000  0.0133
                                            0.0207  0.0072  0.0016  0.0012 -0.0001
                                            0.0000  0.0000  0.0000  0.0000  0.0000
                                            0.0000 -0.0054  0.0017  0.0000  0.0000
                                            0.0000  0.0000  0.0063 -0.0014  0.0005
                                           -0.0004  0.0000  0.0000  0.0000  0.0000
    23. (1.95304) LP ( 3)Cl   2           s(  0.05%)p99.99( 99.89%)d 0.92(  0.05%)
                                                  f 0.14(  0.01%)
                                            0.0000 -0.0000  0.0226  0.0034  0.0037
                                           -0.0027  0.0000 -0.0017  0.0010  0.0003
                                           -0.0006 -0.0001  0.9993  0.0148  0.0017
                                            0.0005  0.0000  0.0000  0.0000  0.0000
                                            0.0000  0.0071  0.0192  0.0071  0.0000
                                            0.0000  0.0000  0.0000  0.0000  0.0000
                                           -0.0040 -0.0033 -0.0021  0.0003 -0.0013
                                            0.0002  0.0000  0.0000  0.0002  0.0000
                                           -0.0024  0.0006  0.0000  0.0000  0.0000
                                            0.0000 -0.0010  0.0003  0.0082 -0.0020
    24. (1.97509) LP ( 1)Br   3           s( 86.14%)p 0.16( 13.85%)d 0.00(  0.00%)
                                                  f 0.00(  0.00%)
                                            0.0005  0.9281  0.0012  0.0020 -0.0003
                                           -0.0002 -0.0001 -0.0947  0.0007 -0.0001
                                           -0.0001 -0.0003 -0.3599  0.0053  0.0005
                                           -0.0010  0.0000  0.0000  0.0000  0.0000
                                            0.0000 -0.0000 -0.0026  0.0004 -0.0003
                                            0.0000  0.0000  0.0000  0.0000  0.0000
                                            0.0000  0.0000  0.0000  0.0001  0.0049
                                           -0.0005  0.0005  0.0001  0.0035 -0.0005
                                            0.0006  0.0000  0.0000  0.0002  0.0000
                                            0.0006  0.0002  0.0000  0.0000  0.0000
                                            0.0000  0.0005  0.0002  0.0006  0.0002
    25. (1.95531) LP ( 2)Br   3           s(  0.00%)p 1.00( 99.98%)d 0.00(  0.02%)
                                                  f 0.00(  0.01%)
                                            0.0000  0.0000  0.0000  0.0000  0.0000
                                            0.0000  0.0000  0.0000  0.0000  0.0000
                                            0.0000  0.0000  0.0000  0.0000  0.0000
                                            0.0000  0.0005  0.9999  0.0063  0.0025
                                           -0.0010  0.0000  0.0000  0.0000  0.0000
                                           -0.0000  0.0017  0.0006 -0.0020 -0.0000
                                            0.0106  0.0001 -0.0057  0.0000  0.0000
                                            0.0000  0.0000  0.0000  0.0000  0.0000
                                            0.0000 -0.0042  0.0015  0.0000  0.0000
                                            0.0000  0.0000 -0.0048  0.0016  0.0024
                                           -0.0008  0.0000  0.0000  0.0000  0.0000
    26. (1.95500) LP ( 3)Br   3           s(  0.01%)p 1.00( 99.97%)d 0.00(  0.02%)
                                                  f 0.00(  0.00%)
                                            0.0000  0.0073 -0.0008 -0.0008  0.0004
                                           -0.0001  0.0005  0.9714  0.0060  0.0023
                                           -0.0011 -0.0001 -0.2368 -0.0015 -0.0009
                                            0.0003  0.0000  0.0000  0.0000  0.0000
                                            0.0000 -0.0000  0.0107  0.0003 -0.0051
                                            0.0000  0.0000  0.0000  0.0000  0.0000
                                            0.0000  0.0000  0.0000 -0.0000  0.0036
                                            0.0010 -0.0038  0.0000  0.0005 -0.0004
                                            0.0005  0.0000  0.0000 -0.0016  0.0006
                                            0.0003 -0.0002  0.0000  0.0000  0.0000
                                            0.0000 -0.0051  0.0017  0.0039 -0.0013
    27. (0.02322) RY*( 1) O   1           s(  0.00%)p 1.00( 99.40%)d 0.01(  0.56%)
                                                  f 0.00(  0.04%)
                                            0.0000  0.0000  0.0000  0.0000  0.0000
                                            0.0000  0.0000  0.0000  0.0000  0.0000
                                            0.0000  0.0000  0.0000 -0.0190  0.9963
                                           -0.0276 -0.0156  0.0000  0.0000  0.0000
                                            0.0595  0.0244  0.0035 -0.0367 -0.0007
                                            0.0101  0.0000  0.0000  0.0000  0.0000
                                            0.0000  0.0000 -0.0110  0.0083  0.0000
                                            0.0000  0.0000  0.0000  0.0107 -0.0096
                                           -0.0009  0.0009  0.0000  0.0000  0.0000
                                            0.0000
    28. (0.01887) RY*( 2) O   1           s( 21.81%)p 3.52( 76.68%)d 0.07(  1.42%)
                                                  f 0.00(  0.09%)
                                           -0.0000  0.0064  0.4665  0.0072 -0.0200
                                            0.0353 -0.2753 -0.0161  0.0259 -0.0171
                                            0.8278 -0.0204 -0.0524  0.0000  0.0000
                                            0.0000  0.0000  0.1103  0.0360  0.0151
                                            0.0000  0.0000  0.0000  0.0000  0.0000
                                            0.0000 -0.0183  0.0041  0.0032  0.0081
                                           -0.0027 -0.0089  0.0000  0.0000 -0.0038
[...]
                                            0.0000  0.0000  0.0000  0.0000  0.0000
                                            0.0385  0.7517 -0.4750  0.0000  0.0000
                                            0.0140 -0.1014 -0.4387 -0.0700  0.0000
                                            0.0000  0.0000  0.0000
   157. (0.00035) RY*( 7) H   4           s(  0.13%)p99.99( 82.03%)d99.99( 17.84%)
                                           -0.0053  0.0261 -0.0229 -0.0045 -0.0708
                                            0.8405 -0.0506  0.0416 -0.3030  0.1131
                                            0.0000  0.0000  0.0000 -0.1418 -0.1257
                                            0.0000  0.0000  0.0000  0.0000 -0.2943
                                           -0.0458  0.1945 -0.1265
   158. (0.00031) RY*( 8) H   4           s(  0.00%)p 1.00(  1.45%)d67.88( 98.55%)
                                            0.0000  0.0000  0.0000  0.0000  0.0000
                                            0.0000  0.0000  0.0000  0.0000  0.0000
                                            0.0184 -0.1189  0.0058  0.0000  0.0000
                                            0.9009 -0.3865 -0.1084  0.1128  0.0000
                                            0.0000  0.0000  0.0000
   159. (0.00032) RY*( 9) H   4           s(  2.06%)p 4.68(  9.67%)d42.77( 88.27%)
                                            0.0031 -0.0069  0.1019 -0.1010 -0.0677
                                            0.2836 -0.0625  0.0375 -0.0495  0.0626
                                            0.0000  0.0000  0.0000 -0.3366  0.0251
                                            0.0000  0.0000  0.0000  0.0000  0.5710
                                           -0.1396 -0.5614  0.3286
   160. (0.00029) RY*(10) H   4           s( 23.51%)p 0.52( 12.31%)d 2.73( 64.19%)
                                           -0.0063  0.0077 -0.2409  0.4207  0.0236
                                            0.1850  0.0777 -0.0329  0.0270 -0.2836
                                           -0.0000 -0.0000 -0.0000  0.4608  0.0751
                                           -0.0000 -0.0000 -0.0000 -0.0000 -0.2827
                                           -0.0401 -0.5802  0.0753
   161. (0.00021) RY*(11) H   4           s(  0.00%)p 1.00( 34.16%)d 1.93( 65.84%)
                                            0.0000  0.0000  0.0000  0.0000  0.0000
                                            0.0000  0.0000  0.0000  0.0000  0.0000
                                            0.0275  0.5628  0.1552  0.0000  0.0000
                                            0.1758  0.0311  0.7904  0.0425  0.0000
                                            0.0000  0.0000  0.0000
   162. (0.00022) RY*(12) H   4           s(  1.97%)p 8.05( 15.82%)d41.81( 82.21%)
                                           -0.0065  0.0220  0.1377  0.0131 -0.1136
                                           -0.3028 -0.2078  0.0014 -0.1009  0.0165
                                           -0.0000 -0.0000 -0.0000 -0.5525  0.0008
                                           -0.0000 -0.0000 -0.0000 -0.0000 -0.5968
                                           -0.2280 -0.3268 -0.0424
   163. (0.00021) RY*(13) H   4           s( 33.82%)p 0.65( 21.99%)d 1.31( 44.19%)
                                            0.0092 -0.0783 -0.3741  0.4382 -0.0158
                                            0.0660  0.0293 -0.0076  0.4062 -0.2224
                                           -0.0000 -0.0000 -0.0000 -0.4873 -0.2297
                                           -0.0000 -0.0000 -0.0000 -0.0000  0.0329
                                            0.2548  0.2014  0.2124
   164. (0.00017) RY*(14) H   4           s( 61.55%)p 0.49( 30.36%)d 0.13(  8.09%)
                                            0.0026  0.0452  0.6381  0.4541 -0.0206
                                           -0.0423 -0.1949  0.0171 -0.3368 -0.3869
                                            0.0000  0.0000  0.0000  0.0279 -0.0965
                                            0.0000  0.0000  0.0000  0.0000  0.1254
                                            0.1567  0.1470  0.0945
   165. (0.00010) RY*(15) H   4           s(  0.00%)p 1.00( 70.87%)d 0.41( 29.13%)
   166. (0.00010) RY*(16) H   4           s( 30.38%)p 2.25( 68.47%)d 0.04(  1.15%)
   167. (0.00007) RY*(17) H   4           s(  0.18%)p18.46(  3.24%)d99.99( 96.58%)
   168. (0.00007) RY*(18) H   4           s(  0.00%)p 1.00( 13.82%)d 6.24( 86.18%)
   169. (0.00005) RY*(19) H   4           s(  3.25%)p27.04( 87.96%)d 2.70(  8.78%)
   170. (0.00004) RY*(20) H   4           s(  7.35%)p 0.57(  4.17%)d12.04( 88.49%)
   171. (0.00003) RY*(21) H   4           s(  0.00%)p 1.00(  0.59%)d99.99( 99.41%)
   172. (0.00003) RY*(22) H   4           s(  3.89%)p 0.51(  1.98%)d24.18( 94.13%)
   173. (0.05580) BD*( 1) O   1 -Cl   2  
                ( 43.53%)   0.6598* O   1 s(  8.39%)p10.86( 91.12%)d 0.06(  0.48%)
                                                  f 0.00(  0.02%)
                                           -0.0003 -0.2819  0.0645 -0.0161  0.0017
                                           -0.9527  0.0485  0.0121  0.0192 -0.0135
                                            0.0193  0.0031 -0.0029 -0.0000 -0.0000
                                           -0.0000 -0.0000  0.0100  0.0013 -0.0008
                                           -0.0000 -0.0000 -0.0000 -0.0000 -0.0000
                                           -0.0000 -0.0560 -0.0036 -0.0011  0.0388
                                            0.0031  0.0001 -0.0000 -0.0000  0.0104
                                           -0.0008  0.0005 -0.0001 -0.0000 -0.0000
                                           -0.0000 -0.0000 -0.0087 -0.0007  0.0006
                                           -0.0010
                ( 56.47%)  -0.7514*Cl   2 s(  9.73%)p 9.16( 89.10%)d 0.11(  1.05%)
                                                  f 0.01(  0.12%)
                                            0.0000 -0.0007 -0.3049  0.0647  0.0113
                                            0.0021  0.0004  0.9414 -0.0669 -0.0130
                                            0.0024 -0.0000  0.0079  0.0042 -0.0027
                                            0.0019 -0.0000 -0.0000 -0.0000 -0.0000
                                           -0.0000 -0.0069  0.0013  0.0008 -0.0000
                                           -0.0000 -0.0000 -0.0000 -0.0000 -0.0000
                                           -0.0853  0.0136  0.0022  0.0537 -0.0087
                                           -0.0023 -0.0000 -0.0000 -0.0217  0.0028
                                           -0.0003  0.0001 -0.0000 -0.0000 -0.0000
                                           -0.0000  0.0268 -0.0029  0.0009 -0.0006
   174. (0.26197) BD*( 1)Br   3 - H   4  
                ( 22.65%)   0.4759*Br   3 s( 13.83%)p 6.21( 85.87%)d 0.02(  0.28%)
                                                  f 0.00(  0.02%)
                                           -0.0004 -0.3719  0.0026  0.0039 -0.0004
                                           -0.0006 -0.0001 -0.2167  0.0033  0.0012
                                           -0.0007 -0.0006 -0.9007  0.0175  0.0069
                                           -0.0031 -0.0000 -0.0000 -0.0000 -0.0000
                                           -0.0000 -0.0000 -0.0203  0.0022 -0.0004
                                           -0.0000 -0.0000 -0.0000 -0.0000 -0.0000
                                           -0.0000 -0.0000 -0.0000  0.0000  0.0402
                                           -0.0032  0.0007  0.0000  0.0269 -0.0026
                                            0.0008 -0.0000 -0.0000  0.0022  0.0001
                                            0.0090  0.0006 -0.0000 -0.0000 -0.0000
                                           -0.0000  0.0077  0.0003  0.0087  0.0010
                ( 77.35%)  -0.8795* H   4 s( 99.78%)p 0.00(  0.19%)d 0.00(  0.03%)
                                           -0.9986  0.0152  0.0172  0.0001  0.0076
                                            0.0029  0.0049  0.0319  0.0274  0.0079
                                           -0.0000 -0.0000 -0.0000 -0.0000 -0.0078
                                           -0.0000 -0.0000 -0.0000 -0.0000  0.0005
                                            0.0130  0.0006  0.0099


 NHO Directionality and "Bond Bending" (deviations from line of nuclear centers)

         [Thresholds for printing:  angular deviation  >  1.0 degree]
                                    hybrid p-character > 25.0%
                                    orbital occupancy  >  0.10e

                                Line of Centers        Hybrid 1              Hybrid 2
                                ---------------  -------------------   ------------------
                NBO               Theta   Phi    Theta   Phi    Dev    Theta   Phi    Dev
 ========================================================================================
    18. LP (   1) O   1             --     --     90.0  119.8   --       --     --    --
    19. LP (   2) O   1             --     --      0.0    0.0   --       --     --    --
    20. LP (   3) O   1             --     --     90.0  263.7   --       --     --    --
    22. LP (   2)Cl   2             --     --      0.0    0.0   --       --     --    --
    23. LP (   3)Cl   2             --     --     90.0   90.1   --       --     --    --
    25. LP (   2)Br   3             --     --      0.0    0.0   --       --     --    --
    26. LP (   3)Br   3             --     --     90.0  346.3   --       --     --    --


 Natural Bond Orbitals (Summary):

           NBO                  Occupancy  
 -----------------------------------------------
 Molecular unit  1  (OCl)
     1. BD (   1) O   1 -Cl   2          1.93502
     3. CR (   1) O   1                  1.99985
     4. CR (   1)Cl   2                  2.00000
     5. CR (   2)Cl   2                  1.99975
     6. CR (   3)Cl   2                  1.99995
     7. CR (   4)Cl   2                  2.00003
     8. CR (   5)Cl   2                  2.00003
    18. LP (   1) O   1                  1.96707
    19. LP (   2) O   1                  1.94679
    20. LP (   3) O   1                  1.72453
    21. LP (   1)Cl   2                  1.97417
    22. LP (   2)Cl   2                  1.95465
    23. LP (   3)Cl   2                  1.95304
    27. RY*(   1) O   1                  0.02322
    28. RY*(   2) O   1                  0.01887
    29. RY*(   3) O   1                  0.00911
    30. RY*(   4) O   1                  0.00687
    31. RY*(   5) O   1                  0.00678
    32. RY*(   6) O   1                  0.00634
    33. RY*(   7) O   1                  0.00578
    34. RY*(   8) O   1                  0.00518
    35. RY*(   9) O   1                  0.00219
    36. RY*(  10) O   1                  0.00071
    37. RY*(  11) O   1                  0.00070
    38. RY*(  12) O   1                  0.00070
    39. RY*(  13) O   1                  0.00061
    40. RY*(  14) O   1                  0.00058
    41. RY*(  15) O   1                  0.00054
    42. RY*(  16) O   1                  0.00052
    43. RY*(  17) O   1                  0.00050
    44. RY*(  18) O   1                  0.00049
    45. RY*(  19) O   1                  0.00048
    46. RY*(  20) O   1                  0.00048
    47. RY*(  21) O   1                  0.00047
    48. RY*(  22) O   1                  0.00047
    49. RY*(  23) O   1                  0.00043
    50. RY*(  24) O   1                  0.00038
    51. RY*(  25) O   1                  0.00029
    52. RY*(  26) O   1                  0.00015
    53. RY*(  27) O   1                  0.00012
    54. RY*(  28) O   1                  0.00013
    55. RY*(  29) O   1                  0.00009
    56. RY*(  30) O   1                  0.00009
    57. RY*(  31) O   1                  0.00009
    58. RY*(  32) O   1                  0.00010
    59. RY*(  33) O   1                  0.00009
    60. RY*(  34) O   1                  0.00009
    61. RY*(  35) O   1                  0.00009
    62. RY*(  36) O   1                  0.00007
    63. RY*(  37) O   1                  0.00008
    64. RY*(  38) O   1                  0.00004
    65. RY*(  39) O   1                  0.00005
    66. RY*(  40) O   1                 -0.00002
    67. RY*(  41) O   1                 -0.00026
    68. RY*(   1)Cl   2                  0.02585
    69. RY*(   2)Cl   2                  0.02247
    70. RY*(   3)Cl   2                  0.01710
    71. RY*(   4)Cl   2                  0.01708
    72. RY*(   5)Cl   2                  0.01309
    73. RY*(   6)Cl   2                  0.01013
    74. RY*(   7)Cl   2                  0.00984
    75. RY*(   8)Cl   2                  0.00700
    76. RY*(   9)Cl   2                  0.00197
    77. RY*(  10)Cl   2                  0.00127
    78. RY*(  11)Cl   2                  0.00127
    79. RY*(  12)Cl   2                  0.00123
    80. RY*(  13)Cl   2                  0.00123
    81. RY*(  14)Cl   2                  0.00119
    82. RY*(  15)Cl   2                  0.00115
    83. RY*(  16)Cl   2                  0.00102
    84. RY*(  17)Cl   2                  0.00082
    85. RY*(  18)Cl   2                  0.00080
    86. RY*(  19)Cl   2                  0.00074
    87. RY*(  20)Cl   2                  0.00070
    88. RY*(  21)Cl   2                  0.00049
    89. RY*(  22)Cl   2                  0.00038
    90. RY*(  23)Cl   2                  0.00037
    91. RY*(  24)Cl   2                  0.00034
    92. RY*(  25)Cl   2                  0.00019
    93. RY*(  26)Cl   2                  0.00017
    94. RY*(  27)Cl   2                  0.00018
    95. RY*(  28)Cl   2                  0.00015
    96. RY*(  29)Cl   2                  0.00013
    97. RY*(  30)Cl   2                  0.00013
    98. RY*(  31)Cl   2                  0.00013
    99. RY*(  32)Cl   2                  0.00012
   100. RY*(  33)Cl   2                  0.00011
   101. RY*(  34)Cl   2                  0.00011
   102. RY*(  35)Cl   2                  0.00010
   103. RY*(  36)Cl   2                  0.00009
   104. RY*(  37)Cl   2                  0.00009
   105. RY*(  38)Cl   2                  0.00005
   106. RY*(  39)Cl   2                  0.00003
   107. RY*(  40)Cl   2                  0.00003
   108. RY*(  41)Cl   2                  0.00001
   173. BD*(   1) O   1 -Cl   2          0.05580
       -------------------------------
              Total Lewis   25.45488  ( 98.8779%)
        Valence non-Lewis    0.05580  (  0.2167%)
        Rydberg non-Lewis    0.23307  (  0.9053%)
       -------------------------------
            Total unit  1   25.74375  (100.0000%)
           Charge unit  1   -0.74375

 Molecular unit  2  (HBr)
     2. BD (   1)Br   3 - H   4          1.95450
     9. CR (   1)Br   3                  1.99938
    10. CR (   2)Br   3                  1.99994
    11. CR (   3)Br   3                  1.99978
    12. CR (   4)Br   3                  1.99995
    13. CR (   5)Br   3                  1.99763
    14. CR (   6)Br   3                  1.99771
    15. CR (   7)Br   3                  1.99767
    16. CR (   8)Br   3                  1.99754
    17. CR (   9)Br   3                  1.99764
    24. LP (   1)Br   3                  1.97509
    25. LP (   2)Br   3                  1.95531
    26. LP (   3)Br   3                  1.95500
   109. RY*(   1)Br   3                  0.01787
   110. RY*(   2)Br   3                  0.01787
   111. RY*(   3)Br   3                  0.01748
   112. RY*(   4)Br   3                  0.01734
   113. RY*(   5)Br   3                  0.01623
   114. RY*(   6)Br   3                  0.00980
   115. RY*(   7)Br   3                  0.00977
   116. RY*(   8)Br   3                  0.00761
   117. RY*(   9)Br   3                  0.00171
   118. RY*(  10)Br   3                  0.00171
   119. RY*(  11)Br   3                  0.00167
   120. RY*(  12)Br   3                  0.00167
   121. RY*(  13)Br   3                  0.00162
   122. RY*(  14)Br   3                  0.00163
   123. RY*(  15)Br   3                  0.00163
   124. RY*(  16)Br   3                  0.00163
   125. RY*(  17)Br   3                  0.00159
   126. RY*(  18)Br   3                  0.00144
   127. RY*(  19)Br   3                  0.00119
   128. RY*(  20)Br   3                  0.00117
   129. RY*(  21)Br   3                  0.00111
   130. RY*(  22)Br   3                  0.00070
   131. RY*(  23)Br   3                  0.00071
   132. RY*(  24)Br   3                  0.00055
   133. RY*(  25)Br   3                  0.00045
   134. RY*(  26)Br   3                  0.00029
   135. RY*(  27)Br   3                  0.00024
   136. RY*(  28)Br   3                  0.00022
   137. RY*(  29)Br   3                  0.00023
   138. RY*(  30)Br   3                  0.00022
   139. RY*(  31)Br   3                  0.00022
   140. RY*(  32)Br   3                  0.00020
   141. RY*(  33)Br   3                  0.00018
   142. RY*(  34)Br   3                  0.00017
   143. RY*(  35)Br   3                  0.00013
   144. RY*(  36)Br   3                  0.00012
   145. RY*(  37)Br   3                  0.00011
   146. RY*(  38)Br   3                  0.00010
   147. RY*(  39)Br   3                  0.00008
   148. RY*(  40)Br   3                  0.00008
   149. RY*(  41)Br   3                  0.00005
   150. RY*(  42)Br   3                  0.00000
   151. RY*(   1) H   4                  0.00644
   152. RY*(   2) H   4                  0.00637
   153. RY*(   3) H   4                  0.00538
   154. RY*(   4) H   4                  0.00437
   155. RY*(   5) H   4                  0.00244
   156. RY*(   6) H   4                  0.00081
   157. RY*(   7) H   4                  0.00035
   158. RY*(   8) H   4                  0.00031
   159. RY*(   9) H   4                  0.00032
   160. RY*(  10) H   4                  0.00029
   161. RY*(  11) H   4                  0.00021
   162. RY*(  12) H   4                  0.00022
   163. RY*(  13) H   4                  0.00021
   164. RY*(  14) H   4                  0.00017
   165. RY*(  15) H   4                  0.00010
   166. RY*(  16) H   4                  0.00010
   167. RY*(  17) H   4                  0.00007
   168. RY*(  18) H   4                  0.00007
   169. RY*(  19) H   4                  0.00005
   170. RY*(  20) H   4                  0.00004
   171. RY*(  21) H   4                  0.00003
   172. RY*(  22) H   4                  0.00003
   174. BD*(   1)Br   3 - H   4          0.26197
       -------------------------------
              Total Lewis   35.82714  ( 98.8164%)
        Valence non-Lewis    0.26197  (  0.7226%)
        Rydberg non-Lewis    0.16714  (  0.4610%)
       -------------------------------
            Total unit  2   36.25625  (100.0000%)
           Charge unit  2   -0.25625
 Leave Link  607 at Tue Oct 19 14:37:13 2021, MaxMem= 16106127360 cpu:              78.5 elap:               2.8
 (Enter /sw/contrib/gaussian/g16/B01/g16/l9999.exe)
 1\1\GINC-N2207\SP\RMP2-FC\Gen\Br1Cl1H1O1(1-)\CGAVINH\19-Oct-2021\0\\#p
  pop=NBO SP NoSymm mp2/gen Pseudo=read density=current\\title\\-1,1\O\
 X,1,10.\Cl,1,1.68446532,2,90.\Br,1,3.06793175,2,90.,3,103.45029768,0\H
 ,1,1.4,2,90.,3,103.45029768,0\\Version=ES64L-G16RevB.01\HF=-950.482258
 9\MP2=-951.2010788\RMSD=7.580e-09\Dipole=0.4424944,-0.1382269,0.\Quadr
 upole=3.8550619,-10.264368,6.4093062,-4.2380274,0.,0.\PG=CS [SG(Br1Cl1
 H1O1)]\\@


 EVERYTHING'S GOT A MORAL, IF ONLY YOU CAN FIND IT.

                                    -- LEWIS CARROL, ALICE IN WONDERLAND
 Job cpu time:       0 days  0 hours  5 minutes 47.3 seconds.
 Elapsed time:       0 days  0 hours  0 minutes 18.5 seconds.
 File lengths (MBytes):  RWF=     15 Int=      0 D2E=      0 Chk=      8 Scr=      1
 Normal termination of Gaussian 16 at Tue Oct 19 14:37:14 2021.
