 Entering Gaussian System, Link 0=g16
 Input=brhocl_pp_rOH_135_sp.gjf
 Output=brhocl_pp_rOH_135_sp.log
 Initial command:
 /sw/contrib/gaussian/g16/B01/g16/l1.exe "/scr/Gau-7284.inp" -scrdir="/scr/"
 Entering Link 1 = /sw/contrib/gaussian/g16/B01/g16/l1.exe PID=      7285.
  
 Copyright (c) 1988-2017, Gaussian, Inc.  All Rights Reserved.
  
 This is part of the Gaussian(R) 16 program.  It is based on
 the Gaussian(R) 09 system (copyright 2009, Gaussian, Inc.),
 the Gaussian(R) 03 system (copyright 2003, Gaussian, Inc.),
 the Gaussian(R) 98 system (copyright 1998, Gaussian, Inc.),
 the Gaussian(R) 94 system (copyright 1995, Gaussian, Inc.),
 the Gaussian 92(TM) system (copyright 1992, Gaussian, Inc.),
 the Gaussian 90(TM) system (copyright 1990, Gaussian, Inc.),
 the Gaussian 88(TM) system (copyright 1988, Gaussian, Inc.),
 the Gaussian 86(TM) system (copyright 1986, Carnegie Mellon
 University), and the Gaussian 82(TM) system (copyright 1983,
 Carnegie Mellon University). Gaussian is a federally registered
 trademark of Gaussian, Inc.
  
 This software contains proprietary and confidential information,
 including trade secrets, belonging to Gaussian, Inc.
  
 This software is provided under written license and may be
 used, copied, transmitted, or stored only in accord with that
 written license.
  
 The following legend is applicable only to US Government
 contracts under FAR:
  
                    RESTRICTED RIGHTS LEGEND
  
 Use, reproduction and disclosure by the US Government is
 subject to restrictions as set forth in subparagraphs (a)
 and (c) of the Commercial Computer Software - Restricted
 Rights clause in FAR 52.227-19.
  
 Gaussian, Inc.
 340 Quinnipiac St., Bldg. 40, Wallingford CT 06492
  
  
 ---------------------------------------------------------------
 Warning -- This program may not be used in any manner that
 competes with the business of Gaussian, Inc. or will provide
 assistance to any competitor of Gaussian, Inc.  The licensee
 of this program is prohibited from giving any competitor of
 Gaussian, Inc. access to this program.  By using this program,
 the user acknowledges that Gaussian, Inc. is engaged in the
 business of creating and licensing software in the field of
 computational chemistry and represents and warrants to the
 licensee that it is not a competitor of Gaussian, Inc. and that
 it will not use this program in any manner prohibited above.
 ---------------------------------------------------------------
  

 Cite this work as:
 Gaussian 16, Revision B.01,
 M. J. Frisch, G. W. Trucks, H. B. Schlegel, G. E. Scuseria, 
 M. A. Robb, J. R. Cheeseman, G. Scalmani, V. Barone, 
 G. A. Petersson, H. Nakatsuji, X. Li, M. Caricato, A. V. Marenich, 
 J. Bloino, B. G. Janesko, R. Gomperts, B. Mennucci, H. P. Hratchian, 
 J. V. Ortiz, A. F. Izmaylov, J. L. Sonnenberg, D. Williams-Young, 
 F. Ding, F. Lipparini, F. Egidi, J. Goings, B. Peng, A. Petrone, 
 T. Henderson, D. Ranasinghe, V. G. Zakrzewski, J. Gao, N. Rega, 
 G. Zheng, W. Liang, M. Hada, M. Ehara, K. Toyota, R. Fukuda, 
 J. Hasegawa, M. Ishida, T. Nakajima, Y. Honda, O. Kitao, H. Nakai, 
 T. Vreven, K. Throssell, J. A. Montgomery, Jr., J. E. Peralta, 
 F. Ogliaro, M. J. Bearpark, J. J. Heyd, E. N. Brothers, K. N. Kudin, 
 V. N. Staroverov, T. A. Keith, R. Kobayashi, J. Normand, 
 K. Raghavachari, A. P. Rendell, J. C. Burant, S. S. Iyengar, 
 J. Tomasi, M. Cossi, J. M. Millam, M. Klene, C. Adamo, R. Cammi, 
 J. W. Ochterski, R. L. Martin, K. Morokuma, O. Farkas, 
 J. B. Foresman, and D. J. Fox, Gaussian, Inc., Wallingford CT, 2016.
 
 ******************************************
 Gaussian 16:  ES64L-G16RevB.01 20-Dec-2017
                19-Oct-2021 
 ******************************************
 %nproc=28
 Will use up to   28 processors via shared memory.
 %mem=120GB
 %chk=/gscratch/ilahie/mccoygrp/coire_hocl/rOH_s_oop_0/brhocl_pp/brhocl_pp_rOH_13
 5_sp.chk
 --------------------------------------------------------
 #p pop=NBO SP NoSymm mp2/gen Pseudo=read density=current
 --------------------------------------------------------
 1/30=1,38=1,172=1/1;
 2/12=2,15=1,17=6,18=5,40=1/2;
 3/5=7,11=9,16=1,17=8,25=1,30=1,71=1/1,2,3;
 4//1;
 5/5=2,38=5/2;
 8/6=4,10=1/1;
 9/15=1,16=-3/6;
 10/5=1,13=10,31=1/2;
 6/7=2,8=2,9=2,10=2,22=-1,40=1/1,7;
 99/5=1,9=1/99;
 Leave Link    1 at Tue Oct 19 14:36:35 2021, MaxMem= 16106127360 cpu:               2.5 elap:               0.1
 (Enter /sw/contrib/gaussian/g16/B01/g16/l101.exe)
 -----
 title
 -----
 Symbolic Z-matrix:
 Charge = -1 Multiplicity = 1
 O
 X                    1     10. 
 Cl                   1    r1       2     90. 
 Br                   1    r2       2     90.      3    a1       0
 H                    1    r3       2    oop      3    a1       0
       Variables:
  r1                    1.68447                  
  r2                    3.06793                  
  r3                    1.35                     
  a1                  103.4503                   
  OOP                  90.                       
 
 ITRead=  0  0  0  0
 MicOpt= -1 -1 -1 -1
 NAtoms=      4 NQM=        4 NQMF=       0 NMMI=      0 NMMIF=      0
                NMic=       0 NMicF=      0.
                    Isotopes and Nuclear Properties:
 (Nuclear quadrupole moments (NQMom) in fm**2, nuclear magnetic moments (NMagM)
  in nuclear magnetons)

  Atom         1           2           3           4
 IAtWgt=          16          35          79           1
 AtmWgt=  15.9949146  34.9688527  78.9183361   1.0078250
 NucSpn=           0           3           3           1
 AtZEff=  -0.0000000  -0.0000000  -0.0000000  -0.0000000
 NQMom=    0.0000000  -8.1650000  31.3000000   0.0000000
 NMagM=    0.0000000   0.8218740   2.1063990   2.7928460
 AtZNuc=   8.0000000  17.0000000  35.0000000   1.0000000
 Leave Link  101 at Tue Oct 19 14:36:36 2021, MaxMem= 16106127360 cpu:               2.0 elap:               0.1
 (Enter /sw/contrib/gaussian/g16/B01/g16/l202.exe)
                          Input orientation:                          
 ---------------------------------------------------------------------
 Center     Atomic      Atomic             Coordinates (Angstroms)
 Number     Number       Type             X           Y           Z
 ---------------------------------------------------------------------
      1          8           0        0.000000    0.000000    0.000000
      2         17           0        1.684465    0.000000    0.000000
      3         35           0       -0.713606   -2.983785    0.000000
      4          1           0       -0.314012   -1.312972    0.000000
 ---------------------------------------------------------------------
                    Distance matrix (angstroms):
                    1          2          3          4
     1  O    0.000000
     2  Cl   1.684465   0.000000
     3  Br   3.067932   3.828018   0.000000
     4  H    1.350000   2.391194   1.717932   0.000000
 Symmetry turned off by external request.
 Stoichiometry    BrClHO(1-)
 Framework group  CS[SG(BrClHO)]
 Deg. of freedom     5
 Full point group                 CS      NOp   2
 Rotational constants (GHZ):          22.8224985           1.2850751           1.2165731
 Leave Link  202 at Tue Oct 19 14:36:36 2021, MaxMem= 16106127360 cpu:               1.9 elap:               0.1
 (Enter /sw/contrib/gaussian/g16/B01/g16/l301.exe)
 General basis read from cards:  (5D, 7F)
 Centers:       2      1      4
 aug-cc-pVTZ
 ****
 Centers:       3
 S 10 1.00
     Exponent=  9.6593900000D+03 Coefficients=  3.7100000000D-04
     Exponent=  1.4559600000D+03 Coefficients=  2.5710000000D-03
     Exponent=  3.2591400000D+02 Coefficients=  8.4850000000D-03
     Exponent=  4.6565700000D+01 Coefficients=  7.8222000000D-02
     Exponent=  1.8246900000D+01 Coefficients= -3.9714900000D-01
     Exponent=  3.8020100000D+00 Coefficients=  6.8586400000D-01
     Exponent=  1.7863200000D+00 Coefficients=  4.8681900000D-01
     Exponent=  6.0271400000D-01 Coefficients=  3.4913000000D-02
     Exponent=  2.8401400000D-01 Coefficients= -6.5730000000D-03
     Exponent=  1.2027100000D-01 Coefficients=  1.6420000000D-03
 S 10 1.00
     Exponent=  9.6593900000D+03 Coefficients= -1.5200000000D-04
     Exponent=  1.4559600000D+03 Coefficients= -1.0080000000D-03
     Exponent=  3.2591400000D+02 Coefficients= -3.6090000000D-03
     Exponent=  4.6565700000D+01 Coefficients= -2.7872000000D-02
     Exponent=  1.8246900000D+01 Coefficients=  1.5131700000D-01
     Exponent=  3.8020100000D+00 Coefficients= -3.5149700000D-01
     Exponent=  1.7863200000D+00 Coefficients= -4.1070300000D-01
     Exponent=  6.0271400000D-01 Coefficients=  3.4731600000D-01
     Exponent=  2.8401400000D-01 Coefficients=  6.7549100000D-01
     Exponent=  1.2027100000D-01 Coefficients=  2.4400800000D-01
 S 1 1.00
     Exponent=  6.0271400000D-01 Coefficients=  1.0000000000D+00
 S 1 1.00
     Exponent=  2.8401400000D-01 Coefficients=  1.0000000000D+00
 S 1 1.00
     Exponent=  1.2027100000D-01 Coefficients=  1.0000000000D+00
 S 1 1.00
     Exponent=  4.4500000000D-02 Coefficients=  1.0000000000D+00
 P 9 1.00
     Exponent=  4.9218700000D+02 Coefficients=  4.7200000000D-04
     Exponent=  9.2364200000D+01 Coefficients=  5.4940000000D-03
     Exponent=  2.7071800000D+01 Coefficients= -8.8030000000D-02
     Exponent=  7.2653900000D+00 Coefficients=  3.4348500000D-01
     Exponent=  3.4848100000D+00 Coefficients=  5.1020800000D-01
     Exponent=  1.6404800000D+00 Coefficients=  2.4863100000D-01
     Exponent=  6.4857000000D-01 Coefficients=  2.2201000000D-02
     Exponent=  2.5640700000D-01 Coefficients= -4.1900000000D-04
     Exponent=  9.5304000000D-02 Coefficients=  6.5600000000D-04
 P 9 1.00
     Exponent=  4.9218700000D+02 Coefficients= -1.5800000000D-04
     Exponent=  9.2364200000D+01 Coefficients= -1.3440000000D-03
     Exponent=  2.7071800000D+01 Coefficients=  2.4616000000D-02
     Exponent=  7.2653900000D+00 Coefficients= -1.1253200000D-01
     Exponent=  3.4848100000D+00 Coefficients= -1.7977500000D-01
     Exponent=  1.6404800000D+00 Coefficients= -7.3661000000D-02
     Exponent=  6.4857000000D-01 Coefficients=  3.4873400000D-01
     Exponent=  2.5640700000D-01 Coefficients=  5.5794800000D-01
     Exponent=  9.5304000000D-02 Coefficients=  2.6645600000D-01
 P 1 1.00
     Exponent=  7.6660000000D-01 Coefficients=  1.0000000000D+00
 P 1 1.00
     Exponent=  1.1820000000D-01 Coefficients=  1.0000000000D+00
 P 1 1.00
     Exponent=  3.9600000000D-02 Coefficients=  1.0000000000D+00
 D 8 1.00
     Exponent=  3.3899600000D+02 Coefficients=  1.5240000000D-03
     Exponent=  1.0321700000D+02 Coefficients=  1.5673000000D-02
     Exponent=  4.2363800000D+01 Coefficients=  7.2400000000D-02
     Exponent=  1.8435600000D+01 Coefficients=  1.8630300000D-01
     Exponent=  8.3725400000D+00 Coefficients=  3.2388100000D-01
     Exponent=  3.8022200000D+00 Coefficients=  3.7453400000D-01
     Exponent=  1.6867700000D+00 Coefficients=  2.5741800000D-01
     Exponent=  6.7752000000D-01 Coefficients=  6.8051000000D-02
 D 1 1.00
     Exponent=  6.7752000000D-01 Coefficients=  1.0000000000D+00
 D 1 1.00
     Exponent=  2.5530000000D-01 Coefficients=  1.0000000000D+00
 D 1 1.00
     Exponent=  1.0090000000D-01 Coefficients=  1.0000000000D+00
 F 1 1.00
     Exponent=  5.6060000000D-01 Coefficients=  1.0000000000D+00
 F 1 1.00
     Exponent=  2.4540000000D-01 Coefficients=  1.0000000000D+00
 ****
 ======================================================================================================
                                       Pseudopotential Parameters
 ======================================================================================================
  Center     Atomic      Valence      Angular      Power
  Number     Number     Electrons     Momentum     of R      Exponent        Coefficient   SO-Coeffient
 ======================================================================================================
    1          8
                                   No pseudopotential on this center.
    2         17
                                   No pseudopotential on this center.
    3         35           25
                                      G and up 
                                                     2        1.0000000        0.00000000    0.00000000
                                      S - G
                                                     2       70.0242570       49.96283400    0.00000000
                                                     2       31.1784120      370.01420500    0.00000000
                                                     2        7.1565930       10.24143900    0.00000000
                                      P - G
                                                     2       46.7734710       99.11224400    0.00000000
                                                     2       46.1841200      198.25304600    0.00000000
                                                     2       21.7138580       28.26174000    0.00000000
                                                     2       20.9417920       56.62336600    0.00000000
                                      D - G
                                                     2       50.6988390      -18.60585300    0.00000000
                                                     2       50.6447640      -27.92328000    0.00000000
                                                     2       15.4475090       -0.37969300    0.00000000
                                                     2       15.5002590       -0.78058300    0.00000000
                                                     2        2.8003910        0.03596800    0.00000000
                                                     2        1.0774800        0.09439700    0.00000000
                                      F - G
                                                     2       14.4656060       -1.09126900    0.00000000
                                                     2       21.2340650       -2.88769100    0.00000000
    4          1
                                   No pseudopotential on this center.
 ======================================================================================================
 Ernie: Thresh=  0.10000D-02 Tol=  0.10000D-05 Strict=F.
 Ernie:  25 primitive shells out of 163 were deleted.
   174 basis functions,   373 primitive gaussians,   204 cartesian basis functions
    26 alpha electrons       26 beta electrons
       nuclear repulsion energy       150.5718365594 Hartrees.
 IExCor=    0 DFT=F Ex=HF Corr=None ExCW=0 ScaHFX=  1.000000
 ScaDFX=  1.000000  1.000000  1.000000  1.000000 ScalE2=  1.000000  1.000000
 IRadAn=      5 IRanWt=     -1 IRanGd=            0 ICorTp=0 IEmpDi=  4
 NAtoms=    4 NActive=    4 NUniq=    4 SFac= 1.00D+00 NAtFMM=   60 NAOKFM=F Big=F
 Integral buffers will be    131072 words long.
 Raffenetti 1 integral format.
 Two-electron integral symmetry is turned off.
 Leave Link  301 at Tue Oct 19 14:36:36 2021, MaxMem= 16106127360 cpu:               2.4 elap:               0.1
 (Enter /sw/contrib/gaussian/g16/B01/g16/l302.exe)
 NPDir=0 NMtPBC=     1 NCelOv=     1 NCel=       1 NClECP=     1 NCelD=      1
         NCelK=      1 NCelE2=     1 NClLst=     1 CellRange=     0.0.
 One-electron integrals computed using PRISM.
   1 Symmetry operations used in ECPInt.
 ECPInt:  NShTT=    1596 NPrTT=    9902 LenC2=    1595 LenP2D=    7771.
 LDataN:  DoStor=T MaxTD1= 7 Len=  274
 NBasis=   174 RedAO= T EigKep=  2.34D-04  NBF=   174
 NBsUse=   174 1.00D-06 EigRej= -1.00D+00 NBFU=   174
 Leave Link  302 at Tue Oct 19 14:36:36 2021, MaxMem= 16106127360 cpu:               7.5 elap:               0.3
 (Enter /sw/contrib/gaussian/g16/B01/g16/l303.exe)
 DipDrv:  MaxL=1.
 Leave Link  303 at Tue Oct 19 14:36:36 2021, MaxMem= 16106127360 cpu:               0.9 elap:               0.1
 (Enter /sw/contrib/gaussian/g16/B01/g16/l401.exe)
 ExpMin= 2.53D-02 ExpMax= 4.56D+05 ExpMxC= 1.44D+03 IAcc=3 IRadAn=         5 AccDes= 0.00D+00
 Harris functional with IExCor=  205 and IRadAn=       5 diagonalized for initial guess.
 HarFok:  IExCor=  205 AccDes= 0.00D+00 IRadAn=         5 IDoV= 1 UseB2=F ITyADJ=14
 ICtDFT=  3500011 ScaDFX=  1.000000  1.000000  1.000000  1.000000
 FoFCou: FMM=F IPFlag=           0 FMFlag=      100000 FMFlg1=           0
         NFxFlg=           0 DoJE=T BraDBF=F KetDBF=T FulRan=T
         wScrn=  0.000000 ICntrl=       500 IOpCl=  0 I1Cent=   200000004 NGrid=           0
         NMat0=    1 NMatS0=      1 NMatT0=    0 NMatD0=    1 NMtDS0=    0 NMtDT0=    0
 Symmetry not used in FoFCou.
 Harris En= -951.890462772750    
 JPrj=0 DoOrth=F DoCkMO=F.
 Leave Link  401 at Tue Oct 19 14:36:36 2021, MaxMem= 16106127360 cpu:               7.9 elap:               0.3
 (Enter /sw/contrib/gaussian/g16/B01/g16/l502.exe)
 Keep R1 ints in memory in canonical form, NReq=152797400.
 FoFCou: FMM=F IPFlag=           0 FMFlag=           0 FMFlg1=           0
         NFxFlg=           0 DoJE=F BraDBF=F KetDBF=F FulRan=T
         wScrn=  0.000000 ICntrl=       600 IOpCl=  0 I1Cent=           0 NGrid=           0
         NMat0=    1 NMatS0=  15225 NMatT0=    0 NMatD0=    1 NMtDS0=    0 NMtDT0=    0
 Symmetry not used in FoFCou.
 Two-electron integral symmetry not used.
 Closed shell SCF:
 Using DIIS extrapolation, IDIIS=  1040.
 NGot= 16106127360 LenX= 15990129205 LenY= 15990087148
 Requested convergence on RMS density matrix=1.00D-08 within 128 cycles.
 Requested convergence on MAX density matrix=1.00D-06.
 Requested convergence on             energy=1.00D-06.
 No special actions if energy rises.

 Cycle   1  Pass 1  IDiag  1:
 E= -950.347156064987    
 DIIS: error= 3.07D-02 at cycle   1 NSaved=   1.
 NSaved= 1 IEnMin= 1 EnMin= -950.347156064987     IErMin= 1 ErrMin= 3.07D-02
 ErrMax= 3.07D-02  0.00D+00 EMaxC= 1.00D-01 BMatC= 3.36D-01 BMatP= 3.36D-01
 IDIUse=3 WtCom= 6.93D-01 WtEn= 3.07D-01
 Coeff-Com:  0.100D+01
 Coeff-En:   0.100D+01
 Coeff:      0.100D+01
 Gap=     0.545 Goal=   None    Shift=    0.000
 GapD=    0.545 DampG=2.000 DampE=0.500 DampFc=1.0000 IDamp=-1.
 RMSDP=3.29D-03 MaxDP=1.95D-01              OVMax= 1.38D-01

 Cycle   2  Pass 1  IDiag  1:
 E= -950.451765840472     Delta-E=       -0.104609775486 Rises=F Damp=F
 DIIS: error= 1.76D-02 at cycle   2 NSaved=   2.
 NSaved= 2 IEnMin= 2 EnMin= -950.451765840472     IErMin= 2 ErrMin= 1.76D-02
 ErrMax= 1.76D-02  0.00D+00 EMaxC= 1.00D-01 BMatC= 4.72D-02 BMatP= 3.36D-01
 IDIUse=3 WtCom= 8.24D-01 WtEn= 1.76D-01
 Coeff-Com:  0.190D+00 0.810D+00
 Coeff-En:   0.000D+00 0.100D+01
 Coeff:      0.157D+00 0.843D+00
 Gap=     0.394 Goal=   None    Shift=    0.000
 RMSDP=1.03D-03 MaxDP=3.45D-02 DE=-1.05D-01 OVMax= 7.59D-02

 Cycle   3  Pass 1  IDiag  1:
 E= -950.474519587181     Delta-E=       -0.022753746709 Rises=F Damp=F
 DIIS: error= 9.41D-03 at cycle   3 NSaved=   3.
 NSaved= 3 IEnMin= 3 EnMin= -950.474519587181     IErMin= 3 ErrMin= 9.41D-03
 ErrMax= 9.41D-03  0.00D+00 EMaxC= 1.00D-01 BMatC= 1.59D-02 BMatP= 4.72D-02
 IDIUse=3 WtCom= 9.06D-01 WtEn= 9.41D-02
 Coeff-Com: -0.137D-01 0.358D+00 0.656D+00
 Coeff-En:   0.000D+00 0.183D+00 0.817D+00
 Coeff:     -0.124D-01 0.341D+00 0.671D+00
 Gap=     0.374 Goal=   None    Shift=    0.000
 RMSDP=4.09D-04 MaxDP=1.81D-02 DE=-2.28D-02 OVMax= 3.93D-02

 Cycle   4  Pass 1  IDiag  1:
 E= -950.485757983559     Delta-E=       -0.011238396379 Rises=F Damp=F
 DIIS: error= 1.31D-03 at cycle   4 NSaved=   4.
 NSaved= 4 IEnMin= 4 EnMin= -950.485757983559     IErMin= 4 ErrMin= 1.31D-03
 ErrMax= 1.31D-03  0.00D+00 EMaxC= 1.00D-01 BMatC= 2.66D-04 BMatP= 1.59D-02
 IDIUse=3 WtCom= 9.87D-01 WtEn= 1.31D-02
 Coeff-Com: -0.481D-02 0.281D-01 0.119D+00 0.858D+00
 Coeff-En:   0.000D+00 0.000D+00 0.000D+00 0.100D+01
 Coeff:     -0.475D-02 0.278D-01 0.117D+00 0.860D+00
 Gap=     0.364 Goal=   None    Shift=    0.000
 RMSDP=8.75D-05 MaxDP=2.53D-03 DE=-1.12D-02 OVMax= 6.24D-03

 Cycle   5  Pass 1  IDiag  1:
 E= -950.486083058681     Delta-E=       -0.000325075121 Rises=F Damp=F
 DIIS: error= 2.99D-04 at cycle   5 NSaved=   5.
 NSaved= 5 IEnMin= 5 EnMin= -950.486083058681     IErMin= 5 ErrMin= 2.99D-04
 ErrMax= 2.99D-04  0.00D+00 EMaxC= 1.00D-01 BMatC= 3.69D-05 BMatP= 2.66D-04
 IDIUse=3 WtCom= 9.97D-01 WtEn= 2.99D-03
 Coeff-Com:  0.396D-03-0.475D-01-0.782D-01 0.719D-01 0.105D+01
 Coeff-En:   0.000D+00 0.000D+00 0.000D+00 0.000D+00 0.100D+01
 Coeff:      0.394D-03-0.474D-01-0.779D-01 0.717D-01 0.105D+01
 Gap=     0.365 Goal=   None    Shift=    0.000
 RMSDP=5.41D-05 MaxDP=1.80D-03 DE=-3.25D-04 OVMax= 4.79D-03

 Cycle   6  Pass 1  IDiag  1:
 E= -950.486179135688     Delta-E=       -0.000096077008 Rises=F Damp=F
 DIIS: error= 1.45D-04 at cycle   6 NSaved=   6.
 NSaved= 6 IEnMin= 6 EnMin= -950.486179135688     IErMin= 6 ErrMin= 1.45D-04
 ErrMax= 1.45D-04  0.00D+00 EMaxC= 1.00D-01 BMatC= 5.17D-06 BMatP= 3.69D-05
 IDIUse=3 WtCom= 9.99D-01 WtEn= 1.45D-03
 Coeff-Com:  0.103D-02 0.480D-02 0.505D-02-0.106D+00-0.388D+00 0.148D+01
 Coeff-En:   0.000D+00 0.000D+00 0.000D+00 0.000D+00 0.000D+00 0.100D+01
 Coeff:      0.103D-02 0.479D-02 0.505D-02-0.106D+00-0.388D+00 0.148D+01
 Gap=     0.366 Goal=   None    Shift=    0.000
 RMSDP=3.29D-05 MaxDP=1.09D-03 DE=-9.61D-05 OVMax= 3.06D-03

 Cycle   7  Pass 1  IDiag  1:
 E= -950.486201932104     Delta-E=       -0.000022796416 Rises=F Damp=F
 DIIS: error= 5.04D-05 at cycle   7 NSaved=   7.
 NSaved= 7 IEnMin= 7 EnMin= -950.486201932104     IErMin= 7 ErrMin= 5.04D-05
 ErrMax= 5.04D-05  0.00D+00 EMaxC= 1.00D-01 BMatC= 3.13D-07 BMatP= 5.17D-06
 IDIUse=1 WtCom= 1.00D+00 WtEn= 0.00D+00
 Coeff-Com: -0.380D-03 0.235D-02 0.558D-02 0.242D-01 0.568D-01-0.523D+00
 Coeff-Com:  0.143D+01
 Coeff:     -0.380D-03 0.235D-02 0.558D-02 0.242D-01 0.568D-01-0.523D+00
 Coeff:      0.143D+01
 Gap=     0.366 Goal=   None    Shift=    0.000
 RMSDP=9.25D-06 MaxDP=4.45D-04 DE=-2.28D-05 OVMax= 8.55D-04

 Cycle   8  Pass 1  IDiag  1:
 E= -950.486203305804     Delta-E=       -0.000001373699 Rises=F Damp=F
 DIIS: error= 7.35D-06 at cycle   8 NSaved=   8.
 NSaved= 8 IEnMin= 8 EnMin= -950.486203305804     IErMin= 8 ErrMin= 7.35D-06
 ErrMax= 7.35D-06  0.00D+00 EMaxC= 1.00D-01 BMatC= 1.27D-08 BMatP= 3.13D-07
 IDIUse=1 WtCom= 1.00D+00 WtEn= 0.00D+00
 Coeff-Com: -0.421D-04-0.474D-03-0.326D-03 0.638D-02 0.229D-01-0.950D-01
 Coeff-Com:  0.589D-01 0.101D+01
 Coeff:     -0.421D-04-0.474D-03-0.326D-03 0.638D-02 0.229D-01-0.950D-01
 Coeff:      0.589D-01 0.101D+01
 Gap=     0.366 Goal=   None    Shift=    0.000
 RMSDP=1.28D-06 MaxDP=7.61D-05 DE=-1.37D-06 OVMax= 9.42D-05

 Cycle   9  Pass 1  IDiag  1:
 E= -950.486203334913     Delta-E=       -0.000000029109 Rises=F Damp=F
 DIIS: error= 1.90D-06 at cycle   9 NSaved=   9.
 NSaved= 9 IEnMin= 9 EnMin= -950.486203334913     IErMin= 9 ErrMin= 1.90D-06
 ErrMax= 1.90D-06  0.00D+00 EMaxC= 1.00D-01 BMatC= 9.85D-10 BMatP= 1.27D-08
 IDIUse=1 WtCom= 1.00D+00 WtEn= 0.00D+00
 Coeff-Com:  0.214D-04-0.217D-03-0.339D-03-0.135D-02-0.480D-02 0.390D-01
 Coeff-Com: -0.117D+00 0.515D-01 0.103D+01
 Coeff:      0.214D-04-0.217D-03-0.339D-03-0.135D-02-0.480D-02 0.390D-01
 Coeff:     -0.117D+00 0.515D-01 0.103D+01
 Gap=     0.366 Goal=   None    Shift=    0.000
 RMSDP=3.87D-07 MaxDP=2.45D-05 DE=-2.91D-08 OVMax= 2.23D-05

 Cycle  10  Pass 1  IDiag  1:
 E= -950.486203337036     Delta-E=       -0.000000002123 Rises=F Damp=F
 DIIS: error= 3.86D-07 at cycle  10 NSaved=  10.
 NSaved=10 IEnMin=10 EnMin= -950.486203337036     IErMin=10 ErrMin= 3.86D-07
 ErrMax= 3.86D-07  0.00D+00 EMaxC= 1.00D-01 BMatC= 5.03D-11 BMatP= 9.85D-10
 IDIUse=1 WtCom= 1.00D+00 WtEn= 0.00D+00
 Coeff-Com: -0.424D-06 0.485D-04 0.624D-04-0.273D-03-0.140D-03-0.794D-03
 Coeff-Com:  0.131D-01-0.584D-01-0.133D+00 0.118D+01
 Coeff:     -0.424D-06 0.485D-04 0.624D-04-0.273D-03-0.140D-03-0.794D-03
 Coeff:      0.131D-01-0.584D-01-0.133D+00 0.118D+01
 Gap=     0.366 Goal=   None    Shift=    0.000
 RMSDP=1.07D-07 MaxDP=6.32D-06 DE=-2.12D-09 OVMax= 6.32D-06

 Cycle  11  Pass 1  IDiag  1:
 E= -950.486203337200     Delta-E=       -0.000000000164 Rises=F Damp=F
 DIIS: error= 2.01D-07 at cycle  11 NSaved=  11.
 NSaved=11 IEnMin=11 EnMin= -950.486203337200     IErMin=11 ErrMin= 2.01D-07
 ErrMax= 2.01D-07  0.00D+00 EMaxC= 1.00D-01 BMatC= 7.74D-12 BMatP= 5.03D-11
 IDIUse=1 WtCom= 1.00D+00 WtEn= 0.00D+00
 Coeff-Com: -0.972D-06-0.843D-05-0.638D-05 0.201D-03 0.269D-03-0.174D-02
 Coeff-Com:  0.116D-02 0.172D-01 0.120D-01-0.529D+00 0.150D+01
 Coeff:     -0.972D-06-0.843D-05-0.638D-05 0.201D-03 0.269D-03-0.174D-02
 Coeff:      0.116D-02 0.172D-01 0.120D-01-0.529D+00 0.150D+01
 Gap=     0.366 Goal=   None    Shift=    0.000
 RMSDP=4.71D-08 MaxDP=1.03D-06 DE=-1.64D-10 OVMax= 4.57D-06

 Cycle  12  Pass 1  IDiag  1:
 E= -950.486203337241     Delta-E=       -0.000000000041 Rises=F Damp=F
 DIIS: error= 1.03D-07 at cycle  12 NSaved=  12.
 NSaved=12 IEnMin=12 EnMin= -950.486203337241     IErMin=12 ErrMin= 1.03D-07
 ErrMax= 1.03D-07  0.00D+00 EMaxC= 1.00D-01 BMatC= 1.76D-12 BMatP= 7.74D-12
 IDIUse=1 WtCom= 1.00D+00 WtEn= 0.00D+00
 Coeff-Com: -0.280D-06-0.821D-05-0.821D-05 0.616D-04 0.335D-04 0.194D-04
 Coeff-Com: -0.214D-02 0.109D-01 0.295D-01-0.228D+00-0.189D+00 0.138D+01
 Coeff:     -0.280D-06-0.821D-05-0.821D-05 0.616D-04 0.335D-04 0.194D-04
 Coeff:     -0.214D-02 0.109D-01 0.295D-01-0.228D+00-0.189D+00 0.138D+01
 Gap=     0.366 Goal=   None    Shift=    0.000
 RMSDP=2.87D-08 MaxDP=6.59D-07 DE=-4.12D-11 OVMax= 3.01D-06

 Cycle  13  Pass 1  IDiag  1:
 E= -950.486203337254     Delta-E=       -0.000000000013 Rises=F Damp=F
 DIIS: error= 3.81D-08 at cycle  13 NSaved=  13.
 NSaved=13 IEnMin=13 EnMin= -950.486203337254     IErMin=13 ErrMin= 3.81D-08
 ErrMax= 3.81D-08  0.00D+00 EMaxC= 1.00D-01 BMatC= 1.68D-13 BMatP= 1.76D-12
 IDIUse=1 WtCom= 1.00D+00 WtEn= 0.00D+00
 Coeff-Com:  0.301D-06 0.160D-05 0.214D-06-0.444D-04-0.507D-04 0.349D-03
 Coeff-Com: -0.191D-03-0.398D-02-0.324D-02 0.109D+00-0.210D+00-0.210D+00
 Coeff-Com:  0.132D+01
 Coeff:      0.301D-06 0.160D-05 0.214D-06-0.444D-04-0.507D-04 0.349D-03
 Coeff:     -0.191D-03-0.398D-02-0.324D-02 0.109D+00-0.210D+00-0.210D+00
 Coeff:      0.132D+01
 Gap=     0.366 Goal=   None    Shift=    0.000
 RMSDP=1.05D-08 MaxDP=2.89D-07 DE=-1.32D-11 OVMax= 1.02D-06

 Cycle  14  Pass 1  IDiag  1:
 E= -950.486203337252     Delta-E=        0.000000000002 Rises=F Damp=F
 DIIS: error= 5.74D-09 at cycle  14 NSaved=  14.
 NSaved=14 IEnMin=13 EnMin= -950.486203337254     IErMin=14 ErrMin= 5.74D-09
 ErrMax= 5.74D-09  0.00D+00 EMaxC= 1.00D-01 BMatC= 7.73D-15 BMatP= 1.68D-13
 IDIUse=1 WtCom= 1.00D+00 WtEn= 0.00D+00
 Coeff-Com: -0.192D-07 0.393D-06 0.504D-06 0.634D-06-0.458D-06-0.278D-04
 Coeff-Com:  0.156D-03-0.404D-03-0.103D-02 0.243D-02 0.302D-01-0.626D-01
 Coeff-Com: -0.121D+00 0.115D+01
 Coeff:     -0.192D-07 0.393D-06 0.504D-06 0.634D-06-0.458D-06-0.278D-04
 Coeff:      0.156D-03-0.404D-03-0.103D-02 0.243D-02 0.302D-01-0.626D-01
 Coeff:     -0.121D+00 0.115D+01
 Gap=     0.366 Goal=   None    Shift=    0.000
 RMSDP=1.90D-09 MaxDP=7.10D-08 DE= 1.82D-12 OVMax= 1.39D-07

 SCF Done:  E(RHF) =  -950.486203337     A.U. after   14 cycles
            NFock= 14  Conv=0.19D-08     -V/T= 2.1446
 KE= 8.304072226243D+02 PE=-2.611653781032D+03 EE= 6.801885185114D+02
 Leave Link  502 at Tue Oct 19 14:36:41 2021, MaxMem= 16106127360 cpu:              38.9 elap:               4.1
 (Enter /sw/contrib/gaussian/g16/B01/g16/l801.exe)
 ExpMin= 2.53D-02 ExpMax= 4.56D+05 ExpMxC= 1.44D+03 IAcc=3 IRadAn=         5 AccDes= 0.00D+00
 HarFok:  IExCor=  205 AccDes= 0.00D+00 IRadAn=         5 IDoV=-2 UseB2=F ITyADJ=14
 ICtDFT= 12500011 ScaDFX=  1.000000  1.000000  1.000000  1.000000
 Largest valence mixing into a core orbital is  4.46D-04
 Largest core mixing into a valence orbital is  1.44D-04
 Range of M.O.s used for correlation:    11   174
 NBasis=   174 NAE=    26 NBE=    26 NFC=    10 NFV=     0
 NROrb=    164 NOA=    16 NOB=    16 NVA=   148 NVB=   148

 **** Warning!!: The largest alpha MO coefficient is  0.18346681D+02

 Leave Link  801 at Tue Oct 19 14:36:41 2021, MaxMem= 16106127360 cpu:               2.0 elap:               0.1
 (Enter /sw/contrib/gaussian/g16/B01/g16/l906.exe)
 Frozen-core derivative calculation, NFC=  10 NFV=   0.
 FulOut=F Deriv=T AODrv=F NAtomX=     4
   MMem=         130  MDisk=          16 MDiskD=          16
  W3Min=      922896 MinDsk=     1491158 NBas6D=         204
 NBas2D=       21411    NTT=       20910    LW2=    16556320
    MDV= 16105732788 MDiskM=      394699 NBas2p=       21383
 Fully in-core method, ICMem=   510791049.
 IMap=   1   2   3   4   5   6   7   8   9  10  11  12  13  14  15  16  17  18  19  20
 IMap=  21  22  23  24  25  26
 JobTyp=1 Pass  1 fully in-core, NPsUse= 28.
 Compute canonical integrals.
 FoFCou: FMM=F IPFlag=           0 FMFlag=           0 FMFlg1=           0
         NFxFlg=           0 DoJE=F BraDBF=F KetDBF=F FulRan=T
         wScrn=  0.000000 ICntrl=       600 IOpCl=  1 I1Cent=           0 NGrid=           0
         NMat0=    1 NMatS0=  21411 NMatT0=    0 NMatD0=    1 NMtDS0=    0 NMtDT0=    0
 Symmetry not used in FoFCou.
 Spin components of T(2) and E(2):
     alpha-alpha T2 =       0.3211569715D-01 E2=     -0.9663659588D-01
     alpha-beta  T2 =       0.1687040425D+00 E2=     -0.5250564980D+00
     beta-beta   T2 =       0.3211569715D-01 E2=     -0.9663659588D-01
 The integrals were generated   1 times.
 ANorm=    0.1110376259D+01
 E2 =    -0.7183296898D+00 EUMP2 =    -0.95120453302702D+03
 Leave Link  906 at Tue Oct 19 14:36:47 2021, MaxMem= 16106127360 cpu:             167.3 elap:               6.0
 (Enter /sw/contrib/gaussian/g16/B01/g16/l1002.exe)
 Minotr:  Closed shell wavefunction.
          Computing MP2/KS-MP2 derivatives.
          Using Z-Vector for PSCF gradient.
          Skipping F1 and S1 gradient terms here.
          Frozen-core window.
          Direct CPHF calculation.
          Differentiating once with respect to electric field.
                with respect to dipole field.
          Electric field/nuclear overlap derivatives assumed to be zero.
          Requested convergence is 1.0D-10 RMS, and 1.0D-09 maximum.
          NewPWx=F KeepS1=T KeepF1=T KeepIn=T MapXYZ=F SortEE=F KeepMc=T.
 Keep R1 ints in memory in canonical form, NReq=152802289.
 FoFCou: FMM=F IPFlag=           0 FMFlag=           0 FMFlg1=           0
         NFxFlg=           0 DoJE=F BraDBF=F KetDBF=F FulRan=T
         wScrn=  0.000000 ICntrl=       600 IOpCl=  0 I1Cent=           0 NGrid=           0
         NMat0=    1 NMatS0=  15225 NMatT0=    0 NMatD0=    1 NMtDS0=    0 NMtDT0=    0
 Symmetry not used in FoFCou.
 Two-electron integral symmetry not used.
          MDV=   16106127360 using IRadAn=       5.
          Solving linear equations separately, MaxMat=       0.
          There are     1 degrees of freedom in the 1st order CPHF.  IDoFFX=0 NUNeed=     1.
 LinEq1:  Iter=  0 NonCon=     1 RMS=3.46D-03 Max=5.72D-02 NDo=     1
 AX will form     1 AO Fock derivatives at one time.
 LinEq1:  Iter=  1 NonCon=     1 RMS=5.79D-04 Max=8.65D-03 NDo=     1
 LinEq1:  Iter=  2 NonCon=     1 RMS=2.37D-04 Max=2.93D-03 NDo=     1
 LinEq1:  Iter=  3 NonCon=     1 RMS=8.05D-05 Max=9.87D-04 NDo=     1
 LinEq1:  Iter=  4 NonCon=     1 RMS=1.52D-05 Max=1.85D-04 NDo=     1
 LinEq1:  Iter=  5 NonCon=     1 RMS=4.92D-06 Max=8.19D-05 NDo=     1
 LinEq1:  Iter=  6 NonCon=     1 RMS=2.21D-06 Max=2.55D-05 NDo=     1
 LinEq1:  Iter=  7 NonCon=     1 RMS=6.78D-07 Max=1.04D-05 NDo=     1
 LinEq1:  Iter=  8 NonCon=     1 RMS=2.00D-07 Max=2.63D-06 NDo=     1
 LinEq1:  Iter=  9 NonCon=     1 RMS=5.98D-08 Max=7.54D-07 NDo=     1
 LinEq1:  Iter= 10 NonCon=     1 RMS=1.65D-08 Max=3.03D-07 NDo=     1
 LinEq1:  Iter= 11 NonCon=     1 RMS=4.77D-09 Max=5.23D-08 NDo=     1
 LinEq1:  Iter= 12 NonCon=     1 RMS=7.95D-10 Max=8.08D-09 NDo=     1
 LinEq1:  Iter= 13 NonCon=     1 RMS=1.58D-10 Max=2.44D-09 NDo=     1
 LinEq1:  Iter= 14 NonCon=     0 RMS=4.10D-11 Max=5.74D-10 NDo=     1
 Linear equations converged to 1.000D-10 1.000D-09 after    14 iterations.
 End of Minotr F.D. properties file   721 does not exist.
 End of Minotr F.D. properties file   722 does not exist.
 End of Minotr F.D. properties file   788 does not exist.
 Leave Link 1002 at Tue Oct 19 14:36:51 2021, MaxMem= 16106127360 cpu:              37.4 elap:               4.3
 (Enter /sw/contrib/gaussian/g16/B01/g16/l601.exe)
 Copying SCF densities to generalized density rwf, IOpCl= 0 IROHF=0.

 **********************************************************************

            Population analysis using the MP2 Density.

 **********************************************************************

 Alpha  occ. eigenvalues -- -104.68832 -20.40336 -10.40808  -9.60356  -7.87518
 Alpha  occ. eigenvalues --   -7.87295  -7.87289  -7.35279  -7.35027  -7.35025
 Alpha  occ. eigenvalues --   -2.90408  -2.90295  -2.90293  -2.90033  -2.90033
 Alpha  occ. eigenvalues --   -1.14130  -0.83846  -0.80603  -0.44722  -0.38656
 Alpha  occ. eigenvalues --   -0.37776  -0.28281  -0.23238  -0.21437  -0.21272
 Alpha  occ. eigenvalues --   -0.20687
 Alpha virt. eigenvalues --    0.15899   0.19403   0.22273   0.23899   0.24941
 Alpha virt. eigenvalues --    0.25639   0.26079   0.29665   0.31722   0.32955
 Alpha virt. eigenvalues --    0.33795   0.34114   0.36958   0.42822   0.43235
 Alpha virt. eigenvalues --    0.44635   0.45111   0.47611   0.50040   0.54833
 Alpha virt. eigenvalues --    0.55207   0.57265   0.59516   0.59541   0.61435
 Alpha virt. eigenvalues --    0.62642   0.68134   0.68405   0.74967   0.79961
 Alpha virt. eigenvalues --    0.80031   0.80409   0.82617   0.86303   0.91553
 Alpha virt. eigenvalues --    0.93152   0.93958   0.94479   0.95392   0.96603
 Alpha virt. eigenvalues --    0.99611   1.01456   1.02056   1.04453   1.05343
 Alpha virt. eigenvalues --    1.05528   1.10199   1.11103   1.12808   1.13453
 Alpha virt. eigenvalues --    1.13881   1.18111   1.18587   1.22263   1.22713
 Alpha virt. eigenvalues --    1.24986   1.28512   1.31729   1.33254   1.34104
 Alpha virt. eigenvalues --    1.35733   1.41237   1.45412   1.49157   1.50410
 Alpha virt. eigenvalues --    1.56643   1.60868   1.62861   1.68678   1.73080
 Alpha virt. eigenvalues --    1.74106   1.77512   1.78017   1.86837   1.89645
 Alpha virt. eigenvalues --    2.02129   2.14032   2.31665   2.42237   2.43047
 Alpha virt. eigenvalues --    2.43061   2.47082   2.47674   2.49864   2.50123
 Alpha virt. eigenvalues --    2.50393   2.51917   2.53796   2.54131   2.54705
 Alpha virt. eigenvalues --    2.55401   2.58208   2.58638   2.61336   2.64132
 Alpha virt. eigenvalues --    2.66125   2.68673   2.70846   2.72392   2.75670
 Alpha virt. eigenvalues --    2.75830   2.78899   2.81442   2.86044   2.91510
 Alpha virt. eigenvalues --    2.92475   3.11992   3.12415   3.21498   3.21875
 Alpha virt. eigenvalues --    3.24059   3.29537   3.30780   3.33684   3.33691
 Alpha virt. eigenvalues --    3.37575   3.56216   3.57787   3.65024   3.69634
 Alpha virt. eigenvalues --    3.95315   4.16036   4.17346   4.29960   4.41138
 Alpha virt. eigenvalues --    4.53559   4.60761   4.69249   4.73180   4.75293
 Alpha virt. eigenvalues --    5.19884   5.39301   6.19623   6.55488   6.86552
 Alpha virt. eigenvalues --    6.92552   6.96602   7.00394   7.08286   7.18235
 Alpha virt. eigenvalues --    7.35563   7.39172   7.52465   7.53717   7.82719
 Alpha virt. eigenvalues --    8.18239  12.88092  79.84174
          Condensed to atoms (all electrons):
               1          2          3          4
     1  O    8.725149  -0.150771  -0.139932   0.163563
     2  Cl  -0.150771  17.172178   0.020909  -0.031100
     3  Br  -0.139932   0.020909  25.692558   0.015489
     4  H    0.163563  -0.031100   0.015489   0.653799
 Mulliken charges:
               1
     1  O   -0.598009
     2  Cl  -0.011216
     3  Br  -0.589024
     4  H    0.198249
 Sum of Mulliken charges =  -1.00000
 Mulliken charges with hydrogens summed into heavy atoms:
               1
     1  O   -0.399760
     2  Cl  -0.011216
     3  Br  -0.589024
 Electronic spatial extent (au):  <R**2>=           1134.1273
 Charge=             -1.0000 electrons
 Dipole moment (field-independent basis, Debye):
    X=              0.3747    Y=              7.3231    Z=              0.0000  Tot=              7.3327
 Quadrupole moment (field-independent basis, Debye-Ang):
   XX=            -45.7565   YY=            -66.5420   ZZ=            -42.4808
   XY=             -6.1058   XZ=              0.0000   YZ=              0.0000
 Traceless Quadrupole moment (field-independent basis, Debye-Ang):
   XX=              5.8366   YY=            -14.9489   ZZ=              9.1123
   XY=             -6.1058   XZ=              0.0000   YZ=              0.0000
 Octapole moment (field-independent basis, Debye-Ang**2):
  XXX=            -23.2006  YYY=            264.9753  ZZZ=             -0.0000  XYY=              9.4615
  XXY=             68.7928  XXZ=              0.0000  XZZ=             -8.1864  YZZ=             64.6467
  YYZ=              0.0000  XYZ=              0.0000
 Hexadecapole moment (field-independent basis, Debye-Ang**3):
 XXXX=           -348.4085 YYYY=          -1397.5099 ZZZZ=            -58.5862 XXXY=           -141.3394
 XXXZ=              0.0000 YYYX=           -185.2159 YYYZ=             -0.0000 ZZZX=              0.0000
 ZZZY=              0.0000 XXYY=           -274.3943 XXZZ=            -71.7167 YYZZ=           -211.2454
 XXYZ=              0.0000 YYXZ=             -0.0000 ZZXY=            -46.1674
 N-N= 1.505718365594D+02 E-N=-2.610389245472D+03  KE= 8.302298989296D+02
 No NMR shielding tensors so no spin-rotation constants.
 Leave Link  601 at Tue Oct 19 14:36:51 2021, MaxMem= 16106127360 cpu:               4.2 elap:               0.2
 (Enter /sw/contrib/gaussian/g16/B01/g16/l607.exe)
 ******************************Gaussian NBO Version 3.1******************************
             N A T U R A L   A T O M I C   O R B I T A L   A N D
          N A T U R A L   B O N D   O R B I T A L   A N A L Y S I S
 ******************************Gaussian NBO Version 3.1******************************
       /RESON  / : Allow strongly delocalized NBO set

 Analyzing the MP2 density

 Job title: title                                                           

 Storage needed:     91686 in NPA,    121697 in NBO (********** available)
 GSVD:  LWork=        2436 too small for GESVD, short by       52200 words or       52200 for optimal perf.


 NATURAL POPULATIONS:  Natural atomic orbital occupancies 
                                                          
   NAO  Atom  No  lang   Type(AO)    Occupancy
 --------------------------------------------
     1    O    1  S      Cor( 1S)     1.99984
     2    O    1  S      Val( 2S)     1.85084
     3    O    1  S      Ryd( 3S)     0.01250
     4    O    1  S      Ryd( 4S)     0.00126
     5    O    1  S      Ryd( 5S)     0.00018
     6    O    1  px     Val( 2p)     1.17086
     7    O    1  px     Ryd( 3p)     0.00816
     8    O    1  px     Ryd( 5p)     0.00069
     9    O    1  px     Ryd( 4p)     0.00073
    10    O    1  py     Val( 2p)     1.75605
    11    O    1  py     Ryd( 3p)     0.01550
    12    O    1  py     Ryd( 4p)     0.00065
    13    O    1  py     Ryd( 5p)     0.00030
    14    O    1  pz     Val( 2p)     1.94379
    15    O    1  pz     Ryd( 3p)     0.02322
    16    O    1  pz     Ryd( 4p)     0.00060
    17    O    1  pz     Ryd( 5p)     0.00015
    18    O    1  dxy    Ryd( 3d)     0.00846
    19    O    1  dxy    Ryd( 4d)     0.00055
    20    O    1  dxy    Ryd( 5d)     0.00013
    21    O    1  dxz    Ryd( 3d)     0.00878
    22    O    1  dxz    Ryd( 4d)     0.00060
    23    O    1  dxz    Ryd( 5d)     0.00011
    24    O    1  dyz    Ryd( 3d)     0.00673
    25    O    1  dyz    Ryd( 4d)     0.00067
    26    O    1  dyz    Ryd( 5d)     0.00026
    27    O    1  dx2y2  Ryd( 3d)     0.01018
    28    O    1  dx2y2  Ryd( 4d)     0.00043
    29    O    1  dx2y2  Ryd( 5d)     0.00014
    30    O    1  dz2    Ryd( 3d)     0.00793
    31    O    1  dz2    Ryd( 4d)     0.00065
    32    O    1  dz2    Ryd( 5d)     0.00016
    33    O    1  f(0)   Ryd( 4f)     0.00065
    34    O    1  f(0)   Ryd( 5f)     0.00011
    35    O    1  f(C1)  Ryd( 4f)     0.00066
    36    O    1  f(C1)  Ryd( 5f)     0.00012
    37    O    1  f(S1)  Ryd( 4f)     0.00062
    38    O    1  f(S1)  Ryd( 5f)     0.00013
    39    O    1  f(C2)  Ryd( 4f)     0.00067
    40    O    1  f(C2)  Ryd( 5f)     0.00014
    41    O    1  f(S2)  Ryd( 4f)     0.00056
    42    O    1  f(S2)  Ryd( 5f)     0.00012
    43    O    1  f(C3)  Ryd( 4f)     0.00066
    44    O    1  f(C3)  Ryd( 5f)     0.00014
    45    O    1  f(S3)  Ryd( 4f)     0.00062
    46    O    1  f(S3)  Ryd( 5f)     0.00012

    47   Cl    2  S      Cor( 1S)     2.00000
    48   Cl    2  S      Cor( 2S)     1.99975
    49   Cl    2  S      Val( 3S)     1.87513
    50   Cl    2  S      Ryd( 4S)     0.00903
    51   Cl    2  S      Ryd( 5S)     0.00059
    52   Cl    2  S      Ryd( 6S)     0.00018
    53   Cl    2  px     Cor( 2p)     1.99995
    54   Cl    2  px     Val( 3p)     0.95059
    55   Cl    2  px     Ryd( 4p)     0.00732
    56   Cl    2  px     Ryd( 5p)     0.00057
    57   Cl    2  px     Ryd( 6p)     0.00022
    58   Cl    2  py     Cor( 2p)     2.00003
    59   Cl    2  py     Val( 3p)     1.95157
    60   Cl    2  py     Ryd( 4p)     0.01115
    61   Cl    2  py     Ryd( 5p)     0.00059
    62   Cl    2  py     Ryd( 6p)     0.00006
    63   Cl    2  pz     Cor( 2p)     2.00003
    64   Cl    2  pz     Val( 3p)     1.95296
    65   Cl    2  pz     Ryd( 4p)     0.01183
    66   Cl    2  pz     Ryd( 5p)     0.00075
    67   Cl    2  pz     Ryd( 6p)     0.00003
    68   Cl    2  dxy    Ryd( 3d)     0.02030
    69   Cl    2  dxy    Ryd( 4d)     0.00121
    70   Cl    2  dxy    Ryd( 5d)     0.00038
    71   Cl    2  dxz    Ryd( 3d)     0.02372
    72   Cl    2  dxz    Ryd( 4d)     0.00142
    73   Cl    2  dxz    Ryd( 5d)     0.00038
    74   Cl    2  dyz    Ryd( 3d)     0.01704
    75   Cl    2  dyz    Ryd( 4d)     0.00071
    76   Cl    2  dyz    Ryd( 5d)     0.00025
    77   Cl    2  dx2y2  Ryd( 3d)     0.01905
    78   Cl    2  dx2y2  Ryd( 4d)     0.00051
    79   Cl    2  dx2y2  Ryd( 5d)     0.00020
    80   Cl    2  dz2    Ryd( 3d)     0.01789
    81   Cl    2  dz2    Ryd( 4d)     0.00061
    82   Cl    2  dz2    Ryd( 5d)     0.00022
    83   Cl    2  f(0)   Ryd( 4f)     0.00133
    84   Cl    2  f(0)   Ryd( 5f)     0.00015
    85   Cl    2  f(C1)  Ryd( 4f)     0.00153
    86   Cl    2  f(C1)  Ryd( 5f)     0.00015
    87   Cl    2  f(S1)  Ryd( 4f)     0.00128
    88   Cl    2  f(S1)  Ryd( 5f)     0.00013
    89   Cl    2  f(C2)  Ryd( 4f)     0.00137
    90   Cl    2  f(C2)  Ryd( 5f)     0.00014
    91   Cl    2  f(S2)  Ryd( 4f)     0.00122
    92   Cl    2  f(S2)  Ryd( 5f)     0.00014
    93   Cl    2  f(C3)  Ryd( 4f)     0.00170
    94   Cl    2  f(C3)  Ryd( 5f)     0.00015
    95   Cl    2  f(S3)  Ryd( 4f)     0.00134
    96   Cl    2  f(S3)  Ryd( 5f)     0.00016

    97   Br    3  S      Cor( 3S)     1.99944
    98   Br    3  S      Val( 4S)     1.92734
    99   Br    3  S      Ryd( 5S)     0.00131
   100   Br    3  S      Ryd( 6S)     0.00051
   101   Br    3  S      Ryd( 7S)     0.00020
   102   Br    3  S      Ryd( 8S)     0.00000
   103   Br    3  px     Cor( 3p)     1.99995
   104   Br    3  px     Val( 4p)     1.93775
   105   Br    3  px     Ryd( 5p)     0.01000
   106   Br    3  px     Ryd( 6p)     0.00075
   107   Br    3  px     Ryd( 7p)     0.00014
   108   Br    3  py     Cor( 3p)     1.99979
   109   Br    3  py     Val( 4p)     1.66861
   110   Br    3  py     Ryd( 5p)     0.00837
   111   Br    3  py     Ryd( 6p)     0.00067
   112   Br    3  py     Ryd( 7p)     0.00015
   113   Br    3  pz     Cor( 3p)     1.99995
   114   Br    3  pz     Val( 4p)     1.95463
   115   Br    3  pz     Ryd( 5p)     0.01009
   116   Br    3  pz     Ryd( 6p)     0.00074
   117   Br    3  pz     Ryd( 7p)     0.00011
   118   Br    3  dxy    Cor( 3d)     1.99764
   119   Br    3  dxy    Ryd( 4d)     0.01798
   120   Br    3  dxy    Ryd( 5d)     0.00123
   121   Br    3  dxy    Ryd( 6d)     0.00022
   122   Br    3  dxz    Cor( 3d)     1.99771
   123   Br    3  dxz    Ryd( 4d)     0.01792
   124   Br    3  dxz    Ryd( 5d)     0.00161
   125   Br    3  dxz    Ryd( 6d)     0.00023
   126   Br    3  dyz    Cor( 3d)     1.99767
   127   Br    3  dyz    Ryd( 4d)     0.01790
   128   Br    3  dyz    Ryd( 5d)     0.00124
   129   Br    3  dyz    Ryd( 6d)     0.00023
   130   Br    3  dx2y2  Cor( 3d)     1.99756
   131   Br    3  dx2y2  Ryd( 4d)     0.01862
   132   Br    3  dx2y2  Ryd( 5d)     0.00139
   133   Br    3  dx2y2  Ryd( 6d)     0.00024
   134   Br    3  dz2    Cor( 3d)     1.99765
   135   Br    3  dz2    Ryd( 4d)     0.01825
   136   Br    3  dz2    Ryd( 5d)     0.00157
   137   Br    3  dz2    Ryd( 6d)     0.00018
   138   Br    3  f(0)   Ryd( 4f)     0.00168
   139   Br    3  f(0)   Ryd( 5f)     0.00025
   140   Br    3  f(C1)  Ryd( 4f)     0.00171
   141   Br    3  f(C1)  Ryd( 5f)     0.00024
   142   Br    3  f(S1)  Ryd( 4f)     0.00176
   143   Br    3  f(S1)  Ryd( 5f)     0.00028
   144   Br    3  f(C2)  Ryd( 4f)     0.00166
   145   Br    3  f(C2)  Ryd( 5f)     0.00024
   146   Br    3  f(S2)  Ryd( 4f)     0.00167
   147   Br    3  f(S2)  Ryd( 5f)     0.00024
   148   Br    3  f(C3)  Ryd( 4f)     0.00169
   149   Br    3  f(C3)  Ryd( 5f)     0.00026
   150   Br    3  f(S3)  Ryd( 4f)     0.00172
   151   Br    3  f(S3)  Ryd( 5f)     0.00027

   152    H    4  S      Val( 1S)     0.62772
   153    H    4  S      Ryd( 2S)     0.00553
   154    H    4  S      Ryd( 3S)     0.00082
   155    H    4  S      Ryd( 4S)     0.00018
   156    H    4  px     Ryd( 2p)     0.00487
   157    H    4  px     Ryd( 3p)     0.00047
   158    H    4  px     Ryd( 4p)     0.00012
   159    H    4  py     Ryd( 2p)     0.00497
   160    H    4  py     Ryd( 3p)     0.00143
   161    H    4  py     Ryd( 4p)     0.00020
   162    H    4  pz     Ryd( 2p)     0.00627
   163    H    4  pz     Ryd( 3p)     0.00048
   164    H    4  pz     Ryd( 4p)     0.00027
   165    H    4  dxy    Ryd( 3d)     0.00031
   166    H    4  dxy    Ryd( 4d)     0.00011
   167    H    4  dxz    Ryd( 3d)     0.00026
   168    H    4  dxz    Ryd( 4d)     0.00008
   169    H    4  dyz    Ryd( 3d)     0.00033
   170    H    4  dyz    Ryd( 4d)     0.00008
   171    H    4  dx2y2  Ryd( 3d)     0.00031
   172    H    4  dx2y2  Ryd( 4d)     0.00018
   173    H    4  dz2    Ryd( 3d)     0.00027
   174    H    4  dz2    Ryd( 4d)     0.00015

 [ 10 electrons found in the effective core potential]

 WARNING:  5 low occupancy (<1.9990e) core orbitals found on Br    3


 Summary of Natural Population Analysis:                  
                                                          
                                       Natural Population 
                Natural  -----------------------------------------------
    Atom  No    Charge         Core      Valence    Rydberg      Total
 -----------------------------------------------------------------------
      O    1   -0.83640      1.99984     6.72154    0.11502     8.83640
     Cl    2    0.11299      9.99976     6.73025    0.15700    16.88701
     Br    3   -0.62120     27.98735     7.48832    0.14552    35.62120
      H    4    0.34461      0.00000     0.62772    0.02768     0.65539
 =======================================================================
   * Total *   -1.00000     39.98695    21.56783    0.44522    62.00000

                                 Natural Population      
 --------------------------------------------------------
   Effective Core            10.00000
   Core                      29.98695 ( 99.9565% of  30)
   Valence                   21.56783 ( 98.0356% of  22)
   Natural Minimal Basis     61.55478 ( 99.2819% of  62)
   Natural Rydberg Basis      0.44522 (  0.7181% of  62)
 --------------------------------------------------------

    Atom  No          Natural Electron Configuration
 ----------------------------------------------------------------------------
      O    1      [core]2S( 1.85)2p( 4.87)3S( 0.01)3p( 0.05)3d( 0.04)
     Cl    2      [core]3S( 1.88)3p( 4.86)4S( 0.01)3d( 0.10)4p( 0.03)4f( 0.01)
     Br    3      [core]4S( 1.93)4p( 5.56)4d( 0.09)5p( 0.03)4f( 0.01)5d( 0.01)
      H    4            1S( 0.63)2S( 0.01)2p( 0.02)


 NATURAL BOND ORBITAL ANALYSIS:
 Warning:  a bond orbital has occupanc of -0.00022

                       Occupancies       Lewis Structure    Low   High
           Occ.    -------------------  -----------------   occ   occ
  Cycle   Thresh.   Lewis   Non-Lewis     CR  BD  3C  LP    (L)   (NL)   Dev
 =============================================================================
   1(1)    1.90    61.16352   0.83648     15   2   0   9     1      1    0.46
 Warning:  a bond orbital has occupanc of -0.00022
   2(2)    1.90    61.25270   0.74730     15   2   0   9     1      1    0.34
 Warning:  a bond orbital has occupanc of -0.00022
   3(3)    1.90    61.16352   0.83648     15   2   0   9     1      1    0.46
 Warning:  a bond orbital has occupanc of -0.00022
   4(4)    1.90    61.25270   0.74730     15   2   0   9     1      1    0.34
 Warning:  a bond orbital has occupanc of -0.00022
   5(1)    1.80    61.25270   0.74730     15   2   0   9     1      1    0.34
 Warning:  a bond orbital has occupanc of -0.00022
   6(2)    1.80    61.16352   0.83648     15   2   0   9     1      1    0.46
 Warning:  a bond orbital has occupanc of -0.00022
   7(3)    1.80    61.25270   0.74730     15   2   0   9     1      1    0.34
 Warning:  a bond orbital has occupanc of -0.00022
   8(1)    1.70    61.26333   0.73667     15   2   0   9     0      1    0.34
 Warning:  a bond orbital has occupanc of -0.00022
   9(2)    1.70    61.26333   0.73667     15   2   0   9     0      1    0.34
 Warning:  a bond orbital has occupanc of -0.00022
  10(1)    1.60    60.91770   1.08230     15   1   0  10     0      1    0.46
 Warning:  a bond orbital has occupanc of -0.00022
  11(2)    1.60    60.91770   1.08230     15   1   0  10     0      1    0.46
 Warning:  a bond orbital has occupanc of -0.00022
  12(1)    1.50    60.91770   1.08230     15   1   0  10     0      1    0.46
 Warning:  a bond orbital has occupanc of -0.00022
  13(2)    1.50    60.91770   1.08230     15   1   0  10     0      1    0.46
 Warning:  a bond orbital has occupanc of -0.00022
  14(1)    1.70    61.26333   0.73667     15   2   0   9     0      1    0.34
 -----------------------------------------------------------------------------

 Structure accepted: RESONANCE keyword permits strongly delocalized structure

 WARNING:  5 low occupancy (<1.9990e) core orbitals found on Br    3

 --------------------------------------------------------
   Effective Core           10.00000
   Core                     29.98695 ( 99.957% of  30)
   Valence Lewis            21.27638 ( 96.711% of  22)
  ==================       ============================
   Total Lewis              61.26333 ( 98.812% of  62)
  -----------------------------------------------------
   Valence non-Lewis         0.33805 (  0.545% of  62)
   Rydberg non-Lewis         0.39862 (  0.643% of  62)
  ==================       ============================
   Total non-Lewis           0.73667 (  1.188% of  62)
 --------------------------------------------------------


       (Occupancy)   Bond orbital/ Coefficients/ Hybrids
 ---------------------------------------------------------------------------------
     1. (1.93489) BD ( 1) O   1 -Cl   2  
                ( 56.79%)   0.7536* O   1 s(  8.32%)p10.95( 91.17%)d 0.06(  0.49%)
                                                  f 0.00(  0.02%)
                                            0.0003  0.2813 -0.0617  0.0162 -0.0014
                                            0.9531 -0.0467 -0.0116 -0.0185  0.0146
                                           -0.0202 -0.0035  0.0026  0.0000  0.0000
                                            0.0000  0.0000 -0.0113 -0.0014  0.0009
                                            0.0000  0.0000  0.0000  0.0000  0.0000
                                            0.0000  0.0565  0.0038  0.0014 -0.0390
                                           -0.0033 -0.0002  0.0000  0.0000 -0.0105
                                            0.0008 -0.0006  0.0002  0.0000  0.0000
                                            0.0000  0.0000  0.0084  0.0008 -0.0007
                                            0.0011
                ( 43.21%)   0.6573*Cl   2 s(  9.57%)p 9.32( 89.24%)d 0.11(  1.06%)
                                                  f 0.01(  0.12%)
                                           -0.0000  0.0007  0.3027 -0.0631 -0.0112
                                           -0.0022 -0.0004 -0.9422  0.0665  0.0131
                                           -0.0027  0.0000 -0.0090 -0.0042  0.0028
                                           -0.0019  0.0000  0.0000  0.0000  0.0000
                                            0.0000  0.0074 -0.0013 -0.0007  0.0000
                                            0.0000  0.0000  0.0000  0.0000  0.0000
                                            0.0859 -0.0131 -0.0020 -0.0542  0.0083
                                            0.0022  0.0000  0.0000  0.0218 -0.0028
                                            0.0003 -0.0001  0.0000  0.0000  0.0000
                                            0.0000 -0.0268  0.0029 -0.0010  0.0006
     2. (1.95355) BD ( 1)Br   3 - H   4  
                ( 79.32%)   0.8906*Br   3 s( 13.26%)p 6.52( 86.48%)d 0.02(  0.24%)
                                                  f 0.00(  0.02%)
                                            0.0004  0.3641 -0.0025 -0.0039  0.0006
                                            0.0005  0.0001  0.2173 -0.0029 -0.0011
                                            0.0007  0.0006  0.9040 -0.0156 -0.0065
                                            0.0029  0.0000  0.0000  0.0000  0.0000
                                            0.0000  0.0000  0.0188 -0.0024  0.0005
                                            0.0000  0.0000  0.0000  0.0000  0.0000
                                            0.0000  0.0000  0.0000 -0.0000 -0.0372
                                            0.0036 -0.0005 -0.0000 -0.0250  0.0028
                                           -0.0009  0.0000  0.0000 -0.0021  0.0001
                                           -0.0084  0.0000  0.0000  0.0000  0.0000
                                            0.0000 -0.0072  0.0001 -0.0081 -0.0005
                ( 20.68%)   0.4547* H   4 s( 99.77%)p 0.00(  0.20%)d 0.00(  0.03%)
                                            0.9986  0.0076  0.0206  0.0003 -0.0072
                                           -0.0033 -0.0045 -0.0329 -0.0275 -0.0060
                                            0.0000  0.0000  0.0000 -0.0000  0.0077
                                            0.0000  0.0000  0.0000  0.0000 -0.0008
                                           -0.0132 -0.0013 -0.0097
     3. (1.99984) CR ( 1) O   1           s(100.00%)p 0.00(  0.00%)
                                            1.0000 -0.0001  0.0000 -0.0000  0.0000
                                           -0.0003  0.0000  0.0000  0.0000 -0.0005
                                            0.0000  0.0000  0.0000  0.0000  0.0000
                                            0.0000  0.0000 -0.0000 -0.0000 -0.0000
                                            0.0000  0.0000  0.0000  0.0000  0.0000
                                            0.0000 -0.0000 -0.0000  0.0000  0.0000
                                            0.0000  0.0000  0.0000  0.0000  0.0000
                                           -0.0000  0.0000 -0.0000  0.0000  0.0000
                                            0.0000  0.0000 -0.0000  0.0000 -0.0000
                                           -0.0000
     4. (2.00000) CR ( 1)Cl   2           s(100.00%)
                                            1.0000  0.0000  0.0000 -0.0000 -0.0000
                                           -0.0000 -0.0000 -0.0000  0.0000  0.0000
                                           -0.0000  0.0000 -0.0000 -0.0000  0.0000
                                           -0.0000  0.0000  0.0000  0.0000  0.0000
                                            0.0000  0.0000 -0.0000 -0.0000  0.0000
                                            0.0000  0.0000  0.0000  0.0000  0.0000
                                            0.0000 -0.0000 -0.0000 -0.0000  0.0000
                                            0.0000  0.0000  0.0000  0.0000 -0.0000
                                            0.0000 -0.0000  0.0000  0.0000  0.0000
                                            0.0000 -0.0000  0.0000 -0.0000  0.0000
     5. (1.99975) CR ( 2)Cl   2           s(100.00%)p 0.00(  0.00%)
                                            0.0000  1.0000 -0.0005  0.0000  0.0000
                                            0.0000  0.0000  0.0006 -0.0000 -0.0000
                                            0.0000 -0.0000  0.0000  0.0000 -0.0000
                                            0.0000  0.0000  0.0000  0.0000  0.0000
                                            0.0000 -0.0000  0.0000  0.0000  0.0000
                                            0.0000  0.0000  0.0000  0.0000  0.0000
                                           -0.0001  0.0000  0.0000  0.0000 -0.0000
                                           -0.0000  0.0000  0.0000 -0.0000  0.0000
                                           -0.0000  0.0000  0.0000  0.0000  0.0000
                                            0.0000  0.0000 -0.0000  0.0000 -0.0000
     6. (1.99995) CR ( 3)Cl   2           s(  0.00%)p 1.00(100.00%)
                                           -0.0000  0.0000  0.0001 -0.0000 -0.0000
                                           -0.0000  1.0000 -0.0004  0.0000  0.0000
                                           -0.0000  0.0000 -0.0000 -0.0000  0.0000
                                           -0.0000  0.0000  0.0000  0.0000  0.0000
                                            0.0000  0.0000 -0.0000 -0.0000  0.0000
                                            0.0000  0.0000  0.0000  0.0000  0.0000
                                            0.0000 -0.0000 -0.0000 -0.0000  0.0000
                                            0.0000  0.0000  0.0000  0.0000 -0.0000
                                            0.0000 -0.0000  0.0000  0.0000  0.0000
                                            0.0000 -0.0000  0.0000 -0.0000  0.0000
     7. (2.00003) CR ( 4)Cl   2           s(  0.00%)p 1.00(100.00%)
                                            0.0000 -0.0000 -0.0000  0.0000  0.0000
                                           -0.0000  0.0000 -0.0000  0.0000  0.0000
                                           -0.0000  1.0000  0.0001  0.0000  0.0000
                                            0.0000  0.0000  0.0000  0.0000  0.0000
                                            0.0000  0.0000  0.0000  0.0000  0.0000
                                            0.0000  0.0000  0.0000  0.0000  0.0000
                                           -0.0000 -0.0000 -0.0000  0.0000 -0.0000
                                            0.0000  0.0000  0.0000  0.0000  0.0000
                                           -0.0000  0.0000  0.0000  0.0000  0.0000
                                            0.0000 -0.0000  0.0000  0.0000 -0.0000
     8. (2.00003) CR ( 5)Cl   2           s(  0.00%)p 1.00(100.00%)
                                            0.0000  0.0000  0.0000  0.0000  0.0000
                                            0.0000  0.0000  0.0000  0.0000  0.0000
                                            0.0000  0.0000  0.0000  0.0000  0.0000
                                            0.0000  1.0000  0.0001  0.0000  0.0000
                                           -0.0000  0.0000  0.0000  0.0000  0.0000
                                            0.0000  0.0000  0.0000  0.0000  0.0000
                                            0.0000  0.0000  0.0000  0.0000  0.0000
                                            0.0000 -0.0000  0.0000  0.0000  0.0000
                                            0.0000  0.0000  0.0000 -0.0000  0.0000
                                           -0.0000  0.0000  0.0000  0.0000  0.0000
     9. (1.99944) CR ( 1)Br   3           s(100.00%)p 0.00(  0.00%)
                                            1.0000 -0.0006  0.0000  0.0000 -0.0000
                                           -0.0000 -0.0000 -0.0000  0.0000  0.0000
                                           -0.0000 -0.0000 -0.0001  0.0000  0.0000
                                           -0.0000  0.0000  0.0000  0.0000  0.0000
                                            0.0000  0.0000 -0.0000  0.0000  0.0000
                                            0.0000  0.0000  0.0000  0.0000  0.0000
                                            0.0000  0.0000  0.0000 -0.0000  0.0000
                                           -0.0000 -0.0000 -0.0000  0.0000 -0.0000
                                            0.0000  0.0000  0.0000  0.0000 -0.0000
                                            0.0000 -0.0000  0.0000  0.0000  0.0000
                                            0.0000  0.0000 -0.0000  0.0000  0.0000
    10. (1.99994) CR ( 2)Br   3           s(  0.00%)p 1.00(100.00%)
                                           -0.0000  0.0000  0.0000  0.0000 -0.0000
                                           -0.0000  1.0000 -0.0005 -0.0000 -0.0000
                                            0.0000 -0.0000 -0.0000  0.0000  0.0000
                                           -0.0000  0.0000  0.0000  0.0000  0.0000
                                            0.0000  0.0000 -0.0000  0.0000  0.0000
                                            0.0000  0.0000  0.0000  0.0000  0.0000
                                            0.0000  0.0000  0.0000  0.0000  0.0000
                                           -0.0000  0.0000  0.0000  0.0000 -0.0000
                                           -0.0000  0.0000  0.0000  0.0000 -0.0000
                                            0.0000  0.0000  0.0000  0.0000  0.0000
                                            0.0000  0.0000 -0.0000 -0.0000  0.0000
    11. (1.99980) CR ( 3)Br   3           s(  0.00%)p 1.00(100.00%)
                                           -0.0000  0.0001  0.0000  0.0000 -0.0000
                                           -0.0000 -0.0000 -0.0000  0.0000  0.0000
                                           -0.0000  1.0000 -0.0006  0.0000  0.0000
                                           -0.0000  0.0000  0.0000  0.0000  0.0000
                                            0.0000 -0.0000 -0.0000  0.0000 -0.0000
                                            0.0000  0.0000  0.0000  0.0000  0.0000
                                            0.0000  0.0000  0.0000  0.0000  0.0000
                                           -0.0000  0.0000  0.0000  0.0000 -0.0000
                                            0.0000  0.0000  0.0000  0.0000  0.0000
                                            0.0000  0.0000  0.0000  0.0000  0.0000
                                            0.0000  0.0000  0.0000  0.0000  0.0000
    12. (1.99995) CR ( 4)Br   3           s(  0.00%)p 1.00(100.00%)
                                            0.0000  0.0000  0.0000  0.0000  0.0000
                                            0.0000  0.0000  0.0000  0.0000  0.0000
                                            0.0000  0.0000  0.0000  0.0000  0.0000
                                            0.0000  1.0000 -0.0004 -0.0000 -0.0000
                                            0.0000  0.0000  0.0000  0.0000  0.0000
                                            0.0000 -0.0000 -0.0000  0.0000  0.0000
                                           -0.0000  0.0000  0.0000  0.0000  0.0000
                                            0.0000  0.0000  0.0000  0.0000  0.0000
                                            0.0000  0.0000 -0.0000  0.0000  0.0000
                                            0.0000  0.0000  0.0000 -0.0000 -0.0000
                                            0.0000  0.0000  0.0000  0.0000  0.0000
    13. (1.99764) CR ( 5)Br   3           s(  0.00%)p 0.00(  0.00%)d 1.00(100.00%)
                                            0.0000  0.0000  0.0000  0.0000 -0.0000
                                           -0.0000  0.0000  0.0000  0.0000  0.0000
                                           -0.0000 -0.0000 -0.0000  0.0000 -0.0000
                                           -0.0000  0.0000  0.0000  0.0000  0.0000
                                            0.0000  1.0000  0.0000  0.0000 -0.0000
                                            0.0000  0.0000  0.0000  0.0000  0.0000
                                            0.0000  0.0000  0.0000  0.0000  0.0000
                                            0.0000 -0.0000  0.0000  0.0000 -0.0000
                                            0.0000  0.0000  0.0000 -0.0000  0.0000
                                            0.0000  0.0000  0.0000  0.0000  0.0000
                                            0.0000 -0.0000  0.0000  0.0000 -0.0000
    14. (1.99771) CR ( 6)Br   3           s(  0.00%)p 0.00(  0.00%)d 1.00(100.00%)
                                            0.0000  0.0000  0.0000  0.0000  0.0000
                                            0.0000  0.0000  0.0000  0.0000  0.0000
                                            0.0000  0.0000  0.0000  0.0000  0.0000
                                            0.0000  0.0000  0.0000  0.0000  0.0000
                                           -0.0000  0.0000  0.0000  0.0000  0.0000
                                            1.0000  0.0000  0.0000 -0.0000 -0.0000
                                            0.0000 -0.0000 -0.0000  0.0000  0.0000
                                            0.0000  0.0000  0.0000  0.0000  0.0000
                                            0.0000 -0.0000  0.0000  0.0000  0.0000
                                            0.0000  0.0000 -0.0000  0.0000  0.0000
                                           -0.0000  0.0000  0.0000  0.0000  0.0000
    15. (1.99767) CR ( 7)Br   3           s(  0.00%)p 0.00(  0.00%)d 1.00(100.00%)
                                            0.0000  0.0000  0.0000  0.0000  0.0000
                                            0.0000  0.0000  0.0000  0.0000  0.0000
                                            0.0000  0.0000  0.0000  0.0000  0.0000
                                            0.0000  0.0000  0.0000  0.0000  0.0000
                                           -0.0000  0.0000  0.0000  0.0000  0.0000
                                           -0.0000  0.0000  0.0000 -0.0000  1.0000
                                            0.0000 -0.0000 -0.0000  0.0000  0.0000
                                            0.0000  0.0000  0.0000  0.0000  0.0000
                                            0.0000 -0.0000  0.0000  0.0000  0.0000
                                            0.0000  0.0000 -0.0000  0.0000  0.0000
                                           -0.0000  0.0000  0.0000  0.0000  0.0000
    16. (1.99756) CR ( 8)Br   3           s(  0.00%)p 0.00(  0.00%)d 1.00(100.00%)
                                           -0.0000 -0.0001 -0.0000 -0.0000  0.0000
                                            0.0000  0.0000  0.0000  0.0000  0.0000
                                           -0.0000  0.0000  0.0000 -0.0000 -0.0000
                                            0.0000  0.0000  0.0000  0.0000  0.0000
                                            0.0000  0.0000  0.0000 -0.0000 -0.0000
                                            0.0000  0.0000  0.0000  0.0000  0.0000
                                            0.0000  0.0000  0.0000  1.0000 -0.0000
                                            0.0000 -0.0000 -0.0000 -0.0000  0.0000
                                           -0.0000  0.0000  0.0000 -0.0000  0.0000
                                           -0.0000 -0.0000  0.0000  0.0000  0.0000
                                            0.0000 -0.0000  0.0000  0.0000 -0.0000
    17. (1.99765) CR ( 9)Br   3           s(  0.00%)p 0.00(  0.00%)d 1.00(100.00%)
                                           -0.0000 -0.0000 -0.0000 -0.0000  0.0000
                                            0.0000  0.0000  0.0000 -0.0000  0.0000
                                            0.0000  0.0000  0.0000 -0.0000 -0.0000
                                            0.0000  0.0000  0.0000  0.0000  0.0000
                                            0.0000  0.0000  0.0000 -0.0000  0.0000
                                            0.0000  0.0000  0.0000  0.0000  0.0000
                                            0.0000  0.0000  0.0000 -0.0000 -0.0000
                                            0.0000 -0.0000  1.0000 -0.0000  0.0000
                                           -0.0000  0.0000  0.0000 -0.0000  0.0000
                                           -0.0000 -0.0000  0.0000  0.0000  0.0000
                                            0.0000 -0.0000 -0.0000 -0.0000 -0.0000
    18. (1.96683) LP ( 1) O   1           s( 72.43%)p 0.38( 27.53%)d 0.00(  0.04%)
                                                  f 0.00(  0.00%)
                                            0.0002  0.8509  0.0101 -0.0074 -0.0013
                                           -0.2571  0.0026 -0.0040  0.0000  0.4572
                                            0.0064  0.0041  0.0013  0.0000  0.0000
                                            0.0000  0.0000  0.0192  0.0028 -0.0020
                                            0.0000  0.0000  0.0000  0.0000  0.0000
                                            0.0000  0.0055 -0.0003 -0.0029  0.0045
                                           -0.0002  0.0010  0.0000  0.0000 -0.0003
                                            0.0006 -0.0011 -0.0002  0.0000  0.0000
                                            0.0000  0.0000  0.0033 -0.0021  0.0046
                                           -0.0009
    19. (1.94753) LP ( 2) O   1           s(  0.00%)p 1.00( 99.85%)d 0.00(  0.14%)
                                                  f 0.00(  0.01%)
                                            0.0000  0.0000  0.0000  0.0000  0.0000
                                            0.0000  0.0000  0.0000  0.0000  0.0000
                                            0.0000  0.0000  0.0000  0.9990  0.0163
                                            0.0042  0.0122  0.0000  0.0000  0.0000
                                            0.0322  0.0043 -0.0027 -0.0142  0.0039
                                            0.0090  0.0000  0.0000  0.0000  0.0000
                                            0.0000  0.0000 -0.0083 -0.0000  0.0000
                                            0.0000  0.0000  0.0000  0.0079 -0.0024
                                           -0.0001  0.0011  0.0000  0.0000  0.0000
                                            0.0000
    20. (1.70618) LP ( 3) O   1           s( 19.62%)p 4.09( 80.19%)d 0.01(  0.19%)
                                                  f 0.00(  0.01%)
                                           -0.0004  0.4428  0.0018  0.0097  0.0034
                                           -0.1161  0.0060  0.0011  0.0063 -0.8878
                                           -0.0130  0.0005  0.0028 -0.0000 -0.0000
                                           -0.0000 -0.0000 -0.0184 -0.0035 -0.0002
                                           -0.0000 -0.0000 -0.0000 -0.0000 -0.0000
                                           -0.0000 -0.0323 -0.0049  0.0017 -0.0203
                                           -0.0012  0.0042 -0.0000 -0.0000  0.0006
                                            0.0003  0.0081 -0.0018 -0.0000 -0.0000
                                           -0.0000 -0.0000  0.0025  0.0001 -0.0031
                                           -0.0007
    21. (1.97399) LP ( 1)Cl   2           s( 90.71%)p 0.10(  9.27%)d 0.00(  0.03%)
                                                  f 0.00(  0.00%)
                                            0.0000  0.0003  0.9524  0.0083  0.0014
                                            0.0003  0.0001  0.3032 -0.0064 -0.0033
                                            0.0014  0.0000 -0.0256  0.0009  0.0000
                                           -0.0006  0.0000  0.0000  0.0000  0.0000
                                            0.0000 -0.0004 -0.0002 -0.0001  0.0000
                                            0.0000  0.0000  0.0000  0.0000  0.0000
                                           -0.0140  0.0000  0.0005  0.0085  0.0004
                                           -0.0000  0.0000  0.0000 -0.0025 -0.0002
                                            0.0001 -0.0000  0.0000  0.0000  0.0000
                                            0.0000  0.0037 -0.0001 -0.0002  0.0001
    22. (1.95486) LP ( 2)Cl   2           s(  0.00%)p 1.00( 99.93%)d 0.00(  0.06%)
                                                  f 0.00(  0.01%)
                                            0.0000  0.0000  0.0000  0.0000  0.0000
                                            0.0000  0.0000  0.0000  0.0000  0.0000
                                            0.0000  0.0000  0.0000  0.0000  0.0000
                                            0.0000 -0.0001  0.9995  0.0155  0.0050
                                           -0.0022  0.0000  0.0000  0.0000  0.0124
                                            0.0204  0.0073  0.0019  0.0014  0.0000
                                            0.0000  0.0000  0.0000  0.0000  0.0000
                                            0.0000 -0.0055  0.0016  0.0000  0.0000
                                            0.0000  0.0000  0.0063 -0.0014  0.0006
                                           -0.0005  0.0000  0.0000  0.0000  0.0000
    23. (1.95324) LP ( 3)Cl   2           s(  0.08%)p99.99( 99.87%)d 0.62(  0.05%)
                                                  f 0.10(  0.01%)
                                            0.0000 -0.0000  0.0272  0.0038  0.0038
                                           -0.0027  0.0000 -0.0015  0.0008  0.0002
                                           -0.0005 -0.0001  0.9992  0.0145  0.0016
                                            0.0005  0.0000  0.0000  0.0000  0.0000
                                            0.0000  0.0057  0.0188  0.0072  0.0000
                                            0.0000  0.0000  0.0000  0.0000  0.0000
                                           -0.0046 -0.0036 -0.0022  0.0002 -0.0015
                                            0.0002  0.0000  0.0000  0.0001  0.0001
                                           -0.0024  0.0006  0.0000  0.0000  0.0000
                                            0.0000 -0.0010  0.0003  0.0083 -0.0019
    24. (1.97551) LP ( 1)Br   3           s( 86.72%)p 0.15( 13.28%)d 0.00(  0.00%)
                                                  f 0.00(  0.00%)
                                            0.0005  0.9312  0.0011  0.0019 -0.0004
                                           -0.0001 -0.0001 -0.0930  0.0006 -0.0001
                                           -0.0001 -0.0003 -0.3523  0.0047  0.0003
                                           -0.0008  0.0000  0.0000  0.0000  0.0000
                                            0.0000 -0.0000 -0.0023  0.0003 -0.0003
                                            0.0000  0.0000  0.0000  0.0000  0.0000
                                            0.0000  0.0000  0.0000  0.0001  0.0043
                                           -0.0004  0.0004  0.0001  0.0031 -0.0004
                                            0.0006  0.0000  0.0000  0.0002 -0.0000
                                            0.0005  0.0001  0.0000  0.0000  0.0000
                                            0.0000  0.0005  0.0001  0.0005  0.0002
    25. (1.95507) LP ( 2)Br   3           s(  0.00%)p 1.00( 99.98%)d 0.00(  0.01%)
                                                  f 0.00(  0.00%)
                                            0.0000  0.0000  0.0000  0.0000  0.0000
                                            0.0000  0.0000  0.0000  0.0000  0.0000
                                            0.0000  0.0000  0.0000  0.0000  0.0000
                                            0.0000  0.0004  0.9999  0.0057  0.0024
                                           -0.0010  0.0000  0.0000  0.0000  0.0000
                                           -0.0000  0.0017  0.0005 -0.0018 -0.0000
                                            0.0103 -0.0001 -0.0051  0.0000  0.0000
                                            0.0000  0.0000  0.0000  0.0000  0.0000
                                            0.0000 -0.0039  0.0015  0.0000  0.0000
                                            0.0000  0.0000 -0.0045  0.0016  0.0022
                                           -0.0008  0.0000  0.0000  0.0000  0.0000
    26. (1.95475) LP ( 3)Br   3           s(  0.01%)p 1.00( 99.97%)d 0.00(  0.02%)
                                                  f 0.00(  0.00%)
                                            0.0000  0.0075 -0.0007 -0.0008  0.0005
                                           -0.0001  0.0004  0.9714  0.0055  0.0022
                                           -0.0011 -0.0001 -0.2366 -0.0014 -0.0008
                                            0.0003  0.0000  0.0000  0.0000  0.0000
                                            0.0000 -0.0000  0.0104  0.0000 -0.0046
                                            0.0000  0.0000  0.0000  0.0000  0.0000
                                            0.0000  0.0000  0.0000 -0.0000  0.0035
                                            0.0008 -0.0035  0.0000  0.0004 -0.0004
                                            0.0004  0.0000  0.0000 -0.0015  0.0006
                                            0.0003 -0.0001  0.0000  0.0000  0.0000
                                            0.0000 -0.0047  0.0016  0.0037 -0.0013
    27. (0.02285) RY*( 1) O   1           s(  0.00%)p 1.00( 99.31%)d 0.01(  0.64%)
                                                  f 0.00(  0.04%)
                                            0.0000  0.0000  0.0000  0.0000  0.0000
                                            0.0000  0.0000  0.0000  0.0000  0.0000
                                            0.0000  0.0000  0.0000 -0.0190  0.9959
                                           -0.0286 -0.0151  0.0000  0.0000  0.0000
                                            0.0628  0.0251  0.0044 -0.0417 -0.0009
                                            0.0105  0.0000  0.0000  0.0000  0.0000
                                            0.0000  0.0000 -0.0116  0.0088  0.0000
                                            0.0000  0.0000  0.0000  0.0105 -0.0095
                                           -0.0010  0.0010  0.0000  0.0000  0.0000
                                            0.0000
    28. (0.01857) RY*( 2) O   1           s( 23.12%)p 3.26( 75.31%)d 0.06(  1.47%)
                                                  f 0.00(  0.10%)
                                           -0.0000  0.0061  0.4803  0.0103 -0.0190
                                            0.0353 -0.2895 -0.0159  0.0264 -0.0169
                                            0.8146 -0.0157 -0.0539  0.0000  0.0000
                                            0.0000  0.0000  0.1131  0.0353  0.0150
                                            0.0000  0.0000  0.0000  0.0000  0.0000
                                            0.0000 -0.0118  0.0047  0.0038  0.0143
[...]
                                           -0.0047 -0.0262  0.0517 -0.0192 -0.0570
                                            0.9034 -0.0412  0.0457 -0.2771  0.1127
                                            0.0000  0.0000  0.0000 -0.1136 -0.0598
                                            0.0000  0.0000  0.0000  0.0000 -0.2264
                                           -0.0329  0.0935 -0.0779
   158. (0.00031) RY*( 8) H   4           s(  4.10%)p 1.13(  4.62%)d22.25( 91.27%)
                                            0.0038  0.0145 -0.1418  0.1439 -0.0667
                                            0.1725 -0.0831  0.0374 -0.0406  0.0459
                                           -0.0000 -0.0000 -0.0000 -0.3655  0.0471
                                           -0.0000 -0.0000 -0.0000 -0.0000  0.6089
                                           -0.1153 -0.5396  0.3189
   159. (0.00030) RY*( 9) H   4           s(  0.00%)p 1.00(  1.41%)d69.69( 98.59%)
                                            0.0000  0.0000  0.0000  0.0000  0.0000
                                            0.0000  0.0000  0.0000  0.0000  0.0000
                                            0.0169 -0.1175  0.0076  0.0000  0.0000
                                            0.9066 -0.3763 -0.1096  0.1014  0.0000
                                            0.0000  0.0000  0.0000
   160. (0.00030) RY*(10) H   4           s( 25.72%)p 0.52( 13.27%)d 2.37( 61.01%)
                                            0.0044  0.0125 -0.2563  0.4374 -0.0438
                                           -0.1553 -0.1227  0.0332 -0.0906  0.2870
                                            0.0000  0.0000  0.0000 -0.4828 -0.0919
                                            0.0000  0.0000  0.0000  0.0000  0.1252
                                           -0.0000  0.5817 -0.1203
   161. (0.00022) RY*(11) H   4           s(  3.28%)p 3.15( 10.32%)d26.35( 86.40%)
                                            0.0050  0.0004 -0.0196  0.1800  0.1170
                                            0.2168  0.2046  0.0052 -0.0215  0.0101
                                            0.0000  0.0000  0.0000  0.5923  0.0700
                                            0.0000  0.0000  0.0000  0.0000  0.6092
                                            0.1756  0.3259 -0.0140
   162. (0.00023) RY*(12) H   4           s(  0.00%)p 1.00( 46.60%)d 1.15( 53.40%)
                                            0.0000  0.0000  0.0000  0.0000  0.0000
                                            0.0000  0.0000  0.0000  0.0000  0.0000
                                            0.0076  0.6584  0.1803  0.0000  0.0000
                                            0.1750  0.0337  0.7051  0.0706  0.0000
                                            0.0000  0.0000  0.0000
   163. (0.00021) RY*(13) H   4           s( 25.86%)p 0.81( 20.89%)d 2.06( 53.25%)
                                           -0.0105 -0.0624 -0.1779  0.4722 -0.0048
                                           -0.0979 -0.0022  0.0017 -0.2560  0.3657
                                            0.0000  0.0000  0.0000  0.3592  0.2401
                                            0.0000  0.0000  0.0000  0.0000 -0.2205
                                           -0.3505 -0.3446 -0.2357
   164. (0.00016) RY*(14) H   4           s( 59.53%)p 0.65( 38.46%)d 0.03(  2.02%)
                                           -0.0009  0.0322  0.7189  0.2783  0.0258
                                            0.0587  0.2278 -0.0253  0.4445  0.3611
                                            0.0000  0.0000  0.0000 -0.1289  0.0194
                                            0.0000  0.0000  0.0000  0.0000  0.0042
                                           -0.0360 -0.0418 -0.0093
   165. (0.00010) RY*(15) H   4           s( 36.52%)p 1.67( 61.13%)d 0.06(  2.36%)
                                           -0.0002  0.0080  0.0424  0.6027  0.0038
                                            0.1116 -0.0464  0.0579  0.1616 -0.7531
                                           -0.0000 -0.0000 -0.0000 -0.0366  0.0330
                                           -0.0000 -0.0000 -0.0000 -0.0000 -0.1335
                                           -0.0175 -0.0274 -0.0477
   166. (0.00009) RY*(16) H   4           s(  0.00%)p 1.00( 73.36%)d 0.36( 26.64%)
   167. (0.00007) RY*(17) H   4           s(  0.54%)p11.63(  6.27%)d99.99( 93.19%)
   168. (0.00007) RY*(18) H   4           s(  0.00%)p 1.00(  5.55%)d17.03( 94.45%)
   169. (0.00005) RY*(19) H   4           s(  3.51%)p23.48( 82.39%)d 4.02( 14.10%)
   170. (0.00004) RY*(20) H   4           s(  5.89%)p 0.80(  4.73%)d15.19( 89.39%)
   171. (0.00003) RY*(21) H   4           s(  0.00%)p 1.00(  0.48%)d99.99( 99.52%)
   172. (0.00003) RY*(22) H   4           s(  3.40%)p 0.85(  2.89%)d27.54( 93.71%)
   173. (0.05642) BD*( 1) O   1 -Cl   2  
                ( 43.21%)   0.6573* O   1 s(  8.32%)p10.95( 91.17%)d 0.06(  0.49%)
                                                  f 0.00(  0.02%)
                                           -0.0003 -0.2813  0.0617 -0.0162  0.0014
                                           -0.9531  0.0467  0.0116  0.0185 -0.0146
                                            0.0202  0.0035 -0.0026 -0.0000 -0.0000
                                           -0.0000 -0.0000  0.0113  0.0014 -0.0009
                                           -0.0000 -0.0000 -0.0000 -0.0000 -0.0000
                                           -0.0000 -0.0565 -0.0038 -0.0014  0.0390
                                            0.0033  0.0002 -0.0000 -0.0000  0.0105
                                           -0.0008  0.0006 -0.0002 -0.0000 -0.0000
                                           -0.0000 -0.0000 -0.0084 -0.0008  0.0007
                                           -0.0011
                ( 56.79%)  -0.7536*Cl   2 s(  9.57%)p 9.32( 89.24%)d 0.11(  1.06%)
                                                  f 0.01(  0.12%)
                                            0.0000 -0.0007 -0.3027  0.0631  0.0112
                                            0.0022  0.0004  0.9422 -0.0665 -0.0131
                                            0.0027 -0.0000  0.0090  0.0042 -0.0028
                                            0.0019 -0.0000 -0.0000 -0.0000 -0.0000
                                           -0.0000 -0.0074  0.0013  0.0007 -0.0000
                                           -0.0000 -0.0000 -0.0000 -0.0000 -0.0000
                                           -0.0859  0.0131  0.0020  0.0542 -0.0083
                                           -0.0022 -0.0000 -0.0000 -0.0218  0.0028
                                           -0.0003  0.0001 -0.0000 -0.0000 -0.0000
                                           -0.0000  0.0268 -0.0029  0.0010 -0.0006
   174. (0.28163) BD*( 1)Br   3 - H   4  
                ( 20.68%)   0.4547*Br   3 s( 13.26%)p 6.52( 86.48%)d 0.02(  0.24%)
                                                  f 0.00(  0.02%)
                                           -0.0004 -0.3641  0.0025  0.0039 -0.0006
                                           -0.0005 -0.0001 -0.2173  0.0029  0.0011
                                           -0.0007 -0.0006 -0.9040  0.0156  0.0065
                                           -0.0029 -0.0000 -0.0000 -0.0000 -0.0000
                                           -0.0000 -0.0000 -0.0188  0.0024 -0.0005
                                           -0.0000 -0.0000 -0.0000 -0.0000 -0.0000
                                           -0.0000 -0.0000 -0.0000  0.0000  0.0372
                                           -0.0036  0.0005  0.0000  0.0250 -0.0028
                                            0.0009 -0.0000 -0.0000  0.0021 -0.0001
                                            0.0084 -0.0000 -0.0000 -0.0000 -0.0000
                                           -0.0000  0.0072 -0.0001  0.0081  0.0005
                ( 79.32%)  -0.8906* H   4 s( 99.77%)p 0.00(  0.20%)d 0.00(  0.03%)
                                           -0.9986 -0.0076 -0.0206 -0.0003  0.0072
                                            0.0033  0.0045  0.0329  0.0275  0.0060
                                           -0.0000 -0.0000 -0.0000  0.0000 -0.0077
                                           -0.0000 -0.0000 -0.0000 -0.0000  0.0008
                                            0.0132  0.0013  0.0097


 NHO Directionality and "Bond Bending" (deviations from line of nuclear centers)

         [Thresholds for printing:  angular deviation  >  1.0 degree]
                                    hybrid p-character > 25.0%
                                    orbital occupancy  >  0.10e

                                Line of Centers        Hybrid 1              Hybrid 2
                                ---------------  -------------------   ------------------
                NBO               Theta   Phi    Theta   Phi    Dev    Theta   Phi    Dev
 ========================================================================================
    18. LP (   1) O   1             --     --     90.0  118.9   --       --     --    --
    19. LP (   2) O   1             --     --      0.0    0.0   --       --     --    --
    20. LP (   3) O   1             --     --     90.0  263.5   --       --     --    --
    22. LP (   2)Cl   2             --     --      0.0    0.0   --       --     --    --
    23. LP (   3)Cl   2             --     --     90.0   90.1   --       --     --    --
    25. LP (   2)Br   3             --     --      0.0    0.0   --       --     --    --
    26. LP (   3)Br   3             --     --     90.0  346.3   --       --     --    --


 Natural Bond Orbitals (Summary):

           NBO                  Occupancy  
 -----------------------------------------------
 Molecular unit  1  (OCl)
     1. BD (   1) O   1 -Cl   2          1.93489
     3. CR (   1) O   1                  1.99984
     4. CR (   1)Cl   2                  2.00000
     5. CR (   2)Cl   2                  1.99975
     6. CR (   3)Cl   2                  1.99995
     7. CR (   4)Cl   2                  2.00003
     8. CR (   5)Cl   2                  2.00003
    18. LP (   1) O   1                  1.96683
    19. LP (   2) O   1                  1.94753
    20. LP (   3) O   1                  1.70618
    21. LP (   1)Cl   2                  1.97399
    22. LP (   2)Cl   2                  1.95486
    23. LP (   3)Cl   2                  1.95324
    27. RY*(   1) O   1                  0.02285
    28. RY*(   2) O   1                  0.01857
    29. RY*(   3) O   1                  0.00891
    30. RY*(   4) O   1                  0.00692
    31. RY*(   5) O   1                  0.00679
    32. RY*(   6) O   1                  0.00634
    33. RY*(   7) O   1                  0.00575
    34. RY*(   8) O   1                  0.00505
    35. RY*(   9) O   1                  0.00223
    36. RY*(  10) O   1                  0.00071
    37. RY*(  11) O   1                  0.00069
    38. RY*(  12) O   1                  0.00069
    39. RY*(  13) O   1                  0.00061
    40. RY*(  14) O   1                  0.00057
    41. RY*(  15) O   1                  0.00054
    42. RY*(  16) O   1                  0.00050
    43. RY*(  17) O   1                  0.00051
    44. RY*(  18) O   1                  0.00049
    45. RY*(  19) O   1                  0.00047
    46. RY*(  20) O   1                  0.00048
    47. RY*(  21) O   1                  0.00046
    48. RY*(  22) O   1                  0.00047
    49. RY*(  23) O   1                  0.00042
    50. RY*(  24) O   1                  0.00037
    51. RY*(  25) O   1                  0.00029
    52. RY*(  26) O   1                  0.00015
    53. RY*(  27) O   1                  0.00012
    54. RY*(  28) O   1                  0.00013
    55. RY*(  29) O   1                  0.00010
    56. RY*(  30) O   1                  0.00009
    57. RY*(  31) O   1                  0.00009
    58. RY*(  32) O   1                  0.00009
    59. RY*(  33) O   1                  0.00009
    60. RY*(  34) O   1                  0.00009
    61. RY*(  35) O   1                  0.00008
    62. RY*(  36) O   1                  0.00009
    63. RY*(  37) O   1                  0.00007
    64. RY*(  38) O   1                  0.00006
    65. RY*(  39) O   1                  0.00004
    66. RY*(  40) O   1                  0.00001
    67. RY*(  41) O   1                 -0.00022
    68. RY*(   1)Cl   2                  0.02532
    69. RY*(   2)Cl   2                  0.02160
    70. RY*(   3)Cl   2                  0.01706
    71. RY*(   4)Cl   2                  0.01704
    72. RY*(   5)Cl   2                  0.01289
    73. RY*(   6)Cl   2                  0.01000
    74. RY*(   7)Cl   2                  0.00970
    75. RY*(   8)Cl   2                  0.00689
    76. RY*(   9)Cl   2                  0.00193
    77. RY*(  10)Cl   2                  0.00127
    78. RY*(  11)Cl   2                  0.00127
    79. RY*(  12)Cl   2                  0.00122
    80. RY*(  13)Cl   2                  0.00123
    81. RY*(  14)Cl   2                  0.00119
    82. RY*(  15)Cl   2                  0.00115
    83. RY*(  16)Cl   2                  0.00101
    84. RY*(  17)Cl   2                  0.00081
    85. RY*(  18)Cl   2                  0.00079
    86. RY*(  19)Cl   2                  0.00072
    87. RY*(  20)Cl   2                  0.00067
    88. RY*(  21)Cl   2                  0.00048
    89. RY*(  22)Cl   2                  0.00038
    90. RY*(  23)Cl   2                  0.00037
    91. RY*(  24)Cl   2                  0.00034
    92. RY*(  25)Cl   2                  0.00019
    93. RY*(  26)Cl   2                  0.00017
    94. RY*(  27)Cl   2                  0.00017
    95. RY*(  28)Cl   2                  0.00015
    96. RY*(  29)Cl   2                  0.00013
    97. RY*(  30)Cl   2                  0.00013
    98. RY*(  31)Cl   2                  0.00013
    99. RY*(  32)Cl   2                  0.00012
   100. RY*(  33)Cl   2                  0.00010
   101. RY*(  34)Cl   2                  0.00011
   102. RY*(  35)Cl   2                  0.00009
   103. RY*(  36)Cl   2                  0.00010
   104. RY*(  37)Cl   2                  0.00008
   105. RY*(  38)Cl   2                  0.00005
   106. RY*(  39)Cl   2                  0.00003
   107. RY*(  40)Cl   2                  0.00003
   108. RY*(  41)Cl   2                  0.00001
   173. BD*(   1) O   1 -Cl   2          0.05642
       -------------------------------
              Total Lewis   25.43711  ( 98.8870%)
        Valence non-Lewis    0.05642  (  0.2193%)
        Rydberg non-Lewis    0.22988  (  0.8937%)
       -------------------------------
            Total unit  1   25.72341  (100.0000%)
           Charge unit  1   -0.72341

 Molecular unit  2  (HBr)
     2. BD (   1)Br   3 - H   4          1.95355
     9. CR (   1)Br   3                  1.99944
    10. CR (   2)Br   3                  1.99994
    11. CR (   3)Br   3                  1.99980
    12. CR (   4)Br   3                  1.99995
    13. CR (   5)Br   3                  1.99764
    14. CR (   6)Br   3                  1.99771
    15. CR (   7)Br   3                  1.99767
    16. CR (   8)Br   3                  1.99756
    17. CR (   9)Br   3                  1.99765
    24. LP (   1)Br   3                  1.97551
    25. LP (   2)Br   3                  1.95507
    26. LP (   3)Br   3                  1.95475
   109. RY*(   1)Br   3                  0.01796
   110. RY*(   2)Br   3                  0.01796
   111. RY*(   3)Br   3                  0.01768
   112. RY*(   4)Br   3                  0.01755
   113. RY*(   5)Br   3                  0.01658
   114. RY*(   6)Br   3                  0.01003
   115. RY*(   7)Br   3                  0.00998
   116. RY*(   8)Br   3                  0.00778
   117. RY*(   9)Br   3                  0.00171
   118. RY*(  10)Br   3                  0.00171
   119. RY*(  11)Br   3                  0.00168
   120. RY*(  12)Br   3                  0.00169
   121. RY*(  13)Br   3                  0.00164
   122. RY*(  14)Br   3                  0.00165
   123. RY*(  15)Br   3                  0.00164
   124. RY*(  16)Br   3                  0.00165
   125. RY*(  17)Br   3                  0.00161
   126. RY*(  18)Br   3                  0.00150
   127. RY*(  19)Br   3                  0.00120
   128. RY*(  20)Br   3                  0.00120
   129. RY*(  21)Br   3                  0.00114
   130. RY*(  22)Br   3                  0.00071
   131. RY*(  23)Br   3                  0.00071
   132. RY*(  24)Br   3                  0.00057
   133. RY*(  25)Br   3                  0.00045
   134. RY*(  26)Br   3                  0.00028
   135. RY*(  27)Br   3                  0.00025
   136. RY*(  28)Br   3                  0.00022
   137. RY*(  29)Br   3                  0.00023
   138. RY*(  30)Br   3                  0.00023
   139. RY*(  31)Br   3                  0.00022
   140. RY*(  32)Br   3                  0.00021
   141. RY*(  33)Br   3                  0.00019
   142. RY*(  34)Br   3                  0.00017
   143. RY*(  35)Br   3                  0.00013
   144. RY*(  36)Br   3                  0.00012
   145. RY*(  37)Br   3                  0.00012
   146. RY*(  38)Br   3                  0.00010
   147. RY*(  39)Br   3                  0.00008
   148. RY*(  40)Br   3                  0.00008
   149. RY*(  41)Br   3                  0.00005
   150. RY*(  42)Br   3                  0.00000
   151. RY*(   1) H   4                  0.00628
   152. RY*(   2) H   4                  0.00576
   153. RY*(   3) H   4                  0.00543
   154. RY*(   4) H   4                  0.00433
   155. RY*(   5) H   4                  0.00293
   156. RY*(   6) H   4                  0.00076
   157. RY*(   7) H   4                  0.00035
   158. RY*(   8) H   4                  0.00031
   159. RY*(   9) H   4                  0.00030
   160. RY*(  10) H   4                  0.00030
   161. RY*(  11) H   4                  0.00022
   162. RY*(  12) H   4                  0.00023
   163. RY*(  13) H   4                  0.00021
   164. RY*(  14) H   4                  0.00016
   165. RY*(  15) H   4                  0.00010
   166. RY*(  16) H   4                  0.00009
   167. RY*(  17) H   4                  0.00007
   168. RY*(  18) H   4                  0.00007
   169. RY*(  19) H   4                  0.00005
   170. RY*(  20) H   4                  0.00004
   171. RY*(  21) H   4                  0.00003
   172. RY*(  22) H   4                  0.00003
   174. BD*(   1)Br   3 - H   4          0.28163
       -------------------------------
              Total Lewis   35.82622  ( 98.7585%)
        Valence non-Lewis    0.28163  (  0.7763%)
        Rydberg non-Lewis    0.16874  (  0.4652%)
       -------------------------------
            Total unit  2   36.27659  (100.0000%)
           Charge unit  2   -0.27659
 Leave Link  607 at Tue Oct 19 14:36:54 2021, MaxMem= 16106127360 cpu:              78.6 elap:               2.8
 (Enter /sw/contrib/gaussian/g16/B01/g16/l9999.exe)
 1\1\GINC-N2207\SP\RMP2-FC\Gen\Br1Cl1H1O1(1-)\CGAVINH\19-Oct-2021\0\\#p
  pop=NBO SP NoSymm mp2/gen Pseudo=read density=current\\title\\-1,1\O\
 X,1,10.\Cl,1,1.68446532,2,90.\Br,1,3.06793175,2,90.,3,103.45029768,0\H
 ,1,1.35,2,90.,3,103.45029768,0\\Version=ES64L-G16RevB.01\HF=-950.48620
 33\MP2=-951.204533\RMSD=1.903e-09\Dipole=0.5357996,0.0684832,0.\Quadru
 pole=4.3393545,-11.1141327,6.7747783,-4.539526,0.,0.\PG=CS [SG(Br1Cl1H
 1O1)]\\@


 DEMOCRATS BUY MOST OF THE BOOKS THAT HAVE BEEN
 BANNED; REPUBLICANS FORM CENSORSHIP COMMITTEES AND
 READ THEM AS A GROUP.
 Job cpu time:       0 days  0 hours  5 minutes 55.1 seconds.
 Elapsed time:       0 days  0 hours  0 minutes 18.7 seconds.
 File lengths (MBytes):  RWF=     15 Int=      0 D2E=      0 Chk=      8 Scr=      1
 Normal termination of Gaussian 16 at Tue Oct 19 14:36:55 2021.
