 Entering Gaussian System, Link 0=g09
 Input=ihod_rOH_080_sp.gjf
 Output=ihod_rOH_080_sp.log
 Initial command:
 /usr/local/gaussian/g09/l1.exe "/scratch/Gau-502.inp" -scrdir="/scratch/"
 Entering Link 1 = /usr/local/gaussian/g09/l1.exe PID=       503.
  
 Copyright (c) 1988,1990,1992,1993,1995,1998,2003,2009,2015,
            Gaussian, Inc.  All Rights Reserved.
  
 This is part of the Gaussian(R) 09 program.  It is based on
 the Gaussian(R) 03 system (copyright 2003, Gaussian, Inc.),
 the Gaussian(R) 98 system (copyright 1998, Gaussian, Inc.),
 the Gaussian(R) 94 system (copyright 1995, Gaussian, Inc.),
 the Gaussian 92(TM) system (copyright 1992, Gaussian, Inc.),
 the Gaussian 90(TM) system (copyright 1990, Gaussian, Inc.),
 the Gaussian 88(TM) system (copyright 1988, Gaussian, Inc.),
 the Gaussian 86(TM) system (copyright 1986, Carnegie Mellon
 University), and the Gaussian 82(TM) system (copyright 1983,
 Carnegie Mellon University). Gaussian is a federally registered
 trademark of Gaussian, Inc.
  
 This software contains proprietary and confidential information,
 including trade secrets, belonging to Gaussian, Inc.
  
 This software is provided under written license and may be
 used, copied, transmitted, or stored only in accord with that
 written license.
  
 The following legend is applicable only to US Government
 contracts under FAR:
  
                    RESTRICTED RIGHTS LEGEND
  
 Use, reproduction and disclosure by the US Government is
 subject to restrictions as set forth in subparagraphs (a)
 and (c) of the Commercial Computer Software - Restricted
 Rights clause in FAR 52.227-19.
  
 Gaussian, Inc.
 340 Quinnipiac St., Bldg. 40, Wallingford CT 06492
  
  
 ---------------------------------------------------------------
 Warning -- This program may not be used in any manner that
 competes with the business of Gaussian, Inc. or will provide
 assistance to any competitor of Gaussian, Inc.  The licensee
 of this program is prohibited from giving any competitor of
 Gaussian, Inc. access to this program.  By using this program,
 the user acknowledges that Gaussian, Inc. is engaged in the
 business of creating and licensing software in the field of
 computational chemistry and represents and warrants to the
 licensee that it is not a competitor of Gaussian, Inc. and that
 it will not use this program in any manner prohibited above.
 ---------------------------------------------------------------
  

 Cite this work as:
 Gaussian 09, Revision E.01,
 M. J. Frisch, G. W. Trucks, H. B. Schlegel, G. E. Scuseria, 
 M. A. Robb, J. R. Cheeseman, G. Scalmani, V. Barone, B. Mennucci, 
 G. A. Petersson, H. Nakatsuji, M. Caricato, X. Li, H. P. Hratchian, 
 A. F. Izmaylov, J. Bloino, G. Zheng, J. L. Sonnenberg, M. Hada, 
 M. Ehara, K. Toyota, R. Fukuda, J. Hasegawa, M. Ishida, T. Nakajima, 
 Y. Honda, O. Kitao, H. Nakai, T. Vreven, J. A. Montgomery, Jr., 
 J. E. Peralta, F. Ogliaro, M. Bearpark, J. J. Heyd, E. Brothers, 
 K. N. Kudin, V. N. Staroverov, T. Keith, R. Kobayashi, J. Normand, 
 K. Raghavachari, A. Rendell, J. C. Burant, S. S. Iyengar, J. Tomasi, 
 M. Cossi, N. Rega, J. M. Millam, M. Klene, J. E. Knox, J. B. Cross, 
 V. Bakken, C. Adamo, J. Jaramillo, R. Gomperts, R. E. Stratmann, 
 O. Yazyev, A. J. Austin, R. Cammi, C. Pomelli, J. W. Ochterski, 
 R. L. Martin, K. Morokuma, V. G. Zakrzewski, G. A. Voth, 
 P. Salvador, J. J. Dannenberg, S. Dapprich, A. D. Daniels, 
 O. Farkas, J. B. Foresman, J. V. Ortiz, J. Cioslowski, 
 and D. J. Fox, Gaussian, Inc., Wallingford CT, 2013.
 
 ******************************************
 Gaussian 09:  ES64L-G09RevE.01 30-Nov-2015
                12-Oct-2021 
 ******************************************
 %nproc=12
 Will use up to   12 processors via shared memory.
 %mem=8000MB
 %chk=/home/netid.washington.edu/cgavinh/mccoy_hocl/rOH_s_oop_0/ihod/ihod_rOH_080
 _sp.chk
 --------------------------------------------------------
 #p pop=NBO SP NoSymm mp2/gen Pseudo=read density=current
 --------------------------------------------------------
 1/30=1,38=1/1;
 2/12=2,15=1,17=6,18=5,40=1/2;
 3/5=7,11=9,16=1,17=8,25=1,30=1,71=1/1,2,3;
 4//1;
 5/5=2,38=5/2;
 8/6=4,10=1/1;
 9/15=1,16=-3/6;
 10/5=1,13=10,31=1/2;
 6/7=2,8=2,9=2,10=2,22=-1,40=1/1,7;
 99/5=1,9=1/99;
 Leave Link    1 at Tue Oct 12 16:21:11 2021, MaxMem=  1048576000 cpu:         0.2
 (Enter /usr/local/gaussian/g09/l101.exe)
 -----
 title
 -----
 Symbolic Z-matrix:
 Charge = -1 Multiplicity = 1
 O
 X                    1     10. 
 H(iso=2)             1    r1       2     90. 
 I                    1    r2       2     90.      3    a1       0
 H                    1    r3       2    oop      3    a1       0
       Variables:
  r1                    0.96091                  
  r2                    3.5085                   
  r3                    0.8                      
  a1                  101.85831                  
  OOP                  90.                       
 
 NAtoms=      4 NQM=        4 NQMF=       0 NMMI=      0 NMMIF=      0
                NMic=       0 NMicF=      0.
                    Isotopes and Nuclear Properties:
 (Nuclear quadrupole moments (NQMom) in fm**2, nuclear magnetic moments (NMagM)
  in nuclear magnetons)

  Atom         1           2           3           4
 IAtWgt=          16           2         127           1
 AtmWgt=  15.9949146   2.0141018 126.9004000   1.0078250
 NucSpn=           0           2           5           1
 AtZEff=   0.0000000   0.0000000   0.0000000   0.0000000
 NQMom=    0.0000000   0.2860000 -71.0000000   0.0000000
 NMagM=    0.0000000   0.8574380   2.8132800   2.7928460
 AtZNuc=   8.0000000   1.0000000  53.0000000   1.0000000
 Leave Link  101 at Tue Oct 12 16:21:11 2021, MaxMem=  1048576000 cpu:         0.4
 (Enter /usr/local/gaussian/g09/l202.exe)
                          Input orientation:                          
 ---------------------------------------------------------------------
 Center     Atomic      Atomic             Coordinates (Angstroms)
 Number     Number       Type             X           Y           Z
 ---------------------------------------------------------------------
      1          8           0        0.000000    0.000000    0.000000
      2          1           0        0.960908    0.000000    0.000000
      3         53           0       -0.720970   -3.433628    0.000000
      4          1           0       -0.164394   -0.782927    0.000000
 ---------------------------------------------------------------------
                    Distance matrix (angstroms):
                    1          2          3          4
     1  O    0.000000
     2  H    0.960908   0.000000
     3  I    3.508504   3.823416   0.000000
     4  H    0.800000   1.370868   2.708504   0.000000
 Symmetry turned off by external request.
 Stoichiometry    H2IO(1-)
 Framework group  CS[SG(H2IO)]
 Deg. of freedom     5
 Full point group                 CS      NOp   2
 Rotational constants (GHZ):    322.4759954      2.5018735      2.4826126
 Leave Link  202 at Tue Oct 12 16:21:11 2021, MaxMem=  1048576000 cpu:         0.0
 (Enter /usr/local/gaussian/g09/l301.exe)
 General basis read from cards:  (5D, 7F)
 Centers:       2      4      1      2      4
 aug-cc-pVTZ
 ****
 Centers:       3
 S 11 1.00
     Exponent=  5.5465000000D+03 Coefficients=  1.5600000000D-04
     Exponent=  8.3821400000D+02 Coefficients=  9.8600000000D-04
     Exponent=  1.8218700000D+02 Coefficients=  2.7920000000D-03
     Exponent=  3.1212300000D+01 Coefficients= -4.3251000000D-02
     Exponent=  1.9531400000D+01 Coefficients=  2.3413400000D-01
     Exponent=  8.2409900000D+00 Coefficients= -7.5094300000D-01
     Exponent=  2.1945500000D+00 Coefficients=  8.8296800000D-01
     Exponent=  1.1091100000D+00 Coefficients=  4.6206100000D-01
     Exponent=  3.7464100000D-01 Coefficients=  2.2286000000D-02
     Exponent=  1.7708000000D-01 Coefficients= -4.3530000000D-03
     Exponent=  8.1061000000D-02 Coefficients=  1.1020000000D-03
 S 11 1.00
     Exponent=  5.5465000000D+03 Coefficients= -7.3000000000D-05
     Exponent=  8.3821400000D+02 Coefficients= -5.0800000000D-04
     Exponent=  1.8218700000D+02 Coefficients= -1.1580000000D-03
     Exponent=  3.1212300000D+01 Coefficients=  1.2193000000D-02
     Exponent=  1.9531400000D+01 Coefficients= -8.7854000000D-02
     Exponent=  8.2409900000D+00 Coefficients=  3.3820000000D-01
     Exponent=  2.1945500000D+00 Coefficients= -5.7655000000D-01
     Exponent=  1.1091100000D+00 Coefficients= -4.0929800000D-01
     Exponent=  3.7464100000D-01 Coefficients=  5.6745900000D-01
     Exponent=  1.7708000000D-01 Coefficients=  6.1248900000D-01
     Exponent=  8.1061000000D-02 Coefficients=  1.4323100000D-01
 S 1 1.00
     Exponent=  3.7464100000D-01 Coefficients=  1.0000000000D+00
 S 1 1.00
     Exponent=  1.7708000000D-01 Coefficients=  1.0000000000D+00
 S 1 1.00
     Exponent=  1.0010000000D-01 Coefficients=  1.0000000000D+00
 S 1 1.00
     Exponent=  4.1200000000D-02 Coefficients=  1.0000000000D+00
 P 9 1.00
     Exponent=  1.8898800000D+02 Coefficients=  5.8500000000D-04
     Exponent=  2.1286800000D+01 Coefficients=  3.6923000000D-02
     Exponent=  1.0039600000D+01 Coefficients= -2.3532400000D-01
     Exponent=  3.4518000000D+00 Coefficients=  3.4148300000D-01
     Exponent=  1.9745600000D+00 Coefficients=  5.3478800000D-01
     Exponent=  1.0242000000D+00 Coefficients=  2.6514100000D-01
     Exponent=  4.4943700000D-01 Coefficients=  2.5787000000D-02
     Exponent=  1.8664800000D-01 Coefficients=  5.2200000000D-04
     Exponent=  7.3481000000D-02 Coefficients=  6.0600000000D-04
 P 9 1.00
     Exponent=  1.8898800000D+02 Coefficients= -2.5600000000D-04
     Exponent=  2.1286800000D+01 Coefficients= -1.1682000000D-02
     Exponent=  1.0039600000D+01 Coefficients=  8.3192000000D-02
     Exponent=  3.4518000000D+00 Coefficients= -1.5697000000D-01
     Exponent=  1.9745600000D+00 Coefficients= -2.2451800000D-01
     Exponent=  1.0242000000D+00 Coefficients= -1.1445100000D-01
     Exponent=  4.4943700000D-01 Coefficients=  3.7535600000D-01
     Exponent=  1.8664800000D-01 Coefficients=  5.7513600000D-01
     Exponent=  7.3481000000D-02 Coefficients=  2.4591700000D-01
 P 1 1.00
     Exponent=  5.9810000000D-01 Coefficients=  1.0000000000D+00
 P 1 1.00
     Exponent=  9.6180000000D-02 Coefficients=  1.0000000000D+00
 P 1 1.00
     Exponent=  3.5900000000D-02 Coefficients=  1.0000000000D+00
 D 9 1.00
     Exponent=  1.3266200000D+02 Coefficients=  5.7200000000D-04
     Exponent=  3.7605400000D+01 Coefficients=  4.4020000000D-03
     Exponent=  1.0389100000D+01 Coefficients= -4.0922000000D-02
     Exponent=  6.4901700000D+00 Coefficients=  9.9661000000D-02
     Exponent=  3.4545100000D+00 Coefficients=  3.2266300000D-01
     Exponent=  1.8441300000D+00 Coefficients=  4.0034300000D-01
     Exponent=  9.6247800000D-01 Coefficients=  2.6830600000D-01
     Exponent=  4.7285300000D-01 Coefficients=  8.4847000000D-02
     Exponent=  1.9320000000D-01 Coefficients=  7.6320000000D-03
 D 1 1.00
     Exponent=  4.7285300000D-01 Coefficients=  1.0000000000D+00
 D 1 1.00
     Exponent=  1.9320000000D-01 Coefficients=  1.0000000000D+00
 D 1 1.00
     Exponent=  7.8200000000D-02 Coefficients=  1.0000000000D+00
 F 1 1.00
     Exponent=  4.0640000000D-01 Coefficients=  1.0000000000D+00
 F 1 1.00
     Exponent=  1.8480000000D-01 Coefficients=  1.0000000000D+00
 ****
 ======================================================================================================
                                       Pseudopotential Parameters
 ======================================================================================================
  Center     Atomic      Valence      Angular      Power
  Number     Number     Electrons     Momentum     of R      Exponent        Coefficient   SO-Coeffient
 ======================================================================================================
    1          8
                                   No pseudopotential on this center.
    2          1
                                   No pseudopotential on this center.
    3         53           25
                                      G and up 
                                                     2        1.0000000        0.00000000    0.00000000
                                      S - G
                                                     2       40.0333760       49.98964900    0.00000000
                                                     2       17.3005760      281.00655600    0.00000000
                                                     2        8.8517200       61.41673900    0.00000000
                                      P - G
                                                     2       15.7201410       67.41623900    0.00000000
                                                     2       15.2082220      134.80769600    0.00000000
                                                     2        8.2941860       14.56654800    0.00000000
                                                     2        7.7539490       28.96842200    0.00000000
                                      D - G
                                                     2       13.8177510       35.53875600    0.00000000
                                                     2       13.5878050       53.33975900    0.00000000
                                                     2        6.9476300        9.71646600    0.00000000
                                                     2        6.9600990       14.97750000    0.00000000
                                      F - G
                                                     2       18.5229500      -20.17661800    0.00000000
                                                     2       18.2510350      -26.08807700    0.00000000
                                                     2        7.5579010       -0.22043400    0.00000000
                                                     2        7.5974040       -0.22164600    0.00000000
    4          1
                                   No pseudopotential on this center.
 ======================================================================================================
 Ernie: Thresh=  0.10000D-02 Tol=  0.10000D-05 Strict=F.
 Ernie:  16 primitive shells out of 135 were deleted.
   191 basis functions,   344 primitive gaussians,   218 cartesian basis functions
    18 alpha electrons       18 beta electrons
       nuclear repulsion energy        48.5933532159 Hartrees.
 IExCor=    0 DFT=F Ex=HF Corr=None ExCW=0 ScaHFX=  1.000000
 ScaDFX=  1.000000  1.000000  1.000000  1.000000 ScalE2=  1.000000  1.000000
 IRadAn=      0 IRanWt=     -1 IRanGd=            0 ICorTp=0 IEmpDi=  4
 NAtoms=    4 NActive=    4 NUniq=    4 SFac= 1.00D+00 NAtFMM=   60 NAOKFM=F Big=F
 Integral buffers will be    131072 words long.
 Raffenetti 1 integral format.
 Two-electron integral symmetry is turned off.
 Leave Link  301 at Tue Oct 12 16:21:11 2021, MaxMem=  1048576000 cpu:         0.6
 (Enter /usr/local/gaussian/g09/l302.exe)
 NPDir=0 NMtPBC=     1 NCelOv=     1 NCel=       1 NClECP=     1 NCelD=      1
         NCelK=      1 NCelE2=     1 NClLst=     1 CellRange=     0.0.
 One-electron integrals computed using PRISM.
   1 Symmetry operations used in ECPInt.
 ECPInt:  NShTT=    2145 NPrTT=    7341 LenC2=    2146 LenP2D=    6692.
 LDataN:  DoStor=T MaxTD1= 7 Len=  274
 GSVD:  received Info=                   1 from GESDD.
 NBasis=   191 RedAO= T EigKep=  2.93D-04  NBF=   191
 NBsUse=   147 1.00D-06 EigRej=  8.65D-16 NBFU=   147
 Leave Link  302 at Tue Oct 12 16:21:11 2021, MaxMem=  1048576000 cpu:         2.9
 (Enter /usr/local/gaussian/g09/l303.exe)
 DipDrv:  MaxL=1.
 Leave Link  303 at Tue Oct 12 16:21:12 2021, MaxMem=  1048576000 cpu:         0.2
 (Enter /usr/local/gaussian/g09/l401.exe)
 ExpMin= 2.53D-02 ExpMax= 1.53D+04 ExpMxC= 5.22D+02 IAcc=3 IRadAn=         5 AccDes= 0.00D+00
 Harris functional with IExCor=  205 and IRadAn=       5 diagonalized for initial guess.
 HarFok:  IExCor=  205 AccDes= 0.00D+00 IRadAn=         5 IDoV= 1 UseB2=F ITyADJ=14
 ICtDFT=  3500011 ScaDFX=  1.000000  1.000000  1.000000  1.000000
 Defaulting to unpruned grid for atomic number  53.
 Defaulting to unpruned grid for atomic number  53.
 Defaulting to unpruned grid for atomic number  53.
 Defaulting to unpruned grid for atomic number  53.
 Defaulting to unpruned grid for atomic number  53.
 Defaulting to unpruned grid for atomic number  53.
 Defaulting to unpruned grid for atomic number  53.
 Defaulting to unpruned grid for atomic number  53.
 Defaulting to unpruned grid for atomic number  53.
 Defaulting to unpruned grid for atomic number  53.
 Defaulting to unpruned grid for atomic number  53.
 Defaulting to unpruned grid for atomic number  53.
 FoFCou: FMM=F IPFlag=           0 FMFlag=      100000 FMFlg1=           0
         NFxFlg=           0 DoJE=T BraDBF=F KetDBF=T FulRan=T
         wScrn=  0.000000 ICntrl=     500 IOpCl=  0 I1Cent=   200000004 NGrid=           0
         NMat0=    1 NMatS0=      1 NMatT0=    0 NMatD0=    1 NMtDS0=    0 NMtDT0=    0
 Symmetry not used in FoFCou.
 Harris En= -372.655933471776    
 JPrj=0 DoOrth=F DoCkMO=F.
 Leave Link  401 at Tue Oct 12 16:21:12 2021, MaxMem=  1048576000 cpu:         2.7
 (Enter /usr/local/gaussian/g09/l502.exe)
 Closed shell SCF:
 Using DIIS extrapolation, IDIIS=  1040.
 Two-electron integral symmetry not used.
 Keep R1 ints in memory in canonical form, NReq=176646387.
 IVT=      165054 IEndB=      165054 NGot=  1048576000 MDV=   880297331
 LenX=   880297331 LenY=   880249366
 Requested convergence on RMS density matrix=1.00D-08 within 128 cycles.
 Requested convergence on MAX density matrix=1.00D-06.
 Requested convergence on             energy=1.00D-06.
 No special actions if energy rises.
 FoFCou: FMM=F IPFlag=           0 FMFlag=           0 FMFlg1=           0
         NFxFlg=           0 DoJE=F BraDBF=F KetDBF=F FulRan=T
         wScrn=  0.000000 ICntrl=     600 IOpCl=  0 I1Cent=           0 NGrid=           0
         NMat0=    1 NMatS0=  18336 NMatT0=    0 NMatD0=    1 NMtDS0=    0 NMtDT0=    0
 Symmetry not used in FoFCou.

 Cycle   1  Pass 1  IDiag  1:
 E= -370.602591269767    
 DIIS: error= 5.24D-02 at cycle   1 NSaved=   1.
 NSaved= 1 IEnMin= 1 EnMin= -370.602591269767     IErMin= 1 ErrMin= 5.24D-02
 ErrMax= 5.24D-02  0.00D+00 EMaxC= 1.00D-01 BMatC= 4.06D-01 BMatP= 4.06D-01
 IDIUse=3 WtCom= 4.76D-01 WtEn= 5.24D-01
 Coeff-Com:  0.100D+01
 Coeff-En:   0.100D+01
 Coeff:      0.100D+01
 Gap=     0.378 Goal=   None    Shift=    0.000
 GapD=    0.378 DampG=1.000 DampE=0.500 DampFc=0.5000 IDamp=-1.
 Damping current iteration by 5.00D-01
 RMSDP=3.46D-03 MaxDP=1.00D-01              OVMax= 1.40D-01

 Cycle   2  Pass 1  IDiag  1:
 E= -370.697896526294     Delta-E=       -0.095305256527 Rises=F Damp=T
 DIIS: error= 1.48D-02 at cycle   2 NSaved=   2.
 NSaved= 2 IEnMin= 2 EnMin= -370.697896526294     IErMin= 2 ErrMin= 1.48D-02
 ErrMax= 1.48D-02  0.00D+00 EMaxC= 1.00D-01 BMatC= 6.03D-02 BMatP= 4.06D-01
 IDIUse=3 WtCom= 8.52D-01 WtEn= 1.48D-01
 Coeff-Com: -0.449D+00 0.145D+01
 Coeff-En:   0.000D+00 0.100D+01
 Coeff:     -0.383D+00 0.138D+01
 Gap=     0.254 Goal=   None    Shift=    0.000
 RMSDP=1.56D-03 MaxDP=7.86D-02 DE=-9.53D-02 OVMax= 6.52D-02

 Cycle   3  Pass 1  IDiag  1:
 E= -370.782442613037     Delta-E=       -0.084546086743 Rises=F Damp=F
 DIIS: error= 4.50D-03 at cycle   3 NSaved=   3.
 NSaved= 3 IEnMin= 3 EnMin= -370.782442613037     IErMin= 3 ErrMin= 4.50D-03
 ErrMax= 4.50D-03  0.00D+00 EMaxC= 1.00D-01 BMatC= 1.51D-03 BMatP= 6.03D-02
 IDIUse=3 WtCom= 9.55D-01 WtEn= 4.50D-02
 Coeff-Com: -0.106D+00 0.209D+00 0.897D+00
 Coeff-En:   0.000D+00 0.000D+00 0.100D+01
 Coeff:     -0.101D+00 0.200D+00 0.901D+00
 Gap=     0.265 Goal=   None    Shift=    0.000
 RMSDP=3.79D-04 MaxDP=1.67D-02 DE=-8.45D-02 OVMax= 8.52D-03

 Cycle   4  Pass 1  IDiag  1:
 E= -370.783468064993     Delta-E=       -0.001025451956 Rises=F Damp=F
 DIIS: error= 6.37D-04 at cycle   4 NSaved=   4.
 NSaved= 4 IEnMin= 4 EnMin= -370.783468064993     IErMin= 4 ErrMin= 6.37D-04
 ErrMax= 6.37D-04  0.00D+00 EMaxC= 1.00D-01 BMatC= 3.95D-05 BMatP= 1.51D-03
 IDIUse=3 WtCom= 9.94D-01 WtEn= 6.37D-03
 Coeff-Com:  0.640D-02-0.250D-01 0.585D-01 0.960D+00
 Coeff-En:   0.000D+00 0.000D+00 0.000D+00 0.100D+01
 Coeff:      0.636D-02-0.249D-01 0.581D-01 0.960D+00
 Gap=     0.268 Goal=   None    Shift=    0.000
 RMSDP=9.74D-05 MaxDP=5.48D-03 DE=-1.03D-03 OVMax= 2.62D-03

 Cycle   5  Pass 1  IDiag  1:
 E= -370.783514267971     Delta-E=       -0.000046202978 Rises=F Damp=F
 DIIS: error= 1.67D-04 at cycle   5 NSaved=   5.
 NSaved= 5 IEnMin= 5 EnMin= -370.783514267971     IErMin= 5 ErrMin= 1.67D-04
 ErrMax= 1.67D-04  0.00D+00 EMaxC= 1.00D-01 BMatC= 3.54D-06 BMatP= 3.95D-05
 IDIUse=3 WtCom= 9.98D-01 WtEn= 1.67D-03
 Coeff-Com:  0.736D-02-0.125D-01-0.623D-01 0.237D-01 0.104D+01
 Coeff-En:   0.000D+00 0.000D+00 0.000D+00 0.000D+00 0.100D+01
 Coeff:      0.735D-02-0.125D-01-0.622D-01 0.236D-01 0.104D+01
 Gap=     0.267 Goal=   None    Shift=    0.000
 RMSDP=3.93D-05 MaxDP=1.60D-03 DE=-4.62D-05 OVMax= 9.79D-04

 Cycle   6  Pass 1  IDiag  1:
 E= -370.783520961899     Delta-E=       -0.000006693928 Rises=F Damp=F
 DIIS: error= 4.91D-05 at cycle   6 NSaved=   6.
 NSaved= 6 IEnMin= 6 EnMin= -370.783520961899     IErMin= 6 ErrMin= 4.91D-05
 ErrMax= 4.91D-05  0.00D+00 EMaxC= 1.00D-01 BMatC= 2.81D-07 BMatP= 3.54D-06
 IDIUse=1 WtCom= 1.00D+00 WtEn= 0.00D+00
 Coeff-Com: -0.264D-02 0.545D-02 0.109D-01-0.982D-01-0.167D+00 0.125D+01
 Coeff:     -0.264D-02 0.545D-02 0.109D-01-0.982D-01-0.167D+00 0.125D+01
 Gap=     0.267 Goal=   None    Shift=    0.000
 RMSDP=1.01D-05 MaxDP=6.02D-04 DE=-6.69D-06 OVMax= 5.31D-04

 Cycle   7  Pass 1  IDiag  1:
 E= -370.783521736783     Delta-E=       -0.000000774884 Rises=F Damp=F
 DIIS: error= 1.03D-05 at cycle   7 NSaved=   7.
 NSaved= 7 IEnMin= 7 EnMin= -370.783521736783     IErMin= 7 ErrMin= 1.03D-05
 ErrMax= 1.03D-05  0.00D+00 EMaxC= 1.00D-01 BMatC= 8.91D-09 BMatP= 2.81D-07
 IDIUse=1 WtCom= 1.00D+00 WtEn= 0.00D+00
 Coeff-Com:  0.157D-03-0.428D-03 0.777D-03 0.182D-01-0.287D-01-0.211D+00
 Coeff-Com:  0.122D+01
 Coeff:      0.157D-03-0.428D-03 0.777D-03 0.182D-01-0.287D-01-0.211D+00
 Coeff:      0.122D+01
 Gap=     0.267 Goal=   None    Shift=    0.000
 RMSDP=2.16D-06 MaxDP=1.01D-04 DE=-7.75D-07 OVMax= 1.03D-04

 Cycle   8  Pass 1  IDiag  1:
 E= -370.783521766328     Delta-E=       -0.000000029544 Rises=F Damp=F
 DIIS: error= 2.36D-06 at cycle   8 NSaved=   8.
 NSaved= 8 IEnMin= 8 EnMin= -370.783521766328     IErMin= 8 ErrMin= 2.36D-06
 ErrMax= 2.36D-06  0.00D+00 EMaxC= 1.00D-01 BMatC= 3.58D-10 BMatP= 8.91D-09
 IDIUse=1 WtCom= 1.00D+00 WtEn= 0.00D+00
 Coeff-Com:  0.105D-03-0.209D-03-0.504D-03 0.330D-02 0.793D-02-0.397D-01
 Coeff-Com: -0.861D-01 0.112D+01
 Coeff:      0.105D-03-0.209D-03-0.504D-03 0.330D-02 0.793D-02-0.397D-01
 Coeff:     -0.861D-01 0.112D+01
 Gap=     0.267 Goal=   None    Shift=    0.000
 RMSDP=5.84D-07 MaxDP=3.42D-05 DE=-2.95D-08 OVMax= 1.60D-05

 Cycle   9  Pass 1  IDiag  1:
 E= -370.783521767283     Delta-E=       -0.000000000956 Rises=F Damp=F
 DIIS: error= 4.24D-07 at cycle   9 NSaved=   9.
 NSaved= 9 IEnMin= 9 EnMin= -370.783521767283     IErMin= 9 ErrMin= 4.24D-07
 ErrMax= 4.24D-07  0.00D+00 EMaxC= 1.00D-01 BMatC= 2.43D-11 BMatP= 3.58D-10
 IDIUse=1 WtCom= 1.00D+00 WtEn= 0.00D+00
 Coeff-Com: -0.246D-04 0.565D-04 0.562D-05-0.159D-02 0.112D-02 0.175D-01
 Coeff-Com: -0.550D-01-0.182D+00 0.122D+01
 Coeff:     -0.246D-04 0.565D-04 0.562D-05-0.159D-02 0.112D-02 0.175D-01
 Coeff:     -0.550D-01-0.182D+00 0.122D+01
 Gap=     0.267 Goal=   None    Shift=    0.000
 RMSDP=1.24D-07 MaxDP=7.38D-06 DE=-9.56D-10 OVMax= 3.90D-06

 Cycle  10  Pass 1  IDiag  1:
 E= -370.783521767348     Delta-E=       -0.000000000065 Rises=F Damp=F
 DIIS: error= 7.78D-08 at cycle  10 NSaved=  10.
 NSaved=10 IEnMin=10 EnMin= -370.783521767348     IErMin=10 ErrMin= 7.78D-08
 ErrMax= 7.78D-08  0.00D+00 EMaxC= 1.00D-01 BMatC= 1.50D-12 BMatP= 2.43D-11
 IDIUse=1 WtCom= 1.00D+00 WtEn= 0.00D+00
 Coeff-Com: -0.835D-05 0.167D-04 0.319D-04-0.316D-03-0.432D-03 0.379D-02
 Coeff-Com:  0.998D-03-0.780D-01 0.982D-01 0.976D+00
 Coeff:     -0.835D-05 0.167D-04 0.319D-04-0.316D-03-0.432D-03 0.379D-02
 Coeff:      0.998D-03-0.780D-01 0.982D-01 0.976D+00
 Gap=     0.267 Goal=   None    Shift=    0.000
 RMSDP=1.86D-08 MaxDP=7.80D-07 DE=-6.50D-11 OVMax= 7.29D-07

 Cycle  11  Pass 1  IDiag  1:
 E= -370.783521767351     Delta-E=       -0.000000000003 Rises=F Damp=F
 DIIS: error= 1.85D-08 at cycle  11 NSaved=  11.
 NSaved=11 IEnMin=11 EnMin= -370.783521767351     IErMin=11 ErrMin= 1.85D-08
 ErrMax= 1.85D-08  0.00D+00 EMaxC= 1.00D-01 BMatC= 9.28D-14 BMatP= 1.50D-12
 IDIUse=1 WtCom= 1.00D+00 WtEn= 0.00D+00
 Coeff-Com:  0.241D-05-0.548D-05-0.116D-05 0.145D-03-0.948D-04-0.150D-02
 Coeff-Com:  0.377D-02 0.197D-01-0.105D+00-0.683D-01 0.115D+01
 Coeff:      0.241D-05-0.548D-05-0.116D-05 0.145D-03-0.948D-04-0.150D-02
 Coeff:      0.377D-02 0.197D-01-0.105D+00-0.683D-01 0.115D+01
 Gap=     0.267 Goal=   None    Shift=    0.000
 RMSDP=1.33D-08 MaxDP=9.22D-07 DE=-2.50D-12 OVMax= 3.41D-07

 Cycle  12  Pass 1  IDiag  1:
 E= -370.783521767352     Delta-E=       -0.000000000001 Rises=F Damp=F
 DIIS: error= 4.58D-09 at cycle  12 NSaved=  12.
 NSaved=12 IEnMin=12 EnMin= -370.783521767352     IErMin=12 ErrMin= 4.58D-09
 ErrMax= 4.58D-09  0.00D+00 EMaxC= 1.00D-01 BMatC= 2.38D-15 BMatP= 9.28D-14
 IDIUse=1 WtCom= 1.00D+00 WtEn= 0.00D+00
 Coeff-Com: -0.335D-06 0.853D-06-0.555D-06-0.264D-04 0.399D-04 0.239D-03
 Coeff-Com: -0.869D-03-0.249D-02 0.231D-01-0.153D-01-0.263D+00 0.126D+01
 Coeff:     -0.335D-06 0.853D-06-0.555D-06-0.264D-04 0.399D-04 0.239D-03
 Coeff:     -0.869D-03-0.249D-02 0.231D-01-0.153D-01-0.263D+00 0.126D+01
 Gap=     0.267 Goal=   None    Shift=    0.000
 RMSDP=2.97D-09 MaxDP=2.10D-07 DE=-1.42D-12 OVMax= 7.02D-08

 SCF Done:  E(RHF) =  -370.783521767     A.U. after   12 cycles
            NFock= 12  Conv=0.30D-08     -V/T= 2.9797
 KE= 1.872927485492D+02 PE=-9.110387581361D+02 EE= 3.043691346037D+02
 Leave Link  502 at Tue Oct 12 16:21:16 2021, MaxMem=  1048576000 cpu:        19.4
 (Enter /usr/local/gaussian/g09/l801.exe)
 ExpMin= 2.53D-02 ExpMax= 1.53D+04 ExpMxC= 5.22D+02 IAcc=3 IRadAn=         5 AccDes= 0.00D+00
 HarFok:  IExCor=  205 AccDes= 0.00D+00 IRadAn=         5 IDoV=-2 UseB2=F ITyADJ=14
 ICtDFT= 12500011 ScaDFX=  1.000000  1.000000  1.000000  1.000000
 Defaulting to unpruned grid for atomic number  53.
 Defaulting to unpruned grid for atomic number  53.
 Defaulting to unpruned grid for atomic number  53.
 Defaulting to unpruned grid for atomic number  53.
 Defaulting to unpruned grid for atomic number  53.
 Defaulting to unpruned grid for atomic number  53.
 Defaulting to unpruned grid for atomic number  53.
 Defaulting to unpruned grid for atomic number  53.
 Defaulting to unpruned grid for atomic number  53.
 Defaulting to unpruned grid for atomic number  53.
 Defaulting to unpruned grid for atomic number  53.
 Defaulting to unpruned grid for atomic number  53.
 Largest valence mixing into a core orbital is  1.30D-04
 Largest core mixing into a valence orbital is  1.81D-05
 Range of M.O.s used for correlation:     6   147
 NBasis=   191 NAE=    18 NBE=    18 NFC=     5 NFV=     0
 NROrb=    142 NOA=    13 NOB=    13 NVA=   129 NVB=   129

 **** Warning!!: The largest alpha MO coefficient is  0.12925314D+02

 Leave Link  801 at Tue Oct 12 16:21:16 2021, MaxMem=  1048576000 cpu:         0.8
 (Enter /usr/local/gaussian/g09/l906.exe)
 Frozen-core derivative calculation, NFC=   5 NFV=   0.
 FulOut=F Deriv=T AODrv=F NAtomX=     4
   MMem=         196  MDisk=          13 MDiskD=          13
  W3Min=      576828 MinDsk=     1313419 NBas6D=         218
 NBas2D=       24339    NTT=       23871    LW2=    26219120
    MDV=  1048237158 MDiskM=       23996 NBas2p=       24339
 Fully in-core method, ICMem=   672878533.
 IMap=   1   2   3   4   5   6   7   8   9  10  11  12  13  14  15  16  17  18
 JobTyp=1 Pass  1 fully in-core, NPsUse= 12.
 Compute canonical integrals.
 FoFCou: FMM=F IPFlag=           0 FMFlag=           0 FMFlg1=           0
         NFxFlg=           0 DoJE=F BraDBF=F KetDBF=F FulRan=T
         wScrn=  0.000000 ICntrl=     600 IOpCl=  1 I1Cent=           0 NGrid=           0
         NMat0=    1 NMatS0=  24339 NMatT0=    0 NMatD0=    1 NMtDS0=    0 NMtDT0=    0
 Symmetry not used in FoFCou.
 Spin components of T(2) and E(2):
     alpha-alpha T2 =       0.2071206257D-01 E2=     -0.6606034151D-01
     alpha-beta  T2 =       0.1085633128D+00 E2=     -0.3558455161D+00
     beta-beta   T2 =       0.2071206257D-01 E2=     -0.6606034151D-01
 The integrals were generated   1 times.
 ANorm=    0.1072374672D+01
 E2 =    -0.4879661991D+00 EUMP2 =    -0.37127148796643D+03
 Leave Link  906 at Tue Oct 12 16:21:24 2021, MaxMem=  1048576000 cpu:       101.3
 (Enter /usr/local/gaussian/g09/l1002.exe)
 Minotr:  Closed shell wavefunction.
          Computing MP2/KS-MP2 derivatives.
          Using Z-Vector for PSCF gradient.
          Skipping F1 and S1 gradient terms here.
          Frozen-core window.
          Direct CPHF calculation.
          Differentiating once with respect to electric field.
                with respect to dipole field.
          Electric field/nuclear overlap derivatives assumed to be zero.
          Requested convergence is 1.0D-10 RMS, and 1.0D-09 maximum.
          NewPWx=F KeepS1=T KeepF1=T KeepIn=T MapXYZ=F SortEE=F KeepMc=T.
          MDV=    1048575822 using IRadAn=       0.
 Keep R1 ints in memory in canonical form, NReq=176526378.
 FoFCou: FMM=F IPFlag=           0 FMFlag=           0 FMFlg1=           0
         NFxFlg=           0 DoJE=F BraDBF=F KetDBF=F FulRan=T
         wScrn=  0.000000 ICntrl=     600 IOpCl=  0 I1Cent=           0 NGrid=           0
         NMat0=    1 NMatS0=  18336 NMatT0=    0 NMatD0=    1 NMtDS0=    0 NMtDT0=    0
 Symmetry not used in FoFCou.
          Solving linear equations separately, MaxMat=       0.
          There are     1 degrees of freedom in the 1st order CPHF.  IDoFFX=0 NUNeed=     1.
 LinEq1:  Iter=  0 NonCon=     1 RMS=2.38D-03 Max=3.60D-02 NDo=     1
 AX will form     1 AO Fock derivatives at one time.
 LinEq1:  Iter=  1 NonCon=     1 RMS=3.75D-04 Max=3.24D-03 NDo=     1
 LinEq1:  Iter=  2 NonCon=     1 RMS=1.74D-04 Max=2.13D-03 NDo=     1
 LinEq1:  Iter=  3 NonCon=     1 RMS=3.49D-05 Max=4.88D-04 NDo=     1
 LinEq1:  Iter=  4 NonCon=     1 RMS=8.64D-06 Max=8.79D-05 NDo=     1
 LinEq1:  Iter=  5 NonCon=     1 RMS=2.55D-06 Max=3.10D-05 NDo=     1
 LinEq1:  Iter=  6 NonCon=     1 RMS=5.16D-07 Max=5.70D-06 NDo=     1
 LinEq1:  Iter=  7 NonCon=     1 RMS=1.12D-07 Max=1.51D-06 NDo=     1
 LinEq1:  Iter=  8 NonCon=     1 RMS=3.11D-08 Max=3.59D-07 NDo=     1
 LinEq1:  Iter=  9 NonCon=     1 RMS=6.36D-09 Max=8.91D-08 NDo=     1
 LinEq1:  Iter= 10 NonCon=     1 RMS=1.11D-09 Max=1.33D-08 NDo=     1
 LinEq1:  Iter= 11 NonCon=     1 RMS=1.77D-10 Max=2.66D-09 NDo=     1
 LinEq1:  Iter= 12 NonCon=     0 RMS=3.79D-11 Max=5.47D-10 NDo=     1
 Linear equations converged to 1.000D-10 1.000D-09 after    12 iterations.
 End of Minotr F.D. properties file   721 does not exist.
 End of Minotr F.D. properties file   722 does not exist.
 End of Minotr F.D. properties file   788 does not exist.
 Leave Link 1002 at Tue Oct 12 16:21:28 2021, MaxMem=  1048576000 cpu:        18.4
 (Enter /usr/local/gaussian/g09/l601.exe)
 Copying SCF densities to generalized density rwf, IOpCl= 0 IROHF=0.

 **********************************************************************

            Population analysis using the MP2 density.

 **********************************************************************

 Alpha  occ. eigenvalues --  -20.39721  -7.46180  -5.28726  -5.28712  -5.28712
 Alpha  occ. eigenvalues --   -2.01464  -2.01459  -2.01456  -2.01441  -2.01440
 Alpha  occ. eigenvalues --   -1.25116  -0.62435  -0.60053  -0.45278  -0.36582
 Alpha  occ. eigenvalues --   -0.14175  -0.13735  -0.13703
 Alpha virt. eigenvalues --    0.12994   0.16836   0.23440   0.24518   0.25395
 Alpha virt. eigenvalues --    0.26686   0.28139   0.28647   0.31343   0.33217
 Alpha virt. eigenvalues --    0.36808   0.37328   0.37596   0.39626   0.40814
 Alpha virt. eigenvalues --    0.41710   0.45257   0.47494   0.53911   0.54648
 Alpha virt. eigenvalues --    0.56956   0.60262   0.66453   0.70972   0.77395
 Alpha virt. eigenvalues --    0.78518   0.78643   0.79908   0.80403   0.80499
 Alpha virt. eigenvalues --    0.82579   0.84513   0.85568   0.85725   0.87298
 Alpha virt. eigenvalues --    0.87454   0.88567   0.88811   0.89068   0.90214
 Alpha virt. eigenvalues --    0.92153   0.97431   0.99103   1.06886   1.07212
 Alpha virt. eigenvalues --    1.09112   1.09336   1.12687   1.13233   1.14886
 Alpha virt. eigenvalues --    1.17709   1.20462   1.33798   1.37404   1.38768
 Alpha virt. eigenvalues --    1.41316   1.46803   1.53790   1.55064   1.67115
 Alpha virt. eigenvalues --    1.73370   1.75636   1.75657   1.77406   1.78609
 Alpha virt. eigenvalues --    1.80009   1.81296   1.84875   1.88152   1.88572
 Alpha virt. eigenvalues --    2.00168   2.05664   2.05997   2.10082   2.10965
 Alpha virt. eigenvalues --    2.11449   2.17236   2.26853   2.43317   2.49779
 Alpha virt. eigenvalues --    2.56407   2.58711   2.62574   2.65138   2.79920
 Alpha virt. eigenvalues --    2.82832   2.86315   2.93087   3.01584   3.07149
 Alpha virt. eigenvalues --    3.09582   3.23213   3.25949   3.87165   3.94824
 Alpha virt. eigenvalues --    4.16700   4.25471   4.34395   4.41363   4.48058
 Alpha virt. eigenvalues --    4.56496   4.61382   4.61479   4.69384   4.77759
 Alpha virt. eigenvalues --    5.01657   5.20974   5.37302   5.43735   5.57390
 Alpha virt. eigenvalues --    5.97702   6.01146   6.29597   6.59516   6.71326
 Alpha virt. eigenvalues --    6.92847   7.27172   7.34256   7.41369   7.44582
 Alpha virt. eigenvalues --    7.47977   7.79573   8.04004   8.05464   8.26337
 Alpha virt. eigenvalues --    9.00523   9.34278  20.31882  59.21925
          Condensed to atoms (all electrons):
               1          2          3          4
     1  O    8.011549   0.253416  -0.043428   0.149893
     2  H    0.253416   0.597385   0.009512  -0.037191
     3  I   -0.043428   0.009512  25.967700   0.023485
     4  H    0.149893  -0.037191   0.023485   0.711989
 Mulliken charges:
               1
     1  O   -0.371431
     2  H    0.176878
     3  I   -0.957270
     4  H    0.151824
 Sum of Mulliken charges =  -1.00000
 Mulliken charges with hydrogens summed into heavy atoms:
               1
     1  O   -0.042730
     3  I   -0.957270
 Electronic spatial extent (au):  <R**2>=           1236.3667
 Charge=             -1.0000 electrons
 Dipole moment (field-independent basis, Debye):
    X=              4.3491    Y=             14.3218    Z=             -0.0000  Tot=             14.9676
 Quadrupole moment (field-independent basis, Debye-Ang):
   XX=            -41.4261   YY=            -94.0430   ZZ=            -41.8395
   XY=            -10.3353   XZ=             -0.0000   YZ=              0.0000
 Traceless Quadrupole moment (field-independent basis, Debye-Ang):
   XX=             17.6767   YY=            -34.9402   ZZ=             17.2634
   XY=            -10.3353   XZ=             -0.0000   YZ=              0.0000
 Octapole moment (field-independent basis, Debye-Ang**2):
  XXX=             74.9499  YYY=            533.9235  ZZZ=             -0.0000  XYY=             60.5557
  XXY=            124.7357  XXZ=              0.0000  XZZ=             23.8090  YZZ=            117.2165
  YYZ=             -0.0000  XYZ=              0.0000
 Hexadecapole moment (field-independent basis, Debye-Ang**3):
 XXXX=           -182.2041 YYYY=          -3103.9548 ZZZZ=            -77.3684 XXXY=           -255.9435
 XXXZ=             -0.0000 YYYX=           -375.6477 YYYZ=              0.0000 ZZZX=             -0.0000
 ZZZY=              0.0000 XXYY=           -470.1819 XXZZ=            -43.4646 YYZZ=           -427.2349
 XXYZ=             -0.0000 YYXZ=             -0.0000 ZZXY=            -83.6322
 N-N= 4.859335321589D+01 E-N=-9.104554872841D+02  KE= 1.874575549463D+02
 No NMR shielding tensors so no spin-rotation constants.
 Leave Link  601 at Tue Oct 12 16:21:29 2021, MaxMem=  1048576000 cpu:         2.1
 (Enter /usr/local/gaussian/g09/l607.exe)
 ******************************Gaussian NBO Version 3.1******************************
             N A T U R A L   A T O M I C   O R B I T A L   A N D
          N A T U R A L   B O N D   O R B I T A L   A N A L Y S I S
 ******************************Gaussian NBO Version 3.1******************************
       /RESON  / : Allow strongly delocalized NBO set

 Analyzing the MP2 density

 Job title: title                                                           

 Storage needed:    110417 in NPA,    146568 in NBO (1048575896 available)


 NATURAL POPULATIONS:  Natural atomic orbital occupancies 
                                                          
   NAO  Atom  No  lang   Type(AO)    Occupancy
 --------------------------------------------
     1    O    1  S      Cor( 1S)     1.99988
     2    O    1  S      Val( 2S)     1.85617
     3    O    1  S      Ryd( 3S)     0.00632
     4    O    1  S      Ryd( 4S)     0.00049
     5    O    1  S      Ryd( 5S)     0.00016
     6    O    1  px     Val( 2p)     1.66843
     7    O    1  px     Ryd( 3p)     0.01032
     8    O    1  px     Ryd( 4p)     0.00056
     9    O    1  px     Ryd( 5p)     0.00007
    10    O    1  py     Val( 2p)     1.73591
    11    O    1  py     Ryd( 3p)     0.01418
    12    O    1  py     Ryd( 4p)     0.00055
    13    O    1  py     Ryd( 5p)     0.00022
    14    O    1  pz     Val( 2p)     1.95530
    15    O    1  pz     Ryd( 3p)     0.01881
    16    O    1  pz     Ryd( 4p)     0.00049
    17    O    1  pz     Ryd( 5p)     0.00002
    18    O    1  dxy    Ryd( 3d)     0.00848
    19    O    1  dxy    Ryd( 4d)     0.00043
    20    O    1  dxy    Ryd( 5d)     0.00014
    21    O    1  dxz    Ryd( 3d)     0.00924
    22    O    1  dxz    Ryd( 4d)     0.00096
    23    O    1  dxz    Ryd( 5d)     0.00012
    24    O    1  dyz    Ryd( 3d)     0.00779
    25    O    1  dyz    Ryd( 4d)     0.00043
    26    O    1  dyz    Ryd( 5d)     0.00020
    27    O    1  dx2y2  Ryd( 3d)     0.00924
    28    O    1  dx2y2  Ryd( 4d)     0.00066
    29    O    1  dx2y2  Ryd( 5d)     0.00030
    30    O    1  dz2    Ryd( 3d)     0.00784
    31    O    1  dz2    Ryd( 4d)     0.00062
    32    O    1  dz2    Ryd( 5d)     0.00014
    33    O    1  f(0)   Ryd( 4f)     0.00084
    34    O    1  f(0)   Ryd( 5f)     0.00013
    35    O    1  f(C1)  Ryd( 4f)     0.00055
    36    O    1  f(C1)  Ryd( 5f)     0.00009
    37    O    1  f(S1)  Ryd( 4f)     0.00052
    38    O    1  f(S1)  Ryd( 5f)     0.00010
    39    O    1  f(C2)  Ryd( 4f)     0.00053
    40    O    1  f(C2)  Ryd( 5f)     0.00014
    41    O    1  f(S2)  Ryd( 4f)     0.00044
    42    O    1  f(S2)  Ryd( 5f)     0.00007
    43    O    1  f(C3)  Ryd( 4f)     0.00037
    44    O    1  f(C3)  Ryd( 5f)     0.00013
    45    O    1  f(S3)  Ryd( 4f)     0.00043
    46    O    1  f(S3)  Ryd( 5f)     0.00015

    47    H    2  S      Val( 1S)     0.33396
    48    H    2  S      Ryd( 2S)     0.00061
    49    H    2  S      Ryd( 3S)     0.00022
    50    H    2  S      Ryd( 4S)     0.00005
    51    H    2  px     Ryd( 2p)     0.00077
    52    H    2  px     Ryd( 3p)     0.00063
    53    H    2  px     Ryd( 4p)     0.00006
    54    H    2  py     Ryd( 2p)     0.00046
    55    H    2  py     Ryd( 3p)     0.00020
    56    H    2  py     Ryd( 4p)     0.00007
    57    H    2  pz     Ryd( 2p)     0.00133
    58    H    2  pz     Ryd( 3p)     0.00016
    59    H    2  pz     Ryd( 4p)     0.00005
    60    H    2  dxy    Ryd( 4d)     0.00005
    61    H    2  dxy    Ryd( 3d)     0.00006
    62    H    2  dxz    Ryd( 3d)     0.00029
    63    H    2  dxz    Ryd( 4d)     0.00007
    64    H    2  dyz    Ryd( 3d)     0.00012
    65    H    2  dyz    Ryd( 4d)     0.00006
    66    H    2  dx2y2  Ryd( 3d)     0.00017
    67    H    2  dx2y2  Ryd( 4d)     0.00007
    68    H    2  dz2    Ryd( 3d)     0.00015
    69    H    2  dz2    Ryd( 4d)     0.00007

    70    I    3  S      Cor( 4S)     2.00002
    71    I    3  S      Val( 5S)     1.98065
    72    I    3  S      Ryd( 6S)     0.00393
    73    I    3  S      Ryd( 7S)     0.00061
    74    I    3  S      Ryd( 8S)     0.00009
    75    I    3  S      Ryd( 9S)     0.00000
    76    I    3  px     Cor( 4p)     2.00007
    77    I    3  px     Val( 5p)     1.95122
    78    I    3  px     Ryd( 6p)     0.01123
    79    I    3  px     Ryd( 7p)     0.00075
    80    I    3  px     Ryd( 8p)     0.00008
    81    I    3  py     Cor( 4p)     2.00007
    82    I    3  py     Val( 5p)     1.94845
    83    I    3  py     Ryd( 6p)     0.01051
    84    I    3  py     Ryd( 7p)     0.00069
    85    I    3  py     Ryd( 8p)     0.00014
    86    I    3  pz     Cor( 4p)     2.00007
    87    I    3  pz     Val( 5p)     1.95168
    88    I    3  pz     Ryd( 6p)     0.01120
    89    I    3  pz     Ryd( 7p)     0.00075
    90    I    3  pz     Ryd( 8p)     0.00008
    91    I    3  dxy    Cor( 4d)     1.99675
    92    I    3  dxy    Ryd( 5d)     0.02045
    93    I    3  dxy    Ryd( 6d)     0.00149
    94    I    3  dxy    Ryd( 7d)     0.00018
    95    I    3  dxz    Cor( 4d)     1.99679
    96    I    3  dxz    Ryd( 5d)     0.02023
    97    I    3  dxz    Ryd( 6d)     0.00168
    98    I    3  dxz    Ryd( 7d)     0.00017
    99    I    3  dyz    Cor( 4d)     1.99677
   100    I    3  dyz    Ryd( 5d)     0.02031
   101    I    3  dyz    Ryd( 6d)     0.00148
   102    I    3  dyz    Ryd( 7d)     0.00017
   103    I    3  dx2y2  Cor( 4d)     1.99673
   104    I    3  dx2y2  Ryd( 5d)     0.02047
   105    I    3  dx2y2  Ryd( 6d)     0.00158
   106    I    3  dx2y2  Ryd( 7d)     0.00020
   107    I    3  dz2    Cor( 4d)     1.99677
   108    I    3  dz2    Ryd( 5d)     0.02034
   109    I    3  dz2    Ryd( 6d)     0.00165
   110    I    3  dz2    Ryd( 7d)     0.00018
   111    I    3  f(0)   Ryd( 4f)     0.00274
   112    I    3  f(0)   Ryd( 5f)     0.00043
   113    I    3  f(C1)  Ryd( 4f)     0.00276
   114    I    3  f(C1)  Ryd( 5f)     0.00043
   115    I    3  f(S1)  Ryd( 4f)     0.00276
   116    I    3  f(S1)  Ryd( 5f)     0.00046
   117    I    3  f(C2)  Ryd( 4f)     0.00273
   118    I    3  f(C2)  Ryd( 5f)     0.00043
   119    I    3  f(S2)  Ryd( 4f)     0.00278
   120    I    3  f(S2)  Ryd( 5f)     0.00044
   121    I    3  f(C3)  Ryd( 4f)     0.00271
   122    I    3  f(C3)  Ryd( 5f)     0.00045
   123    I    3  f(S3)  Ryd( 4f)     0.00273
   124    I    3  f(S3)  Ryd( 5f)     0.00047

   125    H    4  S      Val( 1S)     0.32935
   126    H    4  S      Ryd( 2S)     0.00530
   127    H    4  S      Ryd( 3S)     0.00069
   128    H    4  S      Ryd( 4S)     0.00010
   129    H    4  px     Ryd( 2p)     0.00411
   130    H    4  px     Ryd( 3p)     0.00041
   131    H    4  px     Ryd( 4p)     0.00014
   132    H    4  py     Ryd( 2p)     0.00453
   133    H    4  py     Ryd( 3p)     0.00059
   134    H    4  py     Ryd( 4p)     0.00018
   135    H    4  pz     Ryd( 2p)     0.00493
   136    H    4  pz     Ryd( 3p)     0.00043
   137    H    4  pz     Ryd( 4p)     0.00013
   138    H    4  dxy    Ryd( 3d)     0.00019
   139    H    4  dxy    Ryd( 4d)     0.00007
   140    H    4  dxz    Ryd( 3d)     0.00017
   141    H    4  dxz    Ryd( 4d)     0.00012
   142    H    4  dyz    Ryd( 3d)     0.00020
   143    H    4  dyz    Ryd( 4d)     0.00006
   144    H    4  dx2y2  Ryd( 3d)     0.00024
   145    H    4  dx2y2  Ryd( 4d)     0.00010
   146    H    4  dz2    Ryd( 3d)     0.00022
   147    H    4  dz2    Ryd( 4d)     0.00011

 [ 28 electrons found in the effective core potential]

 WARNING:  5 low occupancy (<1.9990e) core orbitals found on  I    3


 Summary of Natural Population Analysis:                  
                                                          
                                       Natural Population 
                Natural  -----------------------------------------------
    Atom  No    Charge         Core      Valence    Rydberg      Total
 -----------------------------------------------------------------------
      O    1   -1.31895      1.99988     7.21581    0.10326     9.31895
      H    2    0.66034      0.00000     0.33396    0.00570     0.33966
      I    3   -0.98902     45.98404     7.83201    0.17297    53.98902
      H    4    0.64763      0.00000     0.32935    0.02302     0.35237
 =======================================================================
   * Total *   -1.00000     47.98392    15.71113    0.30495    64.00000

                                 Natural Population      
 --------------------------------------------------------
   Effective Core            28.00000
   Core                      19.98392 ( 99.9196% of  20)
   Valence                   15.71113 ( 98.1946% of  16)
   Natural Minimal Basis     63.69505 ( 99.5235% of  64)
   Natural Rydberg Basis      0.30495 (  0.4765% of  64)
 --------------------------------------------------------

    Atom  No          Natural Electron Configuration
 ----------------------------------------------------------------------------
      O    1      [core]2S( 1.86)2p( 5.36)3S( 0.01)3p( 0.04)3d( 0.04)
      H    2            1S( 0.33)
      I    3      [core]5S( 1.98)5p( 5.85)4f( 0.02)5d( 0.10)6p( 0.03)6d( 0.01)
      H    4            1S( 0.33)2S( 0.01)2p( 0.01)


 NATURAL BOND ORBITAL ANALYSIS:
 Warning:  a bond orbital has occupanc of -0.00004

                       Occupancies       Lewis Structure    Low   High
           Occ.    -------------------  -----------------   occ   occ
  Cycle   Thresh.   Lewis   Non-Lewis     CR  BD  3C  LP    (L)   (NL)   Dev
 =============================================================================
   1(1)    1.90    63.69075   0.30925     10   2   0   6     0      0    0.00
 -----------------------------------------------------------------------------

 Structure accepted: No low occupancy Lewis orbitals

 WARNING:  5 low occupancy (<1.9990e) core orbitals found on  I    3

 --------------------------------------------------------
   Effective Core           28.00000
   Core                     19.98392 ( 99.920% of  20)
   Valence Lewis            15.70683 ( 98.168% of  16)
  ==================       ============================
   Total Lewis              63.69075 ( 99.517% of  64)
  -----------------------------------------------------
   Valence non-Lewis         0.03080 (  0.048% of  64)
   Rydberg non-Lewis         0.27846 (  0.435% of  64)
  ==================       ============================
   Total non-Lewis           0.30925 (  0.483% of  64)
 --------------------------------------------------------


       (Occupancy)   Bond orbital/ Coefficients/ Hybrids
 ---------------------------------------------------------------------------------
     1. (1.96575) BD ( 1) O   1 - H   2  
                ( 83.79%)   0.9154* O   1 s( 15.99%)p 5.23( 83.66%)d 0.02(  0.34%)
                                                  f 0.00(  0.01%)
                                            0.0002  0.3998  0.0025  0.0032 -0.0043
                                            0.9142 -0.0143  0.0063 -0.0009  0.0207
                                           -0.0106  0.0010 -0.0040  0.0000  0.0000
                                            0.0000  0.0000 -0.0257  0.0017  0.0022
                                            0.0000  0.0000  0.0000  0.0000  0.0000
                                            0.0000  0.0419 -0.0097  0.0052 -0.0295
                                            0.0036 -0.0013  0.0000  0.0000 -0.0095
                                            0.0008  0.0002 -0.0000  0.0000  0.0000
                                            0.0000  0.0000  0.0019  0.0012  0.0018
                                            0.0005
                ( 16.21%)   0.4026* H   2 s( 99.80%)p 0.00(  0.17%)d 0.00(  0.03%)
                                            0.9990 -0.0026 -0.0004  0.0000  0.0074
                                            0.0399 -0.0019 -0.0003 -0.0012 -0.0023
                                            0.0000  0.0000  0.0000 -0.0001 -0.0022
                                            0.0000  0.0000  0.0000  0.0000  0.0128
                                           -0.0054 -0.0100  0.0018
     2. (1.97286) BD ( 1) O   1 - H   4  
                ( 83.79%)   0.9154* O   1 s( 24.56%)p 3.06( 75.11%)d 0.01(  0.32%)
                                                  f 0.00(  0.01%)
                                            0.0002  0.4954 -0.0117 -0.0060 -0.0020
                                           -0.1959  0.0126  0.0020  0.0009 -0.8436
                                            0.0299 -0.0052  0.0050  0.0000  0.0000
                                            0.0000  0.0000 -0.0062  0.0058  0.0011
                                            0.0000  0.0000  0.0000  0.0000  0.0000
                                            0.0000 -0.0464  0.0045 -0.0054 -0.0297
                                           -0.0021 -0.0002  0.0000  0.0000  0.0015
                                           -0.0004  0.0078  0.0006  0.0000  0.0000
                                            0.0000  0.0000  0.0020  0.0028 -0.0019
                                            0.0050
                ( 16.21%)   0.4026* H   4 s( 99.87%)p 0.00(  0.13%)d 0.00(  0.00%)
                                            0.9992 -0.0128  0.0022  0.0002  0.0178
                                            0.0023  0.0011 -0.0032  0.0297 -0.0093
                                            0.0000  0.0000  0.0000  0.0019 -0.0014
                                            0.0000  0.0000  0.0000  0.0000  0.0014
                                           -0.0015 -0.0036 -0.0040
     3. (1.99988) CR ( 1) O   1           s(100.00%)
                                            1.0000 -0.0003  0.0000  0.0000  0.0000
                                           -0.0000  0.0000 -0.0000  0.0000  0.0000
                                           -0.0000  0.0000  0.0000  0.0000  0.0000
                                            0.0000  0.0000 -0.0000 -0.0000  0.0000
                                            0.0000  0.0000  0.0000  0.0000  0.0000
                                            0.0000 -0.0000 -0.0000  0.0000  0.0000
                                            0.0000 -0.0000  0.0000  0.0000  0.0000
                                            0.0000 -0.0000 -0.0000  0.0000  0.0000
                                            0.0000  0.0000 -0.0000 -0.0000 -0.0000
                                           -0.0000
     4. (2.00002) CR ( 1) I   3           s(100.00%)
                                            1.0000 -0.0000  0.0000  0.0000 -0.0000
                                           -0.0000  0.0000 -0.0000 -0.0000 -0.0000
                                            0.0000  0.0000 -0.0000  0.0000  0.0000
                                           -0.0000  0.0000  0.0000  0.0000  0.0000
                                            0.0000  0.0000 -0.0000  0.0000  0.0000
                                            0.0000  0.0000  0.0000  0.0000  0.0000
                                            0.0000  0.0000  0.0000 -0.0000  0.0000
                                           -0.0000 -0.0000 -0.0000  0.0000 -0.0000
                                           -0.0000  0.0000  0.0000  0.0000  0.0000
                                            0.0000  0.0000  0.0000  0.0000  0.0000
                                            0.0000  0.0000  0.0000  0.0000  0.0000
     5. (2.00007) CR ( 2) I   3           s(  0.00%)p 1.00(100.00%)
                                            0.0000  0.0000  0.0000 -0.0000  0.0000
                                           -0.0000  1.0000 -0.0000 -0.0000 -0.0000
                                            0.0000 -0.0000  0.0000 -0.0000 -0.0000
                                            0.0000  0.0000  0.0000  0.0000  0.0000
                                            0.0000  0.0000 -0.0000  0.0000  0.0000
                                            0.0000  0.0000  0.0000  0.0000  0.0000
                                            0.0000  0.0000  0.0000  0.0000 -0.0000
                                            0.0000 -0.0000  0.0000 -0.0000 -0.0000
                                            0.0000  0.0000  0.0000  0.0000  0.0000
                                           -0.0000 -0.0000  0.0000  0.0000  0.0000
                                            0.0000  0.0000  0.0000 -0.0000 -0.0000
     6. (2.00007) CR ( 3) I   3           s(  0.00%)p 1.00(100.00%)
                                            0.0000  0.0000 -0.0000 -0.0000  0.0000
                                            0.0000 -0.0000  0.0000  0.0000  0.0000
                                           -0.0000  1.0000  0.0000  0.0000 -0.0000
                                            0.0000  0.0000  0.0000  0.0000  0.0000
                                            0.0000 -0.0000  0.0000 -0.0000 -0.0000
                                            0.0000  0.0000  0.0000  0.0000  0.0000
                                            0.0000  0.0000  0.0000  0.0000 -0.0000
                                            0.0000  0.0000  0.0000 -0.0000  0.0000
                                            0.0000  0.0000  0.0000 -0.0000 -0.0000
                                           -0.0000 -0.0000  0.0000  0.0000  0.0000
                                            0.0000 -0.0000 -0.0000 -0.0000 -0.0000
     7. (2.00007) CR ( 4) I   3           s(  0.00%)p 1.00(100.00%)
                                            0.0000  0.0000  0.0000  0.0000  0.0000
                                            0.0000  0.0000  0.0000  0.0000  0.0000
                                            0.0000  0.0000  0.0000  0.0000  0.0000
                                            0.0000  1.0000 -0.0000  0.0000 -0.0000
                                           -0.0000  0.0000  0.0000  0.0000  0.0000
                                            0.0000 -0.0000  0.0000 -0.0000  0.0000
                                           -0.0000  0.0000  0.0000  0.0000  0.0000
                                            0.0000  0.0000  0.0000  0.0000  0.0000
                                            0.0000  0.0000  0.0000  0.0000  0.0000
                                            0.0000  0.0000  0.0000  0.0000 -0.0000
                                           -0.0000  0.0000  0.0000  0.0000  0.0000
     8. (1.99675) CR ( 5) I   3           s(  0.00%)p 0.00(  0.00%)d 1.00(100.00%)
                                            0.0000  0.0000 -0.0000  0.0000 -0.0000
                                            0.0000  0.0000  0.0000  0.0000  0.0000
                                           -0.0000 -0.0000  0.0000  0.0000 -0.0000
                                           -0.0000  0.0000  0.0000  0.0000  0.0000
                                            0.0000  1.0000  0.0000 -0.0000 -0.0000
                                            0.0000  0.0000  0.0000  0.0000  0.0000
                                            0.0000  0.0000  0.0000  0.0000 -0.0000
                                           -0.0000  0.0000  0.0000 -0.0000  0.0000
                                           -0.0000  0.0000  0.0000 -0.0000 -0.0000
                                           -0.0000 -0.0000  0.0000  0.0000  0.0000
                                            0.0000 -0.0000 -0.0000 -0.0000  0.0000
     9. (1.99679) CR ( 6) I   3           s(  0.00%)p 0.00(  0.00%)d 1.00(100.00%)
                                            0.0000  0.0000  0.0000  0.0000  0.0000
                                            0.0000  0.0000  0.0000  0.0000  0.0000
                                            0.0000  0.0000  0.0000  0.0000  0.0000
                                            0.0000  0.0000  0.0000 -0.0000  0.0000
                                            0.0000  0.0000  0.0000  0.0000  0.0000
                                            1.0000  0.0000 -0.0000  0.0000 -0.0000
                                            0.0000 -0.0000 -0.0000  0.0000  0.0000
                                            0.0000  0.0000  0.0000  0.0000  0.0000
                                            0.0000 -0.0000 -0.0000  0.0000  0.0000
                                            0.0000  0.0000 -0.0000 -0.0000  0.0000
                                            0.0000  0.0000  0.0000  0.0000  0.0000
    10. (1.99677) CR ( 7) I   3           s(  0.00%)p 0.00(  0.00%)d 1.00(100.00%)
                                            0.0000  0.0000  0.0000  0.0000  0.0000
                                            0.0000  0.0000  0.0000  0.0000  0.0000
                                            0.0000  0.0000  0.0000  0.0000  0.0000
                                            0.0000  0.0000  0.0000 -0.0000  0.0000
                                            0.0000  0.0000  0.0000  0.0000  0.0000
                                           -0.0000  0.0000 -0.0000  0.0000  1.0000
                                            0.0000 -0.0000 -0.0000  0.0000  0.0000
                                            0.0000  0.0000  0.0000  0.0000  0.0000
                                            0.0000 -0.0000 -0.0000  0.0000  0.0000
                                            0.0000  0.0000 -0.0000 -0.0000  0.0000
                                            0.0000  0.0000  0.0000  0.0000  0.0000
    11. (1.99673) CR ( 8) I   3           s(  0.00%)p 0.00(  0.00%)d 1.00(100.00%)
                                           -0.0000 -0.0000  0.0000  0.0000 -0.0000
                                           -0.0000  0.0000  0.0000 -0.0000  0.0000
                                            0.0000  0.0000 -0.0000  0.0000  0.0000
                                           -0.0000  0.0000  0.0000  0.0000  0.0000
                                            0.0000  0.0000 -0.0000  0.0000 -0.0000
                                            0.0000  0.0000  0.0000  0.0000  0.0000
                                            0.0000  0.0000  0.0000  1.0000  0.0000
                                           -0.0000 -0.0000 -0.0000  0.0000 -0.0000
                                           -0.0000  0.0000  0.0000  0.0000  0.0000
                                            0.0000  0.0000  0.0000  0.0000  0.0000
                                            0.0000  0.0000  0.0000  0.0000  0.0000
    12. (1.99677) CR ( 9) I   3           s(  0.00%)p 0.00(  0.00%)d 1.00(100.00%)
                                           -0.0000 -0.0000  0.0000  0.0000 -0.0000
                                           -0.0000  0.0000 -0.0000 -0.0000  0.0000
                                            0.0000  0.0000 -0.0000 -0.0000  0.0000
                                           -0.0000  0.0000  0.0000  0.0000  0.0000
                                            0.0000  0.0000 -0.0000  0.0000  0.0000
                                            0.0000  0.0000  0.0000  0.0000  0.0000
                                            0.0000  0.0000  0.0000 -0.0000  0.0000
                                           -0.0000 -0.0000  1.0000  0.0000 -0.0000
                                           -0.0000  0.0000  0.0000  0.0000  0.0000
                                            0.0000  0.0000  0.0000  0.0000  0.0000
                                            0.0000  0.0000  0.0000  0.0000  0.0000
    13. (1.97267) LP ( 1) O   1           s( 59.38%)p 0.68( 40.49%)d 0.00(  0.13%)
                                                  f 0.00(  0.00%)
                                            0.0002  0.7705  0.0056  0.0019  0.0030
                                           -0.3480 -0.0101  0.0051 -0.0013  0.5324
                                            0.0132 -0.0038 -0.0008  0.0000  0.0000
                                            0.0000  0.0000  0.0294 -0.0022 -0.0027
                                            0.0000  0.0000  0.0000  0.0000  0.0000
                                            0.0000  0.0083  0.0060 -0.0062  0.0149
                                           -0.0067  0.0032  0.0000  0.0000  0.0016
                                           -0.0014 -0.0040  0.0019  0.0000  0.0000
                                            0.0000  0.0000  0.0011  0.0023  0.0029
                                           -0.0021
    14. (1.96284) LP ( 2) O   1           s(  0.00%)p 1.00( 99.69%)d 0.00(  0.29%)
                                                  f 0.00(  0.03%)
                                            0.0000  0.0000  0.0000  0.0000  0.0000
                                            0.0000  0.0000  0.0000  0.0000  0.0000
                                            0.0000  0.0000  0.0000  0.9981  0.0260
                                           -0.0045  0.0043  0.0000  0.0000  0.0000
                                            0.0393 -0.0149  0.0037 -0.0324 -0.0041
                                            0.0062  0.0000  0.0000  0.0000  0.0000
                                            0.0000  0.0000 -0.0137  0.0043  0.0000
                                            0.0000  0.0000  0.0000  0.0045 -0.0050
                                            0.0019  0.0004  0.0000  0.0000  0.0000
                                            0.0000
    15. (1.98069) LP ( 1) I   3           s( 99.97%)p 0.00(  0.03%)d 0.00(  0.00%)
                                                  f 0.00(  0.00%)
                                            0.0000  0.9999  0.0000  0.0000 -0.0000
                                           -0.0000 -0.0000 -0.0010  0.0005 -0.0001
                                            0.0001 -0.0000 -0.0162  0.0006 -0.0007
                                            0.0002  0.0000  0.0000  0.0000  0.0000
                                            0.0000 -0.0000  0.0015 -0.0004 -0.0001
                                            0.0000  0.0000  0.0000  0.0000  0.0000
                                            0.0000  0.0000  0.0000  0.0000 -0.0023
                                            0.0004  0.0003  0.0000 -0.0018  0.0004
                                            0.0001  0.0000  0.0000 -0.0002 -0.0001
                                           -0.0007 -0.0005  0.0000  0.0000  0.0000
                                            0.0000 -0.0005 -0.0003 -0.0006 -0.0003
    16. (1.95174) LP ( 2) I   3           s(  0.00%)p 1.00(100.00%)d 0.00(  0.00%)
                                                  f 0.00(  0.00%)
                                            0.0000  0.0000  0.0000  0.0000  0.0000
                                            0.0000  0.0000  0.0000  0.0000  0.0000
                                            0.0000  0.0000  0.0000  0.0000  0.0000
                                            0.0000  0.0000  1.0000 -0.0006  0.0007
                                            0.0001  0.0000  0.0000  0.0000  0.0000
                                           -0.0000  0.0024 -0.0014  0.0011 -0.0000
                                            0.0038 -0.0011 -0.0008  0.0000  0.0000
                                            0.0000  0.0000  0.0000  0.0000  0.0000
                                            0.0000 -0.0013 -0.0010  0.0000  0.0000
                                            0.0000  0.0000 -0.0011 -0.0007  0.0010
                                            0.0009  0.0000  0.0000  0.0000  0.0000
    17. (1.95156) LP ( 3) I   3           s(  0.00%)p 1.00( 99.99%)d 0.00(  0.00%)
                                                  f 0.00(  0.00%)
                                           -0.0000  0.0032  0.0015 -0.0025  0.0021
                                           -0.0001 -0.0000 -0.9663 -0.0009 -0.0012
                                            0.0006  0.0000  0.2573 -0.0014 -0.0005
                                            0.0008 -0.0000 -0.0000 -0.0000 -0.0000
                                           -0.0000  0.0000 -0.0043  0.0011  0.0004
                                           -0.0000 -0.0000 -0.0000 -0.0000 -0.0000
                                           -0.0000 -0.0000 -0.0000  0.0000 -0.0040
                                            0.0017 -0.0008 -0.0000  0.0008 -0.0007
                                            0.0010 -0.0000 -0.0000  0.0007  0.0005
                                           -0.0002 -0.0001 -0.0000 -0.0000 -0.0000
                                           -0.0000  0.0010  0.0004 -0.0017 -0.0015
    18. (1.94871) LP ( 4) I   3           s(  0.03%)p99.99( 99.95%)d 0.88(  0.02%)
                                                  f 0.06(  0.00%)
                                            0.0000  0.0158 -0.0012 -0.0008  0.0005
                                            0.0002 -0.0000  0.2573  0.0013 -0.0000
                                           -0.0005 -0.0000  0.9661 -0.0003 -0.0018
                                            0.0004  0.0000  0.0000  0.0000  0.0000
                                            0.0000 -0.0000  0.0074 -0.0011  0.0000
                                            0.0000  0.0000  0.0000  0.0000  0.0000
                                            0.0000  0.0000  0.0000  0.0000 -0.0100
                                            0.0006  0.0021  0.0000 -0.0079  0.0012
                                            0.0003  0.0000  0.0000 -0.0006 -0.0004
                                           -0.0024 -0.0015  0.0000  0.0000  0.0000
                                            0.0000 -0.0018 -0.0005 -0.0019 -0.0008
    19. (0.01790) RY*( 1) O   1           s(  0.00%)p 1.00( 96.87%)d 0.03(  3.02%)
                                                  f 0.00(  0.11%)
                                            0.0000  0.0000  0.0000  0.0000  0.0000
                                            0.0000  0.0000  0.0000  0.0000  0.0000
                                            0.0000  0.0000  0.0000 -0.0341  0.9834
                                            0.0203 -0.0056  0.0000  0.0000  0.0000
                                            0.1665 -0.0417  0.0073 -0.0243 -0.0033
                                            0.0120  0.0000  0.0000  0.0000  0.0000
                                            0.0000  0.0000 -0.0169  0.0134  0.0000
                                            0.0000  0.0000  0.0000  0.0201 -0.0142
                                           -0.0057  0.0015  0.0000  0.0000  0.0000
                                            0.0000
    20. (0.01467) RY*( 2) O   1           s( 12.15%)p 7.01( 85.19%)d 0.21(  2.55%)
                                                  f 0.01(  0.11%)
                                            0.0000 -0.0211  0.3479  0.0010  0.0068
                                            0.0160 -0.4452  0.0039 -0.0024 -0.0015
                                            0.8075  0.0295 -0.0209  0.0000  0.0000
                                            0.0000  0.0000  0.1500 -0.0097 -0.0092
                                            0.0000  0.0000  0.0000  0.0000  0.0000
                                            0.0000  0.0041  0.0180 -0.0185  0.0320
                                           -0.0313  0.0092  0.0000  0.0000  0.0014
                                           -0.0052 -0.0025  0.0086  0.0000  0.0000
                                            0.0000  0.0000  0.0144  0.0050  0.0259
                                           -0.0095
    21. (0.00896) RY*( 3) O   1           s(  1.93%)p47.06( 90.91%)d 3.60(  6.96%)
                                                  f 0.11(  0.21%)
                                           -0.0000  0.0040  0.1311 -0.0461 -0.0004
                                           -0.0314 -0.8208  0.0069  0.0092 -0.0265
                                           -0.4786 -0.0492  0.0448 -0.0000 -0.0000
                                           -0.0000 -0.0000 -0.1627  0.0088 -0.0068
                                           -0.0000 -0.0000 -0.0000 -0.0000 -0.0000
                                           -0.0000  0.1672  0.1028 -0.0451 -0.0265
                                           -0.0328  0.0254 -0.0000 -0.0000 -0.0255
                                           -0.0042 -0.0080 -0.0039 -0.0000 -0.0000
                                           -0.0000 -0.0000  0.0051  0.0068 -0.0329
                                            0.0123
    22. (0.00612) RY*( 4) O   1           s( 38.94%)p 0.11(  4.15%)d 1.44( 56.27%)
                                                  f 0.02(  0.64%)
                                           -0.0000  0.0139  0.6235 -0.0217 -0.0068
                                           -0.0050  0.1974 -0.0171 -0.0016  0.0075
                                           -0.0431 -0.0154 -0.0072 -0.0000 -0.0000
                                           -0.0000 -0.0000 -0.6540 -0.0340  0.0138
                                           -0.0000 -0.0000 -0.0000 -0.0000 -0.0000
                                           -0.0000 -0.2068 -0.0312  0.0190  0.2959
                                            0.0437 -0.0064 -0.0000 -0.0000  0.0008
                                            0.0082  0.0091 -0.0071 -0.0000 -0.0000
                                           -0.0000 -0.0000 -0.0742  0.0133 -0.0226
                                            0.0065
    23. (0.00603) RY*( 5) O   1           s(  0.00%)p 1.00(  1.94%)d49.86( 96.88%)
                                                  f 0.61(  1.18%)
                                            0.0000  0.0000  0.0000  0.0000  0.0000
                                            0.0000  0.0000  0.0000  0.0000  0.0000
                                            0.0000  0.0000  0.0000 -0.0161 -0.1375
                                           -0.0105 -0.0128  0.0000  0.0000  0.0000
                                            0.8769  0.0764 -0.0235  0.4380  0.0376
                                           -0.0083  0.0000  0.0000  0.0000  0.0000
                                            0.0000  0.0000 -0.0143  0.0080  0.0000
                                            0.0000  0.0000  0.0000  0.0957 -0.0388
                                           -0.0278  0.0093  0.0000  0.0000  0.0000
                                            0.0000
    24. (0.00580) RY*( 6) O   1           s(  0.00%)p 1.00(  1.13%)d86.58( 97.94%)
                                                  f 0.82(  0.92%)
                                            0.0000  0.0000  0.0000  0.0000  0.0000
                                            0.0000  0.0000  0.0000  0.0000  0.0000
                                            0.0000  0.0000  0.0000  0.0438  0.0945
                                            0.0206 -0.0068  0.0000  0.0000  0.0000
                                           -0.4277 -0.0518  0.0135  0.8867  0.0854
                                           -0.0100  0.0000  0.0000  0.0000  0.0000
                                            0.0000  0.0000  0.0766 -0.0301  0.0000
                                            0.0000  0.0000  0.0000  0.0349 -0.0112
                                            0.0311 -0.0123  0.0000  0.0000  0.0000
                                            0.0000
    25. (0.00570) RY*( 7) O   1           s(  9.14%)p 0.66(  6.04%)d 9.20( 84.01%)
                                                  f 0.09(  0.81%)
                                           -0.0000  0.0102  0.3008 -0.0230 -0.0149
                                            0.0266  0.0693  0.0091 -0.0126 -0.0471
                                           -0.2240 -0.0470  0.0072  0.0000  0.0000
                                            0.0000  0.0000  0.5862  0.0489 -0.0142
                                            0.0000  0.0000  0.0000  0.0000  0.0000
                                            0.0000  0.1378  0.0062  0.0082  0.6837
                                            0.0850 -0.0140  0.0000  0.0000  0.0468
                                           -0.0174 -0.0579  0.0180  0.0000  0.0000
                                            0.0000  0.0000  0.0382 -0.0183  0.0085
                                           -0.0082
    26. (0.00318) RY*( 8) O   1           s( 35.39%)p 0.23(  8.06%)d 1.58( 56.01%)
                                                  f 0.02(  0.54%)
                                            0.0000 -0.0067  0.5944  0.0087 -0.0211
                                           -0.0237  0.2319 -0.0344 -0.0151 -0.0066
                                           -0.1553 -0.0248 -0.0105  0.0000  0.0000
                                            0.0000  0.0000  0.2548  0.0310 -0.0010
                                            0.0000  0.0000  0.0000  0.0000  0.0000
                                            0.0000  0.3280  0.0326  0.0128 -0.6102
                                           -0.1137 -0.0101  0.0000  0.0000 -0.0184
                                            0.0260  0.0084 -0.0136  0.0000  0.0000
                                            0.0000  0.0000  0.0370 -0.0430 -0.0297
                                           -0.0005
    27. (0.00262) RY*( 9) O   1           s(  2.53%)p 2.43(  6.15%)d35.66( 90.27%)
                                                  f 0.41(  1.05%)
                                            0.0000 -0.0029  0.1560  0.0312 -0.0002
                                            0.0359 -0.1244  0.0710 -0.0161  0.0305
                                           -0.1846  0.0653 -0.0119 -0.0000 -0.0000
                                           -0.0000 -0.0000  0.3062  0.0615  0.0023
                                           -0.0000 -0.0000 -0.0000 -0.0000 -0.0000
                                           -0.0000 -0.8624 -0.1436 -0.0230 -0.1956
                                           -0.0449 -0.0106 -0.0000 -0.0000  0.0113
                                           -0.0158  0.0112 -0.0214 -0.0000 -0.0000
                                           -0.0000 -0.0000 -0.0460  0.0145  0.0736
                                           -0.0419
    28. (0.00076) RY*(10) O   1           s( 45.95%)p 0.94( 43.16%)d 0.19(  8.55%)
                                                  f 0.05(  2.34%)
                                            0.0000 -0.0032 -0.0142  0.6776  0.0084
                                           -0.0046 -0.0343 -0.0026 -0.0875 -0.0050
                                            0.0043 -0.5832 -0.2873 -0.0000 -0.0000
                                           -0.0000 -0.0000 -0.0268  0.1353 -0.0368
                                           -0.0000 -0.0000 -0.0000 -0.0000 -0.0000
                                           -0.0000  0.0168 -0.2017  0.0379  0.0254
                                           -0.1462  0.0272 -0.0000 -0.0000  0.0112
                                            0.0157 -0.0101  0.0866 -0.0000 -0.0000
                                           -0.0000 -0.0000 -0.0204  0.0783  0.0049
                                            0.0942
    29. (0.00055) RY*(11) O   1           s(  0.00%)p 1.00( 53.41%)d 0.79( 42.06%)
                                                  f 0.08(  4.53%)
                                            0.0000  0.0000  0.0000  0.0000  0.0000
                                            0.0000  0.0000  0.0000  0.0000  0.0000
                                            0.0000  0.0000  0.0000 -0.0030 -0.0331
                                            0.7300  0.0129  0.0000  0.0000  0.0000
                                            0.0267 -0.2436 -0.0445 -0.0470  0.5803
                                            0.1400  0.0000  0.0000  0.0000  0.0000
                                            0.0000  0.0000 -0.1994  0.0314  0.0000
                                            0.0000  0.0000  0.0000 -0.0647 -0.0024
                                           -0.0148 -0.0123  0.0000  0.0000  0.0000
                                            0.0000
    30. (0.00055) RY*(12) O   1           s(  1.03%)p54.23( 56.13%)d35.50( 36.74%)
                                                  f 5.89(  6.10%)
                                           -0.0000  0.0083 -0.0008  0.0829 -0.0584
                                            0.0002 -0.0520 -0.7378  0.0624 -0.0066
                                           -0.0381  0.0931 -0.0105 -0.0000 -0.0000
                                           -0.0000 -0.0000  0.0285 -0.5102 -0.0970
                                           -0.0000 -0.0000 -0.0000 -0.0000 -0.0000
                                           -0.0000 -0.0064 -0.2998  0.0161 -0.0001
                                           -0.0390 -0.0719 -0.0000 -0.0000  0.1570
                                            0.0140 -0.1522  0.0080 -0.0000 -0.0000
                                           -0.0000 -0.0000  0.0515 -0.0474  0.0891
                                           -0.0091
    31. (0.00052) RY*(13) O   1           s(  0.00%)p 1.00(  9.74%)d 6.09( 59.38%)
                                                  f 3.17( 30.88%)
                                            0.0000  0.0000  0.0000  0.0000  0.0000
                                            0.0000  0.0000  0.0000  0.0000  0.0000
                                            0.0000  0.0000  0.0000  0.0173  0.0401
                                            0.3046  0.0526  0.0000  0.0000  0.0000
                                            0.0033  0.7388  0.2178  0.0140  0.0104
                                            0.0120  0.0000  0.0000  0.0000  0.0000
                                            0.0000  0.0000  0.3257 -0.0271  0.0000
                                            0.0000  0.0000  0.0000 -0.4363  0.0449
                                            0.0978  0.0024  0.0000  0.0000  0.0000
                                            0.0000
    32. (0.00048) RY*(14) O   1           s(  0.75%)p15.80( 11.88%)d93.01( 69.90%)
                                                  f23.25( 17.47%)
                                           -0.0000 -0.0016 -0.0096  0.0178  0.0843
                                            0.0009  0.0260  0.1549 -0.0355 -0.0084
                                           -0.0361  0.2955 -0.0642 -0.0000 -0.0000
                                           -0.0000 -0.0000 -0.0456 -0.0385 -0.0416
                                           -0.0000 -0.0000 -0.0000 -0.0000 -0.0000
                                           -0.0000  0.0638 -0.0792 -0.0847  0.1370
                                           -0.7911 -0.1775 -0.0000 -0.0000 -0.0296
                                           -0.0103  0.1630  0.0673 -0.0000 -0.0000
                                           -0.0000 -0.0000  0.1832  0.0852  0.3138
                                            0.0580
    33. (0.00046) RY*(15) O   1           s(  0.33%)p22.13(  7.32%)d34.50( 11.42%)
                                                  f99.99( 80.93%)
                                            0.0000  0.0029 -0.0044  0.0570  0.0057
                                            0.0029 -0.0255 -0.1943  0.0070  0.0078
                                            0.0024  0.1857 -0.0152  0.0000  0.0000
                                            0.0000  0.0000 -0.0105  0.2904  0.0999
                                            0.0000  0.0000  0.0000  0.0000  0.0000
                                            0.0000 -0.0187 -0.1295 -0.0229  0.0271
                                           -0.0262 -0.0265  0.0000  0.0000  0.3804
[...]
                                            0.0657 -0.0267  0.0283  0.0111  0.0000
                                            0.0000  0.0000  0.0000
   126. (0.00404) RY*( 3) H   4           s(  1.40%)p69.30( 96.81%)d 1.28(  1.79%)
                                            0.0171  0.1019  0.0563  0.0109 -0.9758
                                            0.0269  0.0292 -0.0989  0.0625  0.0252
                                           -0.0000 -0.0000 -0.0000  0.0157 -0.0246
                                           -0.0000 -0.0000 -0.0000 -0.0000 -0.1019
                                            0.0309  0.0700  0.0286
   127. (0.00244) RY*( 4) H   4           s( 47.82%)p 1.08( 51.70%)d 0.01(  0.48%)
                                            0.0166  0.6301 -0.2764 -0.0668 -0.0350
                                           -0.0257 -0.0283  0.6885 -0.1929 -0.0558
                                            0.0000  0.0000  0.0000  0.0313  0.0131
                                            0.0000  0.0000  0.0000  0.0000 -0.0372
                                           -0.0393 -0.0228 -0.0157
   128. (0.00070) RY*( 5) H   4           s( 65.49%)p 0.51( 33.08%)d 0.02(  1.44%)
                                           -0.0095  0.1652  0.7812 -0.1311  0.0546
                                            0.4150  0.0025  0.2543  0.3008  0.0213
                                            0.0000  0.0000  0.0000 -0.0081  0.0752
                                            0.0000  0.0000  0.0000  0.0000  0.0757
                                           -0.0539  0.0024 -0.0051
   129. (0.00038) RY*( 6) H   4           s(  5.91%)p15.53( 91.74%)d 0.40(  2.36%)
                                           -0.0110  0.0492  0.2231 -0.0822  0.0153
                                           -0.8336 -0.1354  0.1103  0.4377 -0.0109
                                           -0.0000 -0.0000 -0.0000  0.0131 -0.0275
                                           -0.0000 -0.0000 -0.0000 -0.0000 -0.1220
                                           -0.0722 -0.0152 -0.0482
   130. (0.00037) RY*( 7) H   4           s(  0.00%)p 1.00( 96.03%)d 0.04(  3.97%)
                                            0.0000  0.0000  0.0000  0.0000  0.0000
                                            0.0000  0.0000  0.0000  0.0000  0.0000
                                           -0.1370  0.9699 -0.0277  0.0000  0.0000
                                            0.1098 -0.0252  0.1061  0.1254  0.0000
                                            0.0000  0.0000  0.0000
   131. (0.00030) RY*( 8) H   4           s(  7.43%)p 6.11( 45.42%)d 6.34( 47.14%)
                                            0.0129  0.0768  0.1276  0.2280  0.0115
                                           -0.1867  0.1681  0.0770 -0.1464  0.6030
                                            0.0000  0.0000  0.0000 -0.1936 -0.1776
                                            0.0000  0.0000  0.0000  0.0000  0.4230
                                            0.2639  0.3172  0.2306
   132. (0.00024) RY*( 9) H   4           s(  0.88%)p15.07( 13.26%)d97.58( 85.86%)
                                            0.0005 -0.0202  0.0314  0.0860 -0.0952
                                           -0.0527 -0.3396 -0.0106 -0.0721  0.0095
                                            0.0000  0.0000  0.0000  0.6046 -0.0184
                                            0.0000  0.0000  0.0000  0.0000  0.6090
                                           -0.0552 -0.3421 -0.0431
   133. (0.00020) RY*(10) H   4           s(  0.00%)p 1.00(  4.98%)d19.07( 95.02%)
                                            0.0000  0.0000  0.0000  0.0000  0.0000
                                            0.0000  0.0000  0.0000  0.0000  0.0000
                                           -0.0202 -0.1292 -0.1809  0.0000  0.0000
                                            0.2119 -0.1956  0.9283 -0.0732  0.0000
                                            0.0000  0.0000  0.0000
   134. (0.00015) RY*(11) H   4           s(  0.00%)p 1.00(  0.66%)d99.99( 99.34%)
                                            0.0000  0.0000  0.0000  0.0000  0.0000
                                            0.0000  0.0000  0.0000  0.0000  0.0000
                                           -0.0311 -0.0657 -0.0362  0.0000  0.0000
                                            0.8756  0.4469 -0.1305 -0.0997  0.0000
                                            0.0000  0.0000  0.0000
   135. (0.00015) RY*(12) H   4           s(  0.12%)p18.28(  2.20%)d99.99( 97.68%)
                                            0.0029 -0.0007  0.0342  0.0046  0.0782
                                            0.0073 -0.0877 -0.0270 -0.0687 -0.0517
                                            0.0000  0.0000  0.0000  0.5572  0.0718
                                            0.0000  0.0000  0.0000  0.0000 -0.2098
                                           -0.1973  0.6785  0.3433
   136. (0.00014) RY*(13) H   4           s(  2.24%)p28.94( 64.86%)d14.68( 32.90%)
                                            0.0071 -0.0069  0.0138  0.1487 -0.0133
                                            0.0467 -0.7806 -0.0079 -0.0897  0.1698
                                           -0.0000 -0.0000 -0.0000 -0.2866  0.4489
                                           -0.0000 -0.0000 -0.0000 -0.0000 -0.1305
                                            0.1315  0.0380  0.0982
   137. (0.00014) RY*(14) H   4           s(  0.00%)p 1.00( 76.43%)d 0.31( 23.57%)
                                            0.0000  0.0000  0.0000  0.0000  0.0000
                                            0.0000  0.0000  0.0000  0.0000  0.0000
                                           -0.0481  0.0614  0.8708  0.0000  0.0000
                                            0.0175 -0.0239  0.1313 -0.4664  0.0000
                                            0.0000  0.0000  0.0000
   138. (0.00011) RY*(15) H   4           s(  9.05%)p 4.06( 36.78%)d 5.99( 54.17%)
                                            0.0087  0.0269  0.2246  0.1981 -0.0626
                                           -0.1838  0.0528 -0.0600 -0.3845 -0.4194
                                           -0.0000 -0.0000 -0.0000 -0.3482  0.1335
                                           -0.0000 -0.0000 -0.0000 -0.0000  0.3152
                                           -0.5261  0.1604 -0.0277
   139. (0.00010) RY*(16) H   4           s(  0.00%)p 1.00(  0.97%)d99.99( 99.03%)
   140. (0.00009) RY*(17) H   4           s( 43.81%)p 0.42( 18.32%)d 0.86( 37.87%)
   141. (0.00009) RY*(18) H   4           s(  0.42%)p 6.95(  2.95%)d99.99( 96.62%)
   142. (0.00005) RY*(19) H   4           s( 55.27%)p 0.74( 40.73%)d 0.07(  4.00%)
   143. (0.00002) RY*(20) H   4           s(  3.31%)p10.98( 36.37%)d18.21( 60.32%)
   144. (0.00003) RY*(21) H   4           s(  0.00%)p 1.00( 21.52%)d 3.65( 78.48%)
   145. (0.00003) RY*(22) H   4           s(  1.73%)p12.57( 21.80%)d44.10( 76.46%)
   146. (0.01901) BD*( 1) O   1 - H   2  
                ( 16.21%)   0.4026* O   1 s( 15.99%)p 5.23( 83.66%)d 0.02(  0.34%)
                                                  f 0.00(  0.01%)
                                           -0.0002 -0.3998 -0.0025 -0.0032  0.0043
                                           -0.9142  0.0143 -0.0063  0.0009 -0.0207
                                            0.0106 -0.0010  0.0040 -0.0000 -0.0000
                                           -0.0000 -0.0000  0.0257 -0.0017 -0.0022
                                           -0.0000 -0.0000 -0.0000 -0.0000 -0.0000
                                           -0.0000 -0.0419  0.0097 -0.0052  0.0295
                                           -0.0036  0.0013 -0.0000 -0.0000  0.0095
                                           -0.0008 -0.0002  0.0000 -0.0000 -0.0000
                                           -0.0000 -0.0000 -0.0019 -0.0012 -0.0018
                                           -0.0005
                ( 83.79%)  -0.9154* H   2 s( 99.80%)p 0.00(  0.17%)d 0.00(  0.03%)
                                           -0.9990  0.0026  0.0004 -0.0000 -0.0074
                                           -0.0399  0.0019  0.0003  0.0012  0.0023
                                           -0.0000 -0.0000 -0.0000  0.0001  0.0022
                                           -0.0000 -0.0000 -0.0000 -0.0000 -0.0128
                                            0.0054  0.0100 -0.0018
   147. (0.01179) BD*( 1) O   1 - H   4  
                ( 16.21%)   0.4026* O   1 s( 24.56%)p 3.06( 75.11%)d 0.01(  0.32%)
                                                  f 0.00(  0.01%)
                                           -0.0002 -0.4954  0.0117  0.0060  0.0020
                                            0.1959 -0.0126 -0.0020 -0.0009  0.8436
                                           -0.0299  0.0052 -0.0050 -0.0000 -0.0000
                                           -0.0000 -0.0000  0.0062 -0.0058 -0.0011
                                           -0.0000 -0.0000 -0.0000 -0.0000 -0.0000
                                           -0.0000  0.0464 -0.0045  0.0054  0.0297
                                            0.0021  0.0002 -0.0000 -0.0000 -0.0015
                                            0.0004 -0.0078 -0.0006 -0.0000 -0.0000
                                           -0.0000 -0.0000 -0.0020 -0.0028  0.0019
                                           -0.0050
                ( 83.79%)  -0.9154* H   4 s( 99.87%)p 0.00(  0.13%)d 0.00(  0.00%)
                                           -0.9992  0.0128 -0.0022 -0.0002 -0.0178
                                           -0.0023 -0.0011  0.0032 -0.0297  0.0093
                                           -0.0000 -0.0000 -0.0000 -0.0019  0.0014
                                           -0.0000 -0.0000 -0.0000 -0.0000 -0.0014
                                            0.0015  0.0036  0.0040


 NHO Directionality and "Bond Bending" (deviations from line of nuclear centers)

         [Thresholds for printing:  angular deviation  >  1.0 degree]
                                    hybrid p-character > 25.0%
                                    orbital occupancy  >  0.10e

                                Line of Centers        Hybrid 1              Hybrid 2
                                ---------------  -------------------   ------------------
                NBO               Theta   Phi    Theta   Phi    Dev    Theta   Phi    Dev
 ========================================================================================
    13. LP (   1) O   1             --     --     90.0  123.2   --       --     --    --
    14. LP (   2) O   1             --     --      0.0    0.0   --       --     --    --
    16. LP (   2) I   3             --     --      0.0    0.0   --       --     --    --
    17. LP (   3) I   3             --     --     90.0  165.2   --       --     --    --
    18. LP (   4) I   3             --     --     90.0   75.0   --       --     --    --


 Natural Bond Orbitals (Summary):

           NBO                  Occupancy  
 -----------------------------------------------
 Molecular unit  1  (H2O)
     1. BD (   1) O   1 - H   2          1.96575
     2. BD (   1) O   1 - H   4          1.97286
     3. CR (   1) O   1                  1.99988
    13. LP (   1) O   1                  1.97267
    14. LP (   2) O   1                  1.96284
    19. RY*(   1) O   1                  0.01790
    20. RY*(   2) O   1                  0.01467
    21. RY*(   3) O   1                  0.00896
    22. RY*(   4) O   1                  0.00612
    23. RY*(   5) O   1                  0.00603
    24. RY*(   6) O   1                  0.00580
    25. RY*(   7) O   1                  0.00570
    26. RY*(   8) O   1                  0.00318
    27. RY*(   9) O   1                  0.00262
    28. RY*(  10) O   1                  0.00076
    29. RY*(  11) O   1                  0.00055
    30. RY*(  12) O   1                  0.00055
    31. RY*(  13) O   1                  0.00052
    32. RY*(  14) O   1                  0.00048
    33. RY*(  15) O   1                  0.00046
    34. RY*(  16) O   1                  0.00043
    35. RY*(  17) O   1                  0.00043
    36. RY*(  18) O   1                  0.00042
    37. RY*(  19) O   1                  0.00042
    38. RY*(  20) O   1                  0.00041
    39. RY*(  21) O   1                  0.00030
    40. RY*(  22) O   1                  0.00030
    41. RY*(  23) O   1                  0.00025
    42. RY*(  24) O   1                  0.00020
    43. RY*(  25) O   1                  0.00017
    44. RY*(  26) O   1                  0.00012
    45. RY*(  27) O   1                  0.00007
    46. RY*(  28) O   1                  0.00007
    47. RY*(  29) O   1                  0.00008
    48. RY*(  30) O   1                  0.00007
    49. RY*(  31) O   1                  0.00007
    50. RY*(  32) O   1                  0.00007
    51. RY*(  33) O   1                  0.00008
    52. RY*(  34) O   1                  0.00006
    53. RY*(  35) O   1                  0.00006
    54. RY*(  36) O   1                  0.00006
    55. RY*(  37) O   1                  0.00004
    56. RY*(  38) O   1                  0.00004
    57. RY*(  39) O   1                  0.00001
    58. RY*(  40) O   1                  0.00001
    59. RY*(  41) O   1                 -0.00004
    60. RY*(   1) H   2                  0.00162
    61. RY*(   2) H   2                  0.00146
    62. RY*(   3) H   2                  0.00060
    63. RY*(   4) H   2                  0.00028
    64. RY*(   5) H   2                  0.00022
    65. RY*(   6) H   2                  0.00015
    66. RY*(   7) H   2                  0.00012
    67. RY*(   8) H   2                  0.00011
    68. RY*(   9) H   2                  0.00010
    69. RY*(  10) H   2                  0.00007
    70. RY*(  11) H   2                  0.00006
    71. RY*(  12) H   2                  0.00006
    72. RY*(  13) H   2                  0.00004
    73. RY*(  14) H   2                  0.00003
    74. RY*(  15) H   2                  0.00003
    75. RY*(  16) H   2                  0.00003
    76. RY*(  17) H   2                  0.00002
    77. RY*(  18) H   2                  0.00003
    78. RY*(  19) H   2                  0.00002
    79. RY*(  20) H   2                  0.00001
    80. RY*(  21) H   2                  0.00001
    81. RY*(  22) H   2                  0.00001
   124. RY*(   1) H   4                  0.00785
   125. RY*(   2) H   4                  0.00504
   126. RY*(   3) H   4                  0.00404
   127. RY*(   4) H   4                  0.00244
   128. RY*(   5) H   4                  0.00070
   129. RY*(   6) H   4                  0.00038
   130. RY*(   7) H   4                  0.00037
   131. RY*(   8) H   4                  0.00030
   132. RY*(   9) H   4                  0.00024
   133. RY*(  10) H   4                  0.00020
   134. RY*(  11) H   4                  0.00015
   135. RY*(  12) H   4                  0.00015
   136. RY*(  13) H   4                  0.00014
   137. RY*(  14) H   4                  0.00014
   138. RY*(  15) H   4                  0.00011
   139. RY*(  16) H   4                  0.00010
   140. RY*(  17) H   4                  0.00009
   141. RY*(  18) H   4                  0.00009
   142. RY*(  19) H   4                  0.00005
   143. RY*(  20) H   4                  0.00002
   144. RY*(  21) H   4                  0.00003
   145. RY*(  22) H   4                  0.00003
   146. BD*(   1) O   1 - H   2          0.01901
   147. BD*(   1) O   1 - H   4          0.01179
       -------------------------------
              Total Lewis    9.87400  ( 98.6317%)
        Valence non-Lewis    0.03080  (  0.3076%)
        Rydberg non-Lewis    0.10618  (  1.0607%)
       -------------------------------
            Total unit  1   10.01098  (100.0000%)
           Charge unit  1   -0.01098

 Molecular unit  2  (I)
     4. CR (   1) I   3                  2.00002
     5. CR (   2) I   3                  2.00007
     6. CR (   3) I   3                  2.00007
     7. CR (   4) I   3                  2.00007
     8. CR (   5) I   3                  1.99675
     9. CR (   6) I   3                  1.99679
    10. CR (   7) I   3                  1.99677
    11. CR (   8) I   3                  1.99673
    12. CR (   9) I   3                  1.99677
    15. LP (   1) I   3                  1.98069
    16. LP (   2) I   3                  1.95174
    17. LP (   3) I   3                  1.95156
    18. LP (   4) I   3                  1.94871
    82. RY*(   1) I   3                  0.02034
    83. RY*(   2) I   3                  0.02031
    84. RY*(   3) I   3                  0.02028
    85. RY*(   4) I   3                  0.02019
    86. RY*(   5) I   3                  0.02019
    87. RY*(   6) I   3                  0.01124
    88. RY*(   7) I   3                  0.01120
    89. RY*(   8) I   3                  0.01049
    90. RY*(   9) I   3                  0.00440
    91. RY*(  10) I   3                  0.00279
    92. RY*(  11) I   3                  0.00279
    93. RY*(  12) I   3                  0.00277
    94. RY*(  13) I   3                  0.00277
    95. RY*(  14) I   3                  0.00273
    96. RY*(  15) I   3                  0.00272
    97. RY*(  16) I   3                  0.00272
    98. RY*(  17) I   3                  0.00169
    99. RY*(  18) I   3                  0.00169
   100. RY*(  19) I   3                  0.00147
   101. RY*(  20) I   3                  0.00148
   102. RY*(  21) I   3                  0.00128
   103. RY*(  22) I   3                  0.00075
   104. RY*(  23) I   3                  0.00075
   105. RY*(  24) I   3                  0.00072
   106. RY*(  25) I   3                  0.00052
   107. RY*(  26) I   3                  0.00044
   108. RY*(  27) I   3                  0.00044
   109. RY*(  28) I   3                  0.00042
   110. RY*(  29) I   3                  0.00042
   111. RY*(  30) I   3                  0.00042
   112. RY*(  31) I   3                  0.00043
   113. RY*(  32) I   3                  0.00037
   114. RY*(  33) I   3                  0.00017
   115. RY*(  34) I   3                  0.00015
   116. RY*(  35) I   3                  0.00015
   117. RY*(  36) I   3                  0.00016
   118. RY*(  37) I   3                  0.00013
   119. RY*(  38) I   3                  0.00007
   120. RY*(  39) I   3                  0.00008
   121. RY*(  40) I   3                  0.00008
   122. RY*(  41) I   3                  0.00008
   123. RY*(  42) I   3                  0.00000
       -------------------------------
              Total Lewis   53.81674  ( 99.6809%)
        Valence non-Lewis    0.00000  (  0.0000%)
        Rydberg non-Lewis    0.17227  (  0.3191%)
       -------------------------------
            Total unit  2   53.98902  (100.0000%)
           Charge unit  2   -0.98902
 Leave Link  607 at Tue Oct 12 16:21:29 2021, MaxMem=  1048576000 cpu:         5.6
 (Enter /usr/local/gaussian/g09/l9999.exe)
 1\1\GINC-KRYPTON\SP\RMP2-FC\Gen\H2I1O1(1-)\CGAVINH\12-Oct-2021\0\\#p p
 op=NBO SP NoSymm mp2/gen Pseudo=read density=current\\title\\-1,1\O\X,
 1,10.\H,1,0.9609077,2,90.\I,1,3.50850362,2,90.,3,101.85830594,0\H,1,0.
 8,2,90.,3,101.85830594,0\\Version=ES64L-G09RevE.01\HF=-370.7835218\MP2
 =-371.271488\RMSD=2.975e-09\Dipole=0.7809063,0.9576233,0.\Quadrupole=1
 3.1422274,-25.9771484,12.834921,-7.6840447,0.,0.\PG=CS [SG(H2I1O1)]\\@


 A SOLDIER'S LIFE IS A LIFE OF HONOR, BUT A DOG WOULD NOT LEAD IT.
 -- PRINCE RUPERT, FOUNDER OF THE HUDSON'S BAY COMPANY
 Job cpu time:       0 days  0 hours  2 minutes 35.0 seconds.
 File lengths (MBytes):  RWF=     15 Int=      0 D2E=      0 Chk=      3 Scr=      1
 Normal termination of Gaussian 09 at Tue Oct 12 16:21:29 2021.
