 Entering Gaussian System, Link 0=g09
 Input=ihod_rOH_100_sp.gjf
 Output=ihod_rOH_100_sp.log
 Initial command:
 /usr/local/gaussian/g09/l1.exe "/scratch/Gau-1459.inp" -scrdir="/scratch/"
 Entering Link 1 = /usr/local/gaussian/g09/l1.exe PID=      1463.
  
 Copyright (c) 1988,1990,1992,1993,1995,1998,2003,2009,2015,
            Gaussian, Inc.  All Rights Reserved.
  
 This is part of the Gaussian(R) 09 program.  It is based on
 the Gaussian(R) 03 system (copyright 2003, Gaussian, Inc.),
 the Gaussian(R) 98 system (copyright 1998, Gaussian, Inc.),
 the Gaussian(R) 94 system (copyright 1995, Gaussian, Inc.),
 the Gaussian 92(TM) system (copyright 1992, Gaussian, Inc.),
 the Gaussian 90(TM) system (copyright 1990, Gaussian, Inc.),
 the Gaussian 88(TM) system (copyright 1988, Gaussian, Inc.),
 the Gaussian 86(TM) system (copyright 1986, Carnegie Mellon
 University), and the Gaussian 82(TM) system (copyright 1983,
 Carnegie Mellon University). Gaussian is a federally registered
 trademark of Gaussian, Inc.
  
 This software contains proprietary and confidential information,
 including trade secrets, belonging to Gaussian, Inc.
  
 This software is provided under written license and may be
 used, copied, transmitted, or stored only in accord with that
 written license.
  
 The following legend is applicable only to US Government
 contracts under FAR:
  
                    RESTRICTED RIGHTS LEGEND
  
 Use, reproduction and disclosure by the US Government is
 subject to restrictions as set forth in subparagraphs (a)
 and (c) of the Commercial Computer Software - Restricted
 Rights clause in FAR 52.227-19.
  
 Gaussian, Inc.
 340 Quinnipiac St., Bldg. 40, Wallingford CT 06492
  
  
 ---------------------------------------------------------------
 Warning -- This program may not be used in any manner that
 competes with the business of Gaussian, Inc. or will provide
 assistance to any competitor of Gaussian, Inc.  The licensee
 of this program is prohibited from giving any competitor of
 Gaussian, Inc. access to this program.  By using this program,
 the user acknowledges that Gaussian, Inc. is engaged in the
 business of creating and licensing software in the field of
 computational chemistry and represents and warrants to the
 licensee that it is not a competitor of Gaussian, Inc. and that
 it will not use this program in any manner prohibited above.
 ---------------------------------------------------------------
  

 Cite this work as:
 Gaussian 09, Revision E.01,
 M. J. Frisch, G. W. Trucks, H. B. Schlegel, G. E. Scuseria, 
 M. A. Robb, J. R. Cheeseman, G. Scalmani, V. Barone, B. Mennucci, 
 G. A. Petersson, H. Nakatsuji, M. Caricato, X. Li, H. P. Hratchian, 
 A. F. Izmaylov, J. Bloino, G. Zheng, J. L. Sonnenberg, M. Hada, 
 M. Ehara, K. Toyota, R. Fukuda, J. Hasegawa, M. Ishida, T. Nakajima, 
 Y. Honda, O. Kitao, H. Nakai, T. Vreven, J. A. Montgomery, Jr., 
 J. E. Peralta, F. Ogliaro, M. Bearpark, J. J. Heyd, E. Brothers, 
 K. N. Kudin, V. N. Staroverov, T. Keith, R. Kobayashi, J. Normand, 
 K. Raghavachari, A. Rendell, J. C. Burant, S. S. Iyengar, J. Tomasi, 
 M. Cossi, N. Rega, J. M. Millam, M. Klene, J. E. Knox, J. B. Cross, 
 V. Bakken, C. Adamo, J. Jaramillo, R. Gomperts, R. E. Stratmann, 
 O. Yazyev, A. J. Austin, R. Cammi, C. Pomelli, J. W. Ochterski, 
 R. L. Martin, K. Morokuma, V. G. Zakrzewski, G. A. Voth, 
 P. Salvador, J. J. Dannenberg, S. Dapprich, A. D. Daniels, 
 O. Farkas, J. B. Foresman, J. V. Ortiz, J. Cioslowski, 
 and D. J. Fox, Gaussian, Inc., Wallingford CT, 2013.
 
 ******************************************
 Gaussian 09:  ES64L-G09RevE.01 30-Nov-2015
                12-Oct-2021 
 ******************************************
 %nproc=12
 Will use up to   12 processors via shared memory.
 %mem=8000MB
 %chk=/home/netid.washington.edu/cgavinh/mccoy_hocl/rOH_s_oop_0/ihod/ihod_rOH_100
 _sp.chk
 --------------------------------------------------------
 #p pop=NBO SP NoSymm mp2/gen Pseudo=read density=current
 --------------------------------------------------------
 1/30=1,38=1/1;
 2/12=2,15=1,17=6,18=5,40=1/2;
 3/5=7,11=9,16=1,17=8,25=1,30=1,71=1/1,2,3;
 4//1;
 5/5=2,38=5/2;
 8/6=4,10=1/1;
 9/15=1,16=-3/6;
 10/5=1,13=10,31=1/2;
 6/7=2,8=2,9=2,10=2,22=-1,40=1/1,7;
 99/5=1,9=1/99;
 Leave Link    1 at Tue Oct 12 16:22:23 2021, MaxMem=  1048576000 cpu:         0.2
 (Enter /usr/local/gaussian/g09/l101.exe)
 -----
 title
 -----
 Symbolic Z-matrix:
 Charge = -1 Multiplicity = 1
 O
 X                    1     10. 
 H(iso=2)             1    r1       2     90. 
 I                    1    r2       2     90.      3    a1       0
 H                    1    r3       2    oop      3    a1       0
       Variables:
  r1                    0.96091                  
  r2                    3.5085                   
  r3                    1.                       
  a1                  101.85831                  
  OOP                  90.                       
 
 NAtoms=      4 NQM=        4 NQMF=       0 NMMI=      0 NMMIF=      0
                NMic=       0 NMicF=      0.
                    Isotopes and Nuclear Properties:
 (Nuclear quadrupole moments (NQMom) in fm**2, nuclear magnetic moments (NMagM)
  in nuclear magnetons)

  Atom         1           2           3           4
 IAtWgt=          16           2         127           1
 AtmWgt=  15.9949146   2.0141018 126.9004000   1.0078250
 NucSpn=           0           2           5           1
 AtZEff=   0.0000000   0.0000000   0.0000000   0.0000000
 NQMom=    0.0000000   0.2860000 -71.0000000   0.0000000
 NMagM=    0.0000000   0.8574380   2.8132800   2.7928460
 AtZNuc=   8.0000000   1.0000000  53.0000000   1.0000000
 Leave Link  101 at Tue Oct 12 16:22:23 2021, MaxMem=  1048576000 cpu:         0.4
 (Enter /usr/local/gaussian/g09/l202.exe)
                          Input orientation:                          
 ---------------------------------------------------------------------
 Center     Atomic      Atomic             Coordinates (Angstroms)
 Number     Number       Type             X           Y           Z
 ---------------------------------------------------------------------
      1          8           0        0.000000    0.000000    0.000000
      2          1           0        0.960908    0.000000    0.000000
      3         53           0       -0.720970   -3.433628    0.000000
      4          1           0       -0.205492   -0.978659    0.000000
 ---------------------------------------------------------------------
                    Distance matrix (angstroms):
                    1          2          3          4
     1  O    0.000000
     2  H    0.960908   0.000000
     3  I    3.508504   3.823416   0.000000
     4  H    1.000000   1.522584   2.508504   0.000000
 Symmetry turned off by external request.
 Stoichiometry    H2IO(1-)
 Framework group  CS[SG(H2IO)]
 Deg. of freedom     5
 Full point group                 CS      NOp   2
 Rotational constants (GHZ):    322.6790006      2.5126662      2.4932515
 Leave Link  202 at Tue Oct 12 16:22:23 2021, MaxMem=  1048576000 cpu:         0.0
 (Enter /usr/local/gaussian/g09/l301.exe)
 General basis read from cards:  (5D, 7F)
 Centers:       2      4      1      2      4
 aug-cc-pVTZ
 ****
 Centers:       3
 S 11 1.00
     Exponent=  5.5465000000D+03 Coefficients=  1.5600000000D-04
     Exponent=  8.3821400000D+02 Coefficients=  9.8600000000D-04
     Exponent=  1.8218700000D+02 Coefficients=  2.7920000000D-03
     Exponent=  3.1212300000D+01 Coefficients= -4.3251000000D-02
     Exponent=  1.9531400000D+01 Coefficients=  2.3413400000D-01
     Exponent=  8.2409900000D+00 Coefficients= -7.5094300000D-01
     Exponent=  2.1945500000D+00 Coefficients=  8.8296800000D-01
     Exponent=  1.1091100000D+00 Coefficients=  4.6206100000D-01
     Exponent=  3.7464100000D-01 Coefficients=  2.2286000000D-02
     Exponent=  1.7708000000D-01 Coefficients= -4.3530000000D-03
     Exponent=  8.1061000000D-02 Coefficients=  1.1020000000D-03
 S 11 1.00
     Exponent=  5.5465000000D+03 Coefficients= -7.3000000000D-05
     Exponent=  8.3821400000D+02 Coefficients= -5.0800000000D-04
     Exponent=  1.8218700000D+02 Coefficients= -1.1580000000D-03
     Exponent=  3.1212300000D+01 Coefficients=  1.2193000000D-02
     Exponent=  1.9531400000D+01 Coefficients= -8.7854000000D-02
     Exponent=  8.2409900000D+00 Coefficients=  3.3820000000D-01
     Exponent=  2.1945500000D+00 Coefficients= -5.7655000000D-01
     Exponent=  1.1091100000D+00 Coefficients= -4.0929800000D-01
     Exponent=  3.7464100000D-01 Coefficients=  5.6745900000D-01
     Exponent=  1.7708000000D-01 Coefficients=  6.1248900000D-01
     Exponent=  8.1061000000D-02 Coefficients=  1.4323100000D-01
 S 1 1.00
     Exponent=  3.7464100000D-01 Coefficients=  1.0000000000D+00
 S 1 1.00
     Exponent=  1.7708000000D-01 Coefficients=  1.0000000000D+00
 S 1 1.00
     Exponent=  1.0010000000D-01 Coefficients=  1.0000000000D+00
 S 1 1.00
     Exponent=  4.1200000000D-02 Coefficients=  1.0000000000D+00
 P 9 1.00
     Exponent=  1.8898800000D+02 Coefficients=  5.8500000000D-04
     Exponent=  2.1286800000D+01 Coefficients=  3.6923000000D-02
     Exponent=  1.0039600000D+01 Coefficients= -2.3532400000D-01
     Exponent=  3.4518000000D+00 Coefficients=  3.4148300000D-01
     Exponent=  1.9745600000D+00 Coefficients=  5.3478800000D-01
     Exponent=  1.0242000000D+00 Coefficients=  2.6514100000D-01
     Exponent=  4.4943700000D-01 Coefficients=  2.5787000000D-02
     Exponent=  1.8664800000D-01 Coefficients=  5.2200000000D-04
     Exponent=  7.3481000000D-02 Coefficients=  6.0600000000D-04
 P 9 1.00
     Exponent=  1.8898800000D+02 Coefficients= -2.5600000000D-04
     Exponent=  2.1286800000D+01 Coefficients= -1.1682000000D-02
     Exponent=  1.0039600000D+01 Coefficients=  8.3192000000D-02
     Exponent=  3.4518000000D+00 Coefficients= -1.5697000000D-01
     Exponent=  1.9745600000D+00 Coefficients= -2.2451800000D-01
     Exponent=  1.0242000000D+00 Coefficients= -1.1445100000D-01
     Exponent=  4.4943700000D-01 Coefficients=  3.7535600000D-01
     Exponent=  1.8664800000D-01 Coefficients=  5.7513600000D-01
     Exponent=  7.3481000000D-02 Coefficients=  2.4591700000D-01
 P 1 1.00
     Exponent=  5.9810000000D-01 Coefficients=  1.0000000000D+00
 P 1 1.00
     Exponent=  9.6180000000D-02 Coefficients=  1.0000000000D+00
 P 1 1.00
     Exponent=  3.5900000000D-02 Coefficients=  1.0000000000D+00
 D 9 1.00
     Exponent=  1.3266200000D+02 Coefficients=  5.7200000000D-04
     Exponent=  3.7605400000D+01 Coefficients=  4.4020000000D-03
     Exponent=  1.0389100000D+01 Coefficients= -4.0922000000D-02
     Exponent=  6.4901700000D+00 Coefficients=  9.9661000000D-02
     Exponent=  3.4545100000D+00 Coefficients=  3.2266300000D-01
     Exponent=  1.8441300000D+00 Coefficients=  4.0034300000D-01
     Exponent=  9.6247800000D-01 Coefficients=  2.6830600000D-01
     Exponent=  4.7285300000D-01 Coefficients=  8.4847000000D-02
     Exponent=  1.9320000000D-01 Coefficients=  7.6320000000D-03
 D 1 1.00
     Exponent=  4.7285300000D-01 Coefficients=  1.0000000000D+00
 D 1 1.00
     Exponent=  1.9320000000D-01 Coefficients=  1.0000000000D+00
 D 1 1.00
     Exponent=  7.8200000000D-02 Coefficients=  1.0000000000D+00
 F 1 1.00
     Exponent=  4.0640000000D-01 Coefficients=  1.0000000000D+00
 F 1 1.00
     Exponent=  1.8480000000D-01 Coefficients=  1.0000000000D+00
 ****
 ======================================================================================================
                                       Pseudopotential Parameters
 ======================================================================================================
  Center     Atomic      Valence      Angular      Power
  Number     Number     Electrons     Momentum     of R      Exponent        Coefficient   SO-Coeffient
 ======================================================================================================
    1          8
                                   No pseudopotential on this center.
    2          1
                                   No pseudopotential on this center.
    3         53           25
                                      G and up 
                                                     2        1.0000000        0.00000000    0.00000000
                                      S - G
                                                     2       40.0333760       49.98964900    0.00000000
                                                     2       17.3005760      281.00655600    0.00000000
                                                     2        8.8517200       61.41673900    0.00000000
                                      P - G
                                                     2       15.7201410       67.41623900    0.00000000
                                                     2       15.2082220      134.80769600    0.00000000
                                                     2        8.2941860       14.56654800    0.00000000
                                                     2        7.7539490       28.96842200    0.00000000
                                      D - G
                                                     2       13.8177510       35.53875600    0.00000000
                                                     2       13.5878050       53.33975900    0.00000000
                                                     2        6.9476300        9.71646600    0.00000000
                                                     2        6.9600990       14.97750000    0.00000000
                                      F - G
                                                     2       18.5229500      -20.17661800    0.00000000
                                                     2       18.2510350      -26.08807700    0.00000000
                                                     2        7.5579010       -0.22043400    0.00000000
                                                     2        7.5974040       -0.22164600    0.00000000
    4          1
                                   No pseudopotential on this center.
 ======================================================================================================
 Ernie: Thresh=  0.10000D-02 Tol=  0.10000D-05 Strict=F.
 Ernie:  16 primitive shells out of 135 were deleted.
   191 basis functions,   344 primitive gaussians,   218 cartesian basis functions
    18 alpha electrons       18 beta electrons
       nuclear repulsion energy        47.8859624452 Hartrees.
 IExCor=    0 DFT=F Ex=HF Corr=None ExCW=0 ScaHFX=  1.000000
 ScaDFX=  1.000000  1.000000  1.000000  1.000000 ScalE2=  1.000000  1.000000
 IRadAn=      0 IRanWt=     -1 IRanGd=            0 ICorTp=0 IEmpDi=  4
 NAtoms=    4 NActive=    4 NUniq=    4 SFac= 1.00D+00 NAtFMM=   60 NAOKFM=F Big=F
 Integral buffers will be    131072 words long.
 Raffenetti 1 integral format.
 Two-electron integral symmetry is turned off.
 Leave Link  301 at Tue Oct 12 16:22:24 2021, MaxMem=  1048576000 cpu:         0.7
 (Enter /usr/local/gaussian/g09/l302.exe)
 NPDir=0 NMtPBC=     1 NCelOv=     1 NCel=       1 NClECP=     1 NCelD=      1
         NCelK=      1 NCelE2=     1 NClLst=     1 CellRange=     0.0.
 One-electron integrals computed using PRISM.
   1 Symmetry operations used in ECPInt.
 ECPInt:  NShTT=    2145 NPrTT=    7341 LenC2=    2146 LenP2D=    6689.
 LDataN:  DoStor=T MaxTD1= 7 Len=  274
 NBasis=   191 RedAO= T EigKep=  3.87D-04  NBF=   191
 NBsUse=   147 1.00D-06 EigRej=  1.55D-15 NBFU=   147
 Leave Link  302 at Tue Oct 12 16:22:24 2021, MaxMem=  1048576000 cpu:         2.9
 (Enter /usr/local/gaussian/g09/l303.exe)
 DipDrv:  MaxL=1.
 Leave Link  303 at Tue Oct 12 16:22:24 2021, MaxMem=  1048576000 cpu:         0.2
 (Enter /usr/local/gaussian/g09/l401.exe)
 ExpMin= 2.53D-02 ExpMax= 1.53D+04 ExpMxC= 5.22D+02 IAcc=3 IRadAn=         5 AccDes= 0.00D+00
 Harris functional with IExCor=  205 and IRadAn=       5 diagonalized for initial guess.
 HarFok:  IExCor=  205 AccDes= 0.00D+00 IRadAn=         5 IDoV= 1 UseB2=F ITyADJ=14
 ICtDFT=  3500011 ScaDFX=  1.000000  1.000000  1.000000  1.000000
 Defaulting to unpruned grid for atomic number  53.
 Defaulting to unpruned grid for atomic number  53.
 Defaulting to unpruned grid for atomic number  53.
 Defaulting to unpruned grid for atomic number  53.
 Defaulting to unpruned grid for atomic number  53.
 Defaulting to unpruned grid for atomic number  53.
 Defaulting to unpruned grid for atomic number  53.
 Defaulting to unpruned grid for atomic number  53.
 Defaulting to unpruned grid for atomic number  53.
 Defaulting to unpruned grid for atomic number  53.
 Defaulting to unpruned grid for atomic number  53.
 Defaulting to unpruned grid for atomic number  53.
 FoFCou: FMM=F IPFlag=           0 FMFlag=      100000 FMFlg1=           0
         NFxFlg=           0 DoJE=T BraDBF=F KetDBF=T FulRan=T
         wScrn=  0.000000 ICntrl=     500 IOpCl=  0 I1Cent=   200000004 NGrid=           0
         NMat0=    1 NMatS0=      1 NMatT0=    0 NMatD0=    1 NMtDS0=    0 NMtDT0=    0
 Symmetry not used in FoFCou.
 Harris En= -372.681508288887    
 JPrj=0 DoOrth=F DoCkMO=F.
 Leave Link  401 at Tue Oct 12 16:22:24 2021, MaxMem=  1048576000 cpu:         2.8
 (Enter /usr/local/gaussian/g09/l502.exe)
 Closed shell SCF:
 Using DIIS extrapolation, IDIIS=  1040.
 Two-electron integral symmetry not used.
 Keep R1 ints in memory in canonical form, NReq=176646653.
 IVT=      165054 IEndB=      165054 NGot=  1048576000 MDV=   880297331
 LenX=   880297331 LenY=   880249366
 Requested convergence on RMS density matrix=1.00D-08 within 128 cycles.
 Requested convergence on MAX density matrix=1.00D-06.
 Requested convergence on             energy=1.00D-06.
 No special actions if energy rises.
 FoFCou: FMM=F IPFlag=           0 FMFlag=           0 FMFlg1=           0
         NFxFlg=           0 DoJE=F BraDBF=F KetDBF=F FulRan=T
         wScrn=  0.000000 ICntrl=     600 IOpCl=  0 I1Cent=           0 NGrid=           0
         NMat0=    1 NMatS0=  18336 NMatT0=    0 NMatD0=    1 NMtDS0=    0 NMtDT0=    0
 Symmetry not used in FoFCou.

 Cycle   1  Pass 1  IDiag  1:
 E= -370.655109906596    
 DIIS: error= 5.51D-02 at cycle   1 NSaved=   1.
 NSaved= 1 IEnMin= 1 EnMin= -370.655109906596     IErMin= 1 ErrMin= 5.51D-02
 ErrMax= 5.51D-02  0.00D+00 EMaxC= 1.00D-01 BMatC= 3.70D-01 BMatP= 3.70D-01
 IDIUse=3 WtCom= 4.49D-01 WtEn= 5.51D-01
 Coeff-Com:  0.100D+01
 Coeff-En:   0.100D+01
 Coeff:      0.100D+01
 Gap=     0.402 Goal=   None    Shift=    0.000
 GapD=    0.402 DampG=2.000 DampE=0.500 DampFc=1.0000 IDamp=-1.
 RMSDP=3.56D-03 MaxDP=1.02D-01              OVMax= 1.27D-01

 Cycle   2  Pass 1  IDiag  1:
 E= -370.770889752005     Delta-E=       -0.115779845409 Rises=F Damp=F
 DIIS: error= 3.86D-02 at cycle   2 NSaved=   2.
 NSaved= 2 IEnMin= 2 EnMin= -370.770889752005     IErMin= 2 ErrMin= 3.86D-02
 ErrMax= 3.86D-02  0.00D+00 EMaxC= 1.00D-01 BMatC= 7.19D-02 BMatP= 3.70D-01
 IDIUse=3 WtCom= 6.14D-01 WtEn= 3.86D-01
 Coeff-Com:  0.270D+00 0.730D+00
 Coeff-En:   0.000D+00 0.100D+01
 Coeff:      0.166D+00 0.834D+00
 Gap=     0.270 Goal=   None    Shift=    0.000
 RMSDP=1.65D-03 MaxDP=7.38D-02 DE=-1.16D-01 OVMax= 7.83D-02

 Cycle   3  Pass 1  IDiag  1:
 E= -370.808251378143     Delta-E=       -0.037361626138 Rises=F Damp=F
 DIIS: error= 1.55D-02 at cycle   3 NSaved=   3.
 NSaved= 3 IEnMin= 3 EnMin= -370.808251378143     IErMin= 3 ErrMin= 1.55D-02
 ErrMax= 1.55D-02  0.00D+00 EMaxC= 1.00D-01 BMatC= 1.19D-02 BMatP= 7.19D-02
 IDIUse=3 WtCom= 8.45D-01 WtEn= 1.55D-01
 Coeff-Com: -0.282D-02 0.283D+00 0.720D+00
 Coeff-En:   0.000D+00 0.000D+00 0.100D+01
 Coeff:     -0.238D-02 0.239D+00 0.764D+00
 Gap=     0.275 Goal=   None    Shift=    0.000
 RMSDP=4.03D-04 MaxDP=2.05D-02 DE=-3.74D-02 OVMax= 2.38D-02

 Cycle   4  Pass 1  IDiag  1:
 E= -370.815445176939     Delta-E=       -0.007193798796 Rises=F Damp=F
 DIIS: error= 2.23D-03 at cycle   4 NSaved=   4.
 NSaved= 4 IEnMin= 4 EnMin= -370.815445176939     IErMin= 4 ErrMin= 2.23D-03
 ErrMax= 2.23D-03  0.00D+00 EMaxC= 1.00D-01 BMatC= 1.93D-04 BMatP= 1.19D-02
 IDIUse=3 WtCom= 9.78D-01 WtEn= 2.23D-02
 Coeff-Com: -0.783D-02-0.883D-02 0.109D+00 0.907D+00
 Coeff-En:   0.000D+00 0.000D+00 0.000D+00 0.100D+01
 Coeff:     -0.765D-02-0.864D-02 0.107D+00 0.910D+00
 Gap=     0.276 Goal=   None    Shift=    0.000
 RMSDP=9.57D-05 MaxDP=5.24D-03 DE=-7.19D-03 OVMax= 4.13D-03

 Cycle   5  Pass 1  IDiag  1:
 E= -370.815591307489     Delta-E=       -0.000146130550 Rises=F Damp=F
 DIIS: error= 1.54D-04 at cycle   5 NSaved=   5.
 NSaved= 5 IEnMin= 5 EnMin= -370.815591307489     IErMin= 5 ErrMin= 1.54D-04
 ErrMax= 1.54D-04  0.00D+00 EMaxC= 1.00D-01 BMatC= 4.89D-06 BMatP= 1.93D-04
 IDIUse=3 WtCom= 9.98D-01 WtEn= 1.54D-03
 Coeff-Com:  0.135D-02-0.175D-01-0.474D-01 0.224D-01 0.104D+01
 Coeff-En:   0.000D+00 0.000D+00 0.000D+00 0.000D+00 0.100D+01
 Coeff:      0.135D-02-0.175D-01-0.473D-01 0.224D-01 0.104D+01
 Gap=     0.275 Goal=   None    Shift=    0.000
 RMSDP=4.22D-05 MaxDP=1.51D-03 DE=-1.46D-04 OVMax= 1.45D-03

 Cycle   6  Pass 1  IDiag  1:
 E= -370.815601296566     Delta-E=       -0.000009989077 Rises=F Damp=F
 DIIS: error= 1.03D-04 at cycle   6 NSaved=   6.
 NSaved= 6 IEnMin= 6 EnMin= -370.815601296566     IErMin= 6 ErrMin= 1.03D-04
 ErrMax= 1.03D-04  0.00D+00 EMaxC= 1.00D-01 BMatC= 4.20D-07 BMatP= 4.89D-06
 IDIUse=3 WtCom= 9.99D-01 WtEn= 1.03D-03
 Coeff-Com:  0.133D-03 0.571D-02 0.310D-02-0.103D+00-0.201D+00 0.129D+01
 Coeff-En:   0.000D+00 0.000D+00 0.000D+00 0.000D+00 0.000D+00 0.100D+01
 Coeff:      0.133D-03 0.570D-02 0.309D-02-0.102D+00-0.200D+00 0.129D+01
 Gap=     0.275 Goal=   None    Shift=    0.000
 RMSDP=1.30D-05 MaxDP=8.67D-04 DE=-9.99D-06 OVMax= 8.05D-04

 Cycle   7  Pass 1  IDiag  1:
 E= -370.815602635417     Delta-E=       -0.000001338851 Rises=F Damp=F
 DIIS: error= 1.27D-05 at cycle   7 NSaved=   7.
 NSaved= 7 IEnMin= 7 EnMin= -370.815602635417     IErMin= 7 ErrMin= 1.27D-05
 ErrMax= 1.27D-05  0.00D+00 EMaxC= 1.00D-01 BMatC= 1.49D-08 BMatP= 4.20D-07
 IDIUse=1 WtCom= 1.00D+00 WtEn= 0.00D+00
 Coeff-Com: -0.805D-04-0.681D-03 0.119D-02 0.281D-01-0.350D-02-0.327D+00
 Coeff-Com:  0.130D+01
 Coeff:     -0.805D-04-0.681D-03 0.119D-02 0.281D-01-0.350D-02-0.327D+00
 Coeff:      0.130D+01
 Gap=     0.275 Goal=   None    Shift=    0.000
 RMSDP=2.65D-06 MaxDP=1.22D-04 DE=-1.34D-06 OVMax= 1.41D-04

 Cycle   8  Pass 1  IDiag  1:
 E= -370.815602683904     Delta-E=       -0.000000048487 Rises=F Damp=F
 DIIS: error= 3.82D-06 at cycle   8 NSaved=   8.
 NSaved= 8 IEnMin= 8 EnMin= -370.815602683904     IErMin= 8 ErrMin= 3.82D-06
 ErrMax= 3.82D-06  0.00D+00 EMaxC= 1.00D-01 BMatC= 4.85D-10 BMatP= 1.49D-08
 IDIUse=1 WtCom= 1.00D+00 WtEn= 0.00D+00
 Coeff-Com:  0.177D-05-0.145D-03-0.148D-03 0.126D-02 0.684D-02-0.179D-01
 Coeff-Com: -0.116D+00 0.113D+01
 Coeff:      0.177D-05-0.145D-03-0.148D-03 0.126D-02 0.684D-02-0.179D-01
 Coeff:     -0.116D+00 0.113D+01
 Gap=     0.275 Goal=   None    Shift=    0.000
 RMSDP=4.46D-07 MaxDP=1.61D-05 DE=-4.85D-08 OVMax= 1.76D-05

 Cycle   9  Pass 1  IDiag  1:
 E= -370.815602685251     Delta-E=       -0.000000001347 Rises=F Damp=F
 DIIS: error= 6.84D-07 at cycle   9 NSaved=   9.
 NSaved= 9 IEnMin= 9 EnMin= -370.815602685251     IErMin= 9 ErrMin= 6.84D-07
 ErrMax= 6.84D-07  0.00D+00 EMaxC= 1.00D-01 BMatC= 3.56D-11 BMatP= 4.85D-10
 IDIUse=1 WtCom= 1.00D+00 WtEn= 0.00D+00
 Coeff-Com:  0.562D-05 0.545D-04-0.793D-04-0.201D-02-0.973D-04 0.227D-01
 Coeff-Com: -0.696D-01-0.147D+00 0.120D+01
 Coeff:      0.562D-05 0.545D-04-0.793D-04-0.201D-02-0.973D-04 0.227D-01
 Coeff:     -0.696D-01-0.147D+00 0.120D+01
 Gap=     0.275 Goal=   None    Shift=    0.000
 RMSDP=1.04D-07 MaxDP=3.05D-06 DE=-1.35D-09 OVMax= 5.92D-06

 Cycle  10  Pass 1  IDiag  1:
 E= -370.815602685359     Delta-E=       -0.000000000109 Rises=F Damp=F
 DIIS: error= 1.28D-07 at cycle  10 NSaved=  10.
 NSaved=10 IEnMin=10 EnMin= -370.815602685359     IErMin=10 ErrMin= 1.28D-07
 ErrMax= 1.28D-07  0.00D+00 EMaxC= 1.00D-01 BMatC= 2.50D-12 BMatP= 3.56D-11
 IDIUse=1 WtCom= 1.00D+00 WtEn= 0.00D+00
 Coeff-Com: -0.459D-06 0.100D-04 0.954D-05-0.759D-04-0.456D-03 0.132D-02
 Coeff-Com:  0.621D-02-0.636D-01-0.110D-01 0.107D+01
 Coeff:     -0.459D-06 0.100D-04 0.954D-05-0.759D-04-0.456D-03 0.132D-02
 Coeff:      0.621D-02-0.636D-01-0.110D-01 0.107D+01
 Gap=     0.275 Goal=   None    Shift=    0.000
 RMSDP=3.20D-08 MaxDP=1.72D-06 DE=-1.09D-10 OVMax= 1.20D-06

 Cycle  11  Pass 1  IDiag  1:
 E= -370.815602685364     Delta-E=       -0.000000000005 Rises=F Damp=F
 DIIS: error= 3.20D-08 at cycle  11 NSaved=  11.
 NSaved=11 IEnMin=11 EnMin= -370.815602685364     IErMin=11 ErrMin= 3.20D-08
 ErrMax= 3.20D-08  0.00D+00 EMaxC= 1.00D-01 BMatC= 1.75D-13 BMatP= 2.50D-12
 IDIUse=1 WtCom= 1.00D+00 WtEn= 0.00D+00
 Coeff-Com: -0.459D-06-0.375D-05 0.726D-05 0.157D-03-0.240D-04-0.165D-02
 Coeff-Com:  0.513D-02 0.119D-01-0.104D+00 0.319D-01 0.106D+01
 Coeff:     -0.459D-06-0.375D-05 0.726D-05 0.157D-03-0.240D-04-0.165D-02
 Coeff:      0.513D-02 0.119D-01-0.104D+00 0.319D-01 0.106D+01
 Gap=     0.275 Goal=   None    Shift=    0.000
 RMSDP=1.32D-08 MaxDP=8.42D-07 DE=-4.72D-12 OVMax= 5.39D-07

 Cycle  12  Pass 1  IDiag  1:
 E= -370.815602685366     Delta-E=       -0.000000000002 Rises=F Damp=F
 DIIS: error= 1.11D-08 at cycle  12 NSaved=  12.
 NSaved=12 IEnMin=12 EnMin= -370.815602685366     IErMin=12 ErrMin= 1.11D-08
 ErrMax= 1.11D-08  0.00D+00 EMaxC= 1.00D-01 BMatC= 7.94D-15 BMatP= 1.75D-13
 IDIUse=1 WtCom= 1.00D+00 WtEn= 0.00D+00
 Coeff-Com:  0.121D-06 0.351D-06-0.145D-05-0.295D-04 0.220D-04 0.275D-03
 Coeff-Com: -0.137D-02 0.163D-02 0.194D-01-0.660D-01-0.174D+00 0.122D+01
 Coeff:      0.121D-06 0.351D-06-0.145D-05-0.295D-04 0.220D-04 0.275D-03
 Coeff:     -0.137D-02 0.163D-02 0.194D-01-0.660D-01-0.174D+00 0.122D+01
 Gap=     0.275 Goal=   None    Shift=    0.000
 RMSDP=3.42D-09 MaxDP=2.21D-07 DE=-2.27D-12 OVMax= 1.10D-07

 SCF Done:  E(RHF) =  -370.815602685     A.U. after   12 cycles
            NFock= 12  Conv=0.34D-08     -V/T= 2.9850
 KE= 1.868116667757D+02 PE=-9.094145358379D+02 EE= 3.039013039316D+02
 Leave Link  502 at Tue Oct 12 16:22:28 2021, MaxMem=  1048576000 cpu:        19.5
 (Enter /usr/local/gaussian/g09/l801.exe)
 ExpMin= 2.53D-02 ExpMax= 1.53D+04 ExpMxC= 5.22D+02 IAcc=3 IRadAn=         5 AccDes= 0.00D+00
 HarFok:  IExCor=  205 AccDes= 0.00D+00 IRadAn=         5 IDoV=-2 UseB2=F ITyADJ=14
 ICtDFT= 12500011 ScaDFX=  1.000000  1.000000  1.000000  1.000000
 Defaulting to unpruned grid for atomic number  53.
 Defaulting to unpruned grid for atomic number  53.
 Defaulting to unpruned grid for atomic number  53.
 Defaulting to unpruned grid for atomic number  53.
 Defaulting to unpruned grid for atomic number  53.
 Defaulting to unpruned grid for atomic number  53.
 Defaulting to unpruned grid for atomic number  53.
 Defaulting to unpruned grid for atomic number  53.
 Defaulting to unpruned grid for atomic number  53.
 Defaulting to unpruned grid for atomic number  53.
 Defaulting to unpruned grid for atomic number  53.
 Defaulting to unpruned grid for atomic number  53.
 Largest valence mixing into a core orbital is  1.29D-04
 Largest core mixing into a valence orbital is  2.16D-05
 Range of M.O.s used for correlation:     6   147
 NBasis=   191 NAE=    18 NBE=    18 NFC=     5 NFV=     0
 NROrb=    142 NOA=    13 NOB=    13 NVA=   129 NVB=   129

 **** Warning!!: The largest alpha MO coefficient is  0.11173885D+02

 Leave Link  801 at Tue Oct 12 16:22:28 2021, MaxMem=  1048576000 cpu:         0.8
 (Enter /usr/local/gaussian/g09/l906.exe)
 Frozen-core derivative calculation, NFC=   5 NFV=   0.
 FulOut=F Deriv=T AODrv=F NAtomX=     4
   MMem=         196  MDisk=          13 MDiskD=          13
  W3Min=      576828 MinDsk=     1313419 NBas6D=         218
 NBas2D=       24339    NTT=       23871    LW2=    26219120
    MDV=  1048236794 MDiskM=       23996 NBas2p=       24339
 Fully in-core method, ICMem=   672878533.
 IMap=   1   2   3   4   5   6   7   8   9  10  11  12  13  14  15  16  17  18
 JobTyp=1 Pass  1 fully in-core, NPsUse= 12.
 Compute canonical integrals.
 FoFCou: FMM=F IPFlag=           0 FMFlag=           0 FMFlg1=           0
         NFxFlg=           0 DoJE=F BraDBF=F KetDBF=F FulRan=T
         wScrn=  0.000000 ICntrl=     600 IOpCl=  1 I1Cent=           0 NGrid=           0
         NMat0=    1 NMatS0=  24339 NMatT0=    0 NMatD0=    1 NMtDS0=    0 NMtDT0=    0
 Symmetry not used in FoFCou.
 Spin components of T(2) and E(2):
     alpha-alpha T2 =       0.2173055478D-01 E2=     -0.6756605697D-01
     alpha-beta  T2 =       0.1136610615D+00 E2=     -0.3628148912D+00
     beta-beta   T2 =       0.2173055478D-01 E2=     -0.6756605697D-01
 The integrals were generated   1 times.
 ANorm=    0.1075696133D+01
 E2 =    -0.4979470051D+00 EUMP2 =    -0.37131354969050D+03
 Leave Link  906 at Tue Oct 12 16:22:36 2021, MaxMem=  1048576000 cpu:       101.5
 (Enter /usr/local/gaussian/g09/l1002.exe)
 Minotr:  Closed shell wavefunction.
          Computing MP2/KS-MP2 derivatives.
          Using Z-Vector for PSCF gradient.
          Skipping F1 and S1 gradient terms here.
          Frozen-core window.
          Direct CPHF calculation.
          Differentiating once with respect to electric field.
                with respect to dipole field.
          Electric field/nuclear overlap derivatives assumed to be zero.
          Requested convergence is 1.0D-10 RMS, and 1.0D-09 maximum.
          NewPWx=F KeepS1=T KeepF1=T KeepIn=T MapXYZ=F SortEE=F KeepMc=T.
          MDV=    1048575822 using IRadAn=       0.
 Keep R1 ints in memory in canonical form, NReq=176526549.
 FoFCou: FMM=F IPFlag=           0 FMFlag=           0 FMFlg1=           0
         NFxFlg=           0 DoJE=F BraDBF=F KetDBF=F FulRan=T
         wScrn=  0.000000 ICntrl=     600 IOpCl=  0 I1Cent=           0 NGrid=           0
         NMat0=    1 NMatS0=  18336 NMatT0=    0 NMatD0=    1 NMtDS0=    0 NMtDT0=    0
 Symmetry not used in FoFCou.
          Solving linear equations separately, MaxMat=       0.
          There are     1 degrees of freedom in the 1st order CPHF.  IDoFFX=0 NUNeed=     1.
 LinEq1:  Iter=  0 NonCon=     1 RMS=2.69D-03 Max=4.83D-02 NDo=     1
 AX will form     1 AO Fock derivatives at one time.
 LinEq1:  Iter=  1 NonCon=     1 RMS=4.35D-04 Max=5.43D-03 NDo=     1
 LinEq1:  Iter=  2 NonCon=     1 RMS=1.92D-04 Max=2.73D-03 NDo=     1
 LinEq1:  Iter=  3 NonCon=     1 RMS=4.55D-05 Max=7.25D-04 NDo=     1
 LinEq1:  Iter=  4 NonCon=     1 RMS=1.31D-05 Max=1.38D-04 NDo=     1
 LinEq1:  Iter=  5 NonCon=     1 RMS=3.53D-06 Max=4.60D-05 NDo=     1
 LinEq1:  Iter=  6 NonCon=     1 RMS=7.61D-07 Max=1.22D-05 NDo=     1
 LinEq1:  Iter=  7 NonCon=     1 RMS=1.68D-07 Max=2.44D-06 NDo=     1
 LinEq1:  Iter=  8 NonCon=     1 RMS=4.69D-08 Max=6.14D-07 NDo=     1
 LinEq1:  Iter=  9 NonCon=     1 RMS=9.25D-09 Max=1.50D-07 NDo=     1
 LinEq1:  Iter= 10 NonCon=     1 RMS=1.50D-09 Max=2.00D-08 NDo=     1
 LinEq1:  Iter= 11 NonCon=     1 RMS=2.66D-10 Max=4.37D-09 NDo=     1
 LinEq1:  Iter= 12 NonCon=     1 RMS=7.50D-11 Max=1.25D-09 NDo=     1
 LinEq1:  Iter= 13 NonCon=     0 RMS=1.48D-11 Max=1.68D-10 NDo=     1
 Linear equations converged to 1.000D-10 1.000D-09 after    13 iterations.
 End of Minotr F.D. properties file   721 does not exist.
 End of Minotr F.D. properties file   722 does not exist.
 End of Minotr F.D. properties file   788 does not exist.
 Leave Link 1002 at Tue Oct 12 16:22:41 2021, MaxMem=  1048576000 cpu:        18.7
 (Enter /usr/local/gaussian/g09/l601.exe)
 Copying SCF densities to generalized density rwf, IOpCl= 0 IROHF=0.

 **********************************************************************

            Population analysis using the MP2 density.

 **********************************************************************

 Alpha  occ. eigenvalues --  -20.40274  -7.46757  -5.29314  -5.29285  -5.29281
 Alpha  occ. eigenvalues --   -2.02060  -2.02043  -2.02037  -2.02007  -2.02007
 Alpha  occ. eigenvalues --   -1.17944  -0.62940  -0.53573  -0.42580  -0.34515
 Alpha  occ. eigenvalues --   -0.14848  -0.14293  -0.14256
 Alpha virt. eigenvalues --    0.13245   0.16989   0.23325   0.24543   0.25226
 Alpha virt. eigenvalues --    0.27013   0.28858   0.29263   0.31258   0.33676
 Alpha virt. eigenvalues --    0.36668   0.37197   0.37576   0.39558   0.40942
 Alpha virt. eigenvalues --    0.42054   0.44445   0.47595   0.53936   0.54318
 Alpha virt. eigenvalues --    0.57072   0.59786   0.66826   0.71535   0.77754
 Alpha virt. eigenvalues --    0.77809   0.78526   0.79747   0.79971   0.80018
 Alpha virt. eigenvalues --    0.82781   0.84124   0.85364   0.85762   0.86605
 Alpha virt. eigenvalues --    0.87709   0.88366   0.88873   0.89942   0.90522
 Alpha virt. eigenvalues --    0.93224   0.97190   1.00869   1.05834   1.06907
 Alpha virt. eigenvalues --    1.09481   1.10595   1.12251   1.14500   1.15965
 Alpha virt. eigenvalues --    1.16508   1.19037   1.32558   1.36306   1.38205
 Alpha virt. eigenvalues --    1.42297   1.48514   1.52426   1.55042   1.67694
 Alpha virt. eigenvalues --    1.72649   1.73337   1.75125   1.75197   1.76864
 Alpha virt. eigenvalues --    1.77839   1.81189   1.85085   1.88640   1.89335
 Alpha virt. eigenvalues --    2.03368   2.04393   2.05564   2.07317   2.10647
 Alpha virt. eigenvalues --    2.10694   2.15302   2.29859   2.44207   2.52552
 Alpha virt. eigenvalues --    2.56010   2.60416   2.60915   2.63867   2.64801
 Alpha virt. eigenvalues --    2.82054   2.89197   2.89250   2.97453   3.01829
 Alpha virt. eigenvalues --    3.06795   3.26669   3.28237   3.76073   3.87120
 Alpha virt. eigenvalues --    4.19961   4.24909   4.31414   4.31764   4.42689
 Alpha virt. eigenvalues --    4.42973   4.53947   4.56856   4.59291   4.74060
 Alpha virt. eigenvalues --    4.93959   5.11364   5.25611   5.32825   5.44605
 Alpha virt. eigenvalues --    5.48655   5.64367   5.79681   6.36224   6.69325
 Alpha virt. eigenvalues --    6.87915   7.07982   7.26349   7.41268   7.42672
 Alpha virt. eigenvalues --    7.45408   7.53152   7.57510   7.79959   8.04253
 Alpha virt. eigenvalues --    8.09534   8.90375  15.92793  59.22128
          Condensed to atoms (all electrons):
               1          2          3          4
     1  O    8.285995   0.211085  -0.058237   0.093906
     2  H    0.211085   0.601019   0.006665   0.012396
     3  I   -0.058237   0.006665  25.921967   0.036659
     4  H    0.093906   0.012396   0.036659   0.586071
 Mulliken charges:
               1
     1  O   -0.532748
     2  H    0.168836
     3  I   -0.907055
     4  H    0.270967
 Sum of Mulliken charges =  -1.00000
 Mulliken charges with hydrogens summed into heavy atoms:
               1
     1  O   -0.092945
     3  I   -0.907055
 Electronic spatial extent (au):  <R**2>=           1235.7458
 Charge=             -1.0000 electrons
 Dipole moment (field-independent basis, Debye):
    X=              4.1353    Y=             13.5808    Z=             -0.0000  Tot=             14.1965
 Quadrupole moment (field-independent basis, Debye-Ang):
   XX=            -41.3708   YY=            -91.4875   ZZ=            -41.8860
   XY=             -9.8532   XZ=              0.0000   YZ=              0.0000
 Traceless Quadrupole moment (field-independent basis, Debye-Ang):
   XX=             16.8773   YY=            -33.2394   ZZ=             16.3621
   XY=             -9.8532   XZ=              0.0000   YZ=              0.0000
 Octapole moment (field-independent basis, Debye-Ang**2):
  XXX=             74.2293  YYY=            522.5626  ZZZ=             -0.0000  XYY=             58.7116
  XXY=            123.5344  XXZ=              0.0000  XZZ=             23.6061  YZZ=            116.3302
  YYZ=             -0.0000  XYZ=             -0.0000
 Hexadecapole moment (field-independent basis, Debye-Ang**3):
 XXXX=           -180.2016 YYYY=          -3048.5117 ZZZZ=            -76.2596 XXXY=           -253.7653
 XXXZ=             -0.0000 YYYX=           -367.3760 YYYZ=              0.0000 ZZZX=              0.0000
 ZZZY=              0.0000 XXYY=           -464.9486 XXZZ=            -42.9434 YYZZ=           -423.3490
 XXYZ=              0.0000 YYXZ=              0.0000 ZZXY=            -82.9780
 N-N= 4.788596244518D+01 E-N=-9.088490288758D+02  KE= 1.870043946705D+02
 No NMR shielding tensors so no spin-rotation constants.
 Leave Link  601 at Tue Oct 12 16:22:41 2021, MaxMem=  1048576000 cpu:         2.2
 (Enter /usr/local/gaussian/g09/l607.exe)
 ******************************Gaussian NBO Version 3.1******************************
             N A T U R A L   A T O M I C   O R B I T A L   A N D
          N A T U R A L   B O N D   O R B I T A L   A N A L Y S I S
 ******************************Gaussian NBO Version 3.1******************************
       /RESON  / : Allow strongly delocalized NBO set

 Analyzing the MP2 density

 Job title: title                                                           

 Storage needed:    110417 in NPA,    146568 in NBO (1048575896 available)


 NATURAL POPULATIONS:  Natural atomic orbital occupancies 
                                                          
   NAO  Atom  No  lang   Type(AO)    Occupancy
 --------------------------------------------
     1    O    1  S      Cor( 1S)     1.99992
     2    O    1  S      Val( 2S)     1.89002
     3    O    1  S      Ryd( 3S)     0.00635
     4    O    1  S      Ryd( 4S)     0.00038
     5    O    1  S      Ryd( 5S)     0.00016
     6    O    1  px     Val( 2p)     1.67381
     7    O    1  px     Ryd( 3p)     0.01238
     8    O    1  px     Ryd( 4p)     0.00060
     9    O    1  px     Ryd( 5p)     0.00008
    10    O    1  py     Val( 2p)     1.75831
    11    O    1  py     Ryd( 3p)     0.01307
    12    O    1  py     Ryd( 4p)     0.00063
    13    O    1  py     Ryd( 5p)     0.00029
    14    O    1  pz     Val( 2p)     1.95433
    15    O    1  pz     Ryd( 3p)     0.02081
    16    O    1  pz     Ryd( 4p)     0.00054
    17    O    1  pz     Ryd( 5p)     0.00000
    18    O    1  dxy    Ryd( 3d)     0.00866
    19    O    1  dxy    Ryd( 4d)     0.00048
    20    O    1  dxy    Ryd( 5d)     0.00013
    21    O    1  dxz    Ryd( 3d)     0.00963
    22    O    1  dxz    Ryd( 4d)     0.00095
    23    O    1  dxz    Ryd( 5d)     0.00012
    24    O    1  dyz    Ryd( 3d)     0.00755
    25    O    1  dyz    Ryd( 4d)     0.00046
    26    O    1  dyz    Ryd( 5d)     0.00017
    27    O    1  dx2y2  Ryd( 3d)     0.01029
    28    O    1  dx2y2  Ryd( 4d)     0.00073
    29    O    1  dx2y2  Ryd( 5d)     0.00026
    30    O    1  dz2    Ryd( 3d)     0.00803
    31    O    1  dz2    Ryd( 4d)     0.00071
    32    O    1  dz2    Ryd( 5d)     0.00018
    33    O    1  f(0)   Ryd( 4f)     0.00088
    34    O    1  f(0)   Ryd( 5f)     0.00015
    35    O    1  f(C1)  Ryd( 4f)     0.00057
    36    O    1  f(C1)  Ryd( 5f)     0.00010
    37    O    1  f(S1)  Ryd( 4f)     0.00061
    38    O    1  f(S1)  Ryd( 5f)     0.00010
    39    O    1  f(C2)  Ryd( 4f)     0.00055
    40    O    1  f(C2)  Ryd( 5f)     0.00012
    41    O    1  f(S2)  Ryd( 4f)     0.00046
    42    O    1  f(S2)  Ryd( 5f)     0.00008
    43    O    1  f(C3)  Ryd( 4f)     0.00040
    44    O    1  f(C3)  Ryd( 5f)     0.00013
    45    O    1  f(S3)  Ryd( 4f)     0.00048
    46    O    1  f(S3)  Ryd( 5f)     0.00012

    47    H    2  S      Val( 1S)     0.32952
    48    H    2  S      Ryd( 2S)     0.00057
    49    H    2  S      Ryd( 3S)     0.00024
    50    H    2  S      Ryd( 4S)     0.00006
    51    H    2  px     Ryd( 2p)     0.00086
    52    H    2  px     Ryd( 3p)     0.00070
    53    H    2  px     Ryd( 4p)     0.00006
    54    H    2  py     Ryd( 2p)     0.00048
    55    H    2  py     Ryd( 3p)     0.00022
    56    H    2  py     Ryd( 4p)     0.00008
    57    H    2  pz     Ryd( 2p)     0.00131
    58    H    2  pz     Ryd( 3p)     0.00016
    59    H    2  pz     Ryd( 4p)     0.00005
    60    H    2  dxy    Ryd( 3d)     0.00008
    61    H    2  dxy    Ryd( 4d)     0.00007
    62    H    2  dxz    Ryd( 3d)     0.00033
    63    H    2  dxz    Ryd( 4d)     0.00007
    64    H    2  dyz    Ryd( 3d)     0.00010
    65    H    2  dyz    Ryd( 4d)     0.00006
    66    H    2  dx2y2  Ryd( 3d)     0.00023
    67    H    2  dx2y2  Ryd( 4d)     0.00007
    68    H    2  dz2    Ryd( 3d)     0.00019
    69    H    2  dz2    Ryd( 4d)     0.00007

    70    I    3  S      Cor( 4S)     2.00003
    71    I    3  S      Val( 5S)     1.97991
    72    I    3  S      Ryd( 6S)     0.00305
    73    I    3  S      Ryd( 7S)     0.00058
    74    I    3  S      Ryd( 8S)     0.00008
    75    I    3  S      Ryd( 9S)     0.00000
    76    I    3  px     Cor( 4p)     2.00007
    77    I    3  px     Val( 5p)     1.95051
    78    I    3  px     Ryd( 6p)     0.01096
    79    I    3  px     Ryd( 7p)     0.00074
    80    I    3  px     Ryd( 8p)     0.00008
    81    I    3  py     Cor( 4p)     2.00004
    82    I    3  py     Val( 5p)     1.93402
    83    I    3  py     Ryd( 6p)     0.01008
    84    I    3  py     Ryd( 7p)     0.00067
    85    I    3  py     Ryd( 8p)     0.00017
    86    I    3  pz     Cor( 4p)     2.00007
    87    I    3  pz     Val( 5p)     1.95161
    88    I    3  pz     Ryd( 6p)     0.01096
    89    I    3  pz     Ryd( 7p)     0.00074
    90    I    3  pz     Ryd( 8p)     0.00008
    91    I    3  dxy    Cor( 4d)     1.99674
    92    I    3  dxy    Ryd( 5d)     0.02039
    93    I    3  dxy    Ryd( 6d)     0.00142
    94    I    3  dxy    Ryd( 7d)     0.00018
    95    I    3  dxz    Cor( 4d)     1.99678
    96    I    3  dxz    Ryd( 5d)     0.02015
    97    I    3  dxz    Ryd( 6d)     0.00166
    98    I    3  dxz    Ryd( 7d)     0.00016
    99    I    3  dyz    Cor( 4d)     1.99676
   100    I    3  dyz    Ryd( 5d)     0.02025
   101    I    3  dyz    Ryd( 6d)     0.00140
   102    I    3  dyz    Ryd( 7d)     0.00017
   103    I    3  dx2y2  Cor( 4d)     1.99672
   104    I    3  dx2y2  Ryd( 5d)     0.02050
   105    I    3  dx2y2  Ryd( 6d)     0.00157
   106    I    3  dx2y2  Ryd( 7d)     0.00020
   107    I    3  dz2    Cor( 4d)     1.99676
   108    I    3  dz2    Ryd( 5d)     0.02032
   109    I    3  dz2    Ryd( 6d)     0.00164
   110    I    3  dz2    Ryd( 7d)     0.00017
   111    I    3  f(0)   Ryd( 4f)     0.00273
   112    I    3  f(0)   Ryd( 5f)     0.00043
   113    I    3  f(C1)  Ryd( 4f)     0.00276
   114    I    3  f(C1)  Ryd( 5f)     0.00043
   115    I    3  f(S1)  Ryd( 4f)     0.00277
   116    I    3  f(S1)  Ryd( 5f)     0.00047
   117    I    3  f(C2)  Ryd( 4f)     0.00271
   118    I    3  f(C2)  Ryd( 5f)     0.00043
   119    I    3  f(S2)  Ryd( 4f)     0.00277
   120    I    3  f(S2)  Ryd( 5f)     0.00044
   121    I    3  f(C3)  Ryd( 4f)     0.00269
   122    I    3  f(C3)  Ryd( 5f)     0.00045
   123    I    3  f(S3)  Ryd( 4f)     0.00274
   124    I    3  f(S3)  Ryd( 5f)     0.00047

   125    H    4  S      Val( 1S)     0.28565
   126    H    4  S      Ryd( 2S)     0.00612
   127    H    4  S      Ryd( 3S)     0.00063
   128    H    4  S      Ryd( 4S)     0.00015
   129    H    4  px     Ryd( 2p)     0.00399
   130    H    4  px     Ryd( 3p)     0.00041
   131    H    4  px     Ryd( 4p)     0.00014
   132    H    4  py     Ryd( 2p)     0.00449
   133    H    4  py     Ryd( 3p)     0.00062
   134    H    4  py     Ryd( 4p)     0.00028
   135    H    4  pz     Ryd( 2p)     0.00428
   136    H    4  pz     Ryd( 3p)     0.00045
   137    H    4  pz     Ryd( 4p)     0.00011
   138    H    4  dxy    Ryd( 3d)     0.00025
   139    H    4  dxy    Ryd( 4d)     0.00010
   140    H    4  dxz    Ryd( 3d)     0.00017
   141    H    4  dxz    Ryd( 4d)     0.00006
   142    H    4  dyz    Ryd( 3d)     0.00025
   143    H    4  dyz    Ryd( 4d)     0.00009
   144    H    4  dx2y2  Ryd( 3d)     0.00024
   145    H    4  dx2y2  Ryd( 4d)     0.00009
   146    H    4  dz2    Ryd( 3d)     0.00027
   147    H    4  dz2    Ryd( 4d)     0.00007

 [ 28 electrons found in the effective core potential]

 WARNING:  5 low occupancy (<1.9990e) core orbitals found on  I    3


 Summary of Natural Population Analysis:                  
                                                          
                                       Natural Population 
                Natural  -----------------------------------------------
    Atom  No    Charge         Core      Valence    Rydberg      Total
 -----------------------------------------------------------------------
      O    1   -1.38477      1.99992     7.27648    0.10837     9.38477
      H    2    0.66441      0.00000     0.32952    0.00607     0.33559
      I    3   -0.97072     45.98396     7.81606    0.17070    53.97072
      H    4    0.69108      0.00000     0.28565    0.02327     0.30892
 =======================================================================
   * Total *   -1.00001     47.98388    15.70770    0.30842    64.00001

                                 Natural Population      
 --------------------------------------------------------
   Effective Core            28.00000
   Core                      19.98388 ( 99.9194% of  20)
   Valence                   15.70770 ( 98.1731% of  16)
   Natural Minimal Basis     63.69159 ( 99.5181% of  64)
   Natural Rydberg Basis      0.30842 (  0.4819% of  64)
 --------------------------------------------------------

    Atom  No          Natural Electron Configuration
 ----------------------------------------------------------------------------
      O    1      [core]2S( 1.89)2p( 5.39)3S( 0.01)3p( 0.05)3d( 0.04)
      H    2            1S( 0.33)
      I    3      [core]5S( 1.98)5p( 5.84)4f( 0.02)5d( 0.10)6p( 0.03)6d( 0.01)
      H    4            1S( 0.29)2S( 0.01)2p( 0.01)


 NATURAL BOND ORBITAL ANALYSIS:
 Warning:  a bond orbital has occupanc of -0.00010

                       Occupancies       Lewis Structure    Low   High
           Occ.    -------------------  -----------------   occ   occ
  Cycle   Thresh.   Lewis   Non-Lewis     CR  BD  3C  LP    (L)   (NL)   Dev
 =============================================================================
   1(1)    1.90    63.66274   0.33726     10   2   0   6     0      0    0.03
 -----------------------------------------------------------------------------

 Structure accepted: No low occupancy Lewis orbitals

 WARNING:  5 low occupancy (<1.9990e) core orbitals found on  I    3

 --------------------------------------------------------
   Effective Core           28.00000
   Core                     19.98388 ( 99.919% of  20)
   Valence Lewis            15.67886 ( 97.993% of  16)
  ==================       ============================
   Total Lewis              63.66274 ( 99.473% of  64)
  -----------------------------------------------------
   Valence non-Lewis         0.05454 (  0.085% of  64)
   Rydberg non-Lewis         0.28272 (  0.442% of  64)
  ==================       ============================
   Total non-Lewis           0.33726 (  0.527% of  64)
 --------------------------------------------------------


       (Occupancy)   Bond orbital/ Coefficients/ Hybrids
 ---------------------------------------------------------------------------------
     1. (1.96406) BD ( 1) O   1 - H   2  
                ( 84.02%)   0.9166* O   1 s( 15.17%)p 5.57( 84.46%)d 0.02(  0.36%)
                                                  f 0.00(  0.01%)
                                            0.0001  0.3894  0.0004  0.0012 -0.0036
                                            0.9187 -0.0187  0.0052 -0.0019 -0.0062
                                           -0.0101  0.0002 -0.0028  0.0000  0.0000
                                            0.0000  0.0000 -0.0229  0.0033  0.0014
                                            0.0000  0.0000  0.0000  0.0000  0.0000
                                            0.0000  0.0454 -0.0080  0.0050 -0.0304
                                            0.0029 -0.0018  0.0000  0.0000 -0.0097
                                            0.0011  0.0001 -0.0002  0.0000  0.0000
                                            0.0000  0.0000  0.0025  0.0022  0.0014
                                           -0.0002
                ( 15.98%)   0.3998* H   2 s( 99.76%)p 0.00(  0.19%)d 0.00(  0.04%)
                                            0.9988 -0.0019  0.0001  0.0000  0.0071
                                            0.0431 -0.0023 -0.0015 -0.0008 -0.0011
                                            0.0000  0.0000  0.0000  0.0010 -0.0029
                                            0.0000  0.0000  0.0000  0.0000  0.0159
                                           -0.0033 -0.0126  0.0013
     2. (1.96367) BD ( 1) O   1 - H   4  
                ( 86.99%)   0.9327* O   1 s( 16.94%)p 4.88( 82.71%)d 0.02(  0.34%)
                                                  f 0.00(  0.01%)
                                           -0.0001 -0.4115  0.0053  0.0034  0.0009
                                            0.1788 -0.0111 -0.0007 -0.0005  0.8915
                                           -0.0155  0.0074 -0.0055  0.0000  0.0000
                                            0.0000  0.0000  0.0109 -0.0051  0.0004
                                            0.0000  0.0000  0.0000  0.0000  0.0000
                                            0.0000  0.0479 -0.0066  0.0015  0.0300
                                           -0.0001 -0.0018  0.0000  0.0000 -0.0020
                                            0.0006 -0.0098  0.0013  0.0000  0.0000
                                            0.0000  0.0000 -0.0025 -0.0016  0.0012
                                           -0.0033
                ( 13.01%)   0.3608* H   4 s( 99.79%)p 0.00(  0.20%)d 0.00(  0.01%)
                                           -0.9984  0.0314 -0.0042  0.0005 -0.0264
                                           -0.0030 -0.0017  0.0129 -0.0299 -0.0145
                                            0.0000  0.0000  0.0000 -0.0045  0.0050
                                            0.0000  0.0000  0.0000  0.0000  0.0001
                                           -0.0007  0.0090 -0.0004
     3. (1.99992) CR ( 1) O   1           s(100.00%)
                                            1.0000 -0.0003  0.0000  0.0000  0.0000
                                           -0.0000  0.0000 -0.0000  0.0000  0.0000
                                           -0.0000  0.0000 -0.0000  0.0000  0.0000
                                            0.0000  0.0000 -0.0000 -0.0000  0.0000
                                            0.0000  0.0000  0.0000  0.0000  0.0000
                                            0.0000  0.0000 -0.0000  0.0000  0.0000
                                            0.0000 -0.0000  0.0000  0.0000  0.0000
                                            0.0000 -0.0000 -0.0000  0.0000  0.0000
                                            0.0000  0.0000 -0.0000 -0.0000 -0.0000
                                           -0.0000
     4. (2.00003) CR ( 1) I   3           s(100.00%)
                                            1.0000 -0.0000  0.0000 -0.0000  0.0000
                                            0.0000 -0.0000  0.0000  0.0000 -0.0000
                                           -0.0000 -0.0000  0.0000 -0.0000 -0.0000
                                            0.0000  0.0000  0.0000  0.0000  0.0000
                                            0.0000 -0.0000  0.0000 -0.0000 -0.0000
                                            0.0000  0.0000  0.0000  0.0000  0.0000
                                            0.0000  0.0000  0.0000  0.0000 -0.0000
                                            0.0000  0.0000  0.0000 -0.0000  0.0000
                                            0.0000  0.0000  0.0000 -0.0000 -0.0000
                                           -0.0000 -0.0000  0.0000  0.0000  0.0000
                                            0.0000 -0.0000 -0.0000 -0.0000 -0.0000
     5. (2.00007) CR ( 2) I   3           s(  0.00%)p 1.00(100.00%)
                                           -0.0000  0.0000  0.0000 -0.0000  0.0000
                                            0.0000  1.0000 -0.0001 -0.0000 -0.0000
                                            0.0000 -0.0000  0.0000 -0.0000 -0.0000
                                            0.0000  0.0000  0.0000  0.0000  0.0000
                                            0.0000 -0.0000 -0.0000  0.0000  0.0000
                                            0.0000  0.0000  0.0000  0.0000  0.0000
                                            0.0000  0.0000  0.0000  0.0000 -0.0000
                                            0.0000  0.0000  0.0000 -0.0000 -0.0000
                                            0.0000  0.0000  0.0000  0.0000  0.0000
                                           -0.0000 -0.0000  0.0000  0.0000  0.0000
                                            0.0000  0.0000  0.0000 -0.0000 -0.0000
     6. (2.00004) CR ( 3) I   3           s(  0.00%)p 1.00(100.00%)
                                           -0.0000  0.0000  0.0000 -0.0000  0.0000
                                            0.0000 -0.0000  0.0000  0.0000 -0.0000
                                           -0.0000  1.0000  0.0001 -0.0000 -0.0000
                                            0.0000  0.0000  0.0000  0.0000  0.0000
                                            0.0000 -0.0000  0.0000 -0.0000 -0.0000
                                            0.0000  0.0000  0.0000  0.0000  0.0000
                                            0.0000  0.0000  0.0000  0.0000 -0.0000
                                            0.0000  0.0000  0.0000 -0.0000  0.0000
                                            0.0000  0.0000  0.0000 -0.0000 -0.0000
                                           -0.0000 -0.0000  0.0000  0.0000  0.0000
                                            0.0000 -0.0000 -0.0000 -0.0000 -0.0000
     7. (2.00007) CR ( 4) I   3           s(  0.00%)p 1.00(100.00%)
                                            0.0000  0.0000  0.0000  0.0000  0.0000
                                            0.0000  0.0000  0.0000  0.0000  0.0000
                                            0.0000  0.0000  0.0000  0.0000  0.0000
                                            0.0000  1.0000 -0.0001 -0.0000 -0.0000
                                           -0.0000  0.0000  0.0000  0.0000  0.0000
                                            0.0000 -0.0000  0.0000 -0.0000  0.0000
                                           -0.0000  0.0000  0.0000  0.0000  0.0000
                                            0.0000  0.0000  0.0000  0.0000  0.0000
                                            0.0000  0.0000  0.0000  0.0000  0.0000
                                            0.0000  0.0000  0.0000  0.0000 -0.0000
                                           -0.0000  0.0000  0.0000  0.0000  0.0000
     8. (1.99674) CR ( 5) I   3           s(  0.00%)p 0.00(  0.00%)d 1.00(100.00%)
                                           -0.0000  0.0000 -0.0000 -0.0000  0.0000
                                            0.0000 -0.0000  0.0000  0.0000  0.0000
                                           -0.0000 -0.0000  0.0000 -0.0000 -0.0000
                                            0.0000  0.0000  0.0000  0.0000  0.0000
                                            0.0000  1.0000  0.0000 -0.0000 -0.0000
                                            0.0000  0.0000  0.0000  0.0000  0.0000
                                            0.0000  0.0000  0.0000  0.0000 -0.0000
                                            0.0000  0.0000  0.0000 -0.0000  0.0000
                                            0.0000  0.0000  0.0000 -0.0000 -0.0000
                                           -0.0000 -0.0000  0.0000  0.0000  0.0000
                                            0.0000 -0.0000 -0.0000 -0.0000 -0.0000
     9. (1.99678) CR ( 6) I   3           s(  0.00%)p 0.00(  0.00%)d 1.00(100.00%)
                                            0.0000  0.0000  0.0000  0.0000  0.0000
                                            0.0000  0.0000  0.0000  0.0000  0.0000
                                            0.0000  0.0000  0.0000  0.0000  0.0000
                                            0.0000  0.0000  0.0000  0.0000  0.0000
                                            0.0000  0.0000  0.0000  0.0000  0.0000
                                            1.0000  0.0000 -0.0000  0.0000 -0.0000
                                            0.0000 -0.0000 -0.0000  0.0000  0.0000
                                            0.0000  0.0000  0.0000  0.0000  0.0000
                                            0.0000 -0.0000 -0.0000  0.0000  0.0000
                                            0.0000  0.0000 -0.0000 -0.0000  0.0000
                                            0.0000  0.0000  0.0000  0.0000  0.0000
    10. (1.99676) CR ( 7) I   3           s(  0.00%)p 0.00(  0.00%)d 1.00(100.00%)
                                            0.0000  0.0000  0.0000  0.0000  0.0000
                                            0.0000  0.0000  0.0000  0.0000  0.0000
                                            0.0000  0.0000  0.0000  0.0000  0.0000
                                            0.0000  0.0000  0.0000  0.0000  0.0000
                                            0.0000  0.0000  0.0000  0.0000  0.0000
                                           -0.0000  0.0000 -0.0000  0.0000  1.0000
                                            0.0000 -0.0000 -0.0000  0.0000  0.0000
                                            0.0000  0.0000  0.0000  0.0000  0.0000
                                            0.0000 -0.0000 -0.0000  0.0000  0.0000
                                            0.0000  0.0000 -0.0000 -0.0000  0.0000
                                            0.0000  0.0000  0.0000  0.0000  0.0000
    11. (1.99672) CR ( 8) I   3           s(  0.00%)p 0.00(  0.00%)d 1.00(100.00%)
                                            0.0000 -0.0000 -0.0000  0.0000 -0.0000
                                           -0.0000  0.0000 -0.0000 -0.0000  0.0000
                                            0.0000  0.0000 -0.0001  0.0000  0.0000
                                           -0.0000  0.0000  0.0000  0.0000  0.0000
                                            0.0000  0.0000 -0.0000  0.0000  0.0000
                                            0.0000  0.0000  0.0000  0.0000  0.0000
                                            0.0000  0.0000  0.0000  1.0000  0.0000
                                           -0.0000 -0.0000 -0.0000  0.0000 -0.0000
                                           -0.0000  0.0000  0.0000  0.0000  0.0000
                                            0.0000  0.0000  0.0000  0.0000  0.0000
                                            0.0000  0.0000  0.0000  0.0000  0.0000
    12. (1.99676) CR ( 9) I   3           s(  0.00%)p 0.00(  0.00%)d 1.00(100.00%)
                                            0.0000 -0.0000 -0.0000  0.0000 -0.0000
                                           -0.0000  0.0000 -0.0000 -0.0000  0.0000
                                            0.0000  0.0000 -0.0001  0.0000  0.0000
                                           -0.0000  0.0000  0.0000  0.0000  0.0000
                                            0.0000  0.0000 -0.0000  0.0000  0.0000
                                            0.0000  0.0000  0.0000  0.0000  0.0000
                                            0.0000  0.0000  0.0000 -0.0000  0.0000
                                           -0.0000 -0.0000  1.0000  0.0000 -0.0000
                                           -0.0000  0.0000  0.0000  0.0000  0.0000
                                            0.0000  0.0000  0.0000  0.0000  0.0000
                                            0.0000  0.0000  0.0000  0.0000  0.0000
    13. (1.97252) LP ( 1) O   1           s( 67.83%)p 0.47( 32.06%)d 0.00(  0.11%)
                                                  f 0.00(  0.00%)
                                            0.0002  0.8236  0.0023  0.0010  0.0018
                                           -0.3450 -0.0104  0.0062 -0.0008  0.4487
                                            0.0093 -0.0048  0.0000  0.0000  0.0000
                                            0.0000  0.0000  0.0280 -0.0027 -0.0025
                                            0.0000  0.0000  0.0000  0.0000  0.0000
                                            0.0000  0.0008  0.0064 -0.0055  0.0107
                                           -0.0071  0.0043  0.0000  0.0000  0.0022
                                           -0.0020 -0.0028  0.0017  0.0000  0.0000
                                            0.0000  0.0000  0.0015  0.0018  0.0031
                                           -0.0010
    14. (1.96135) LP ( 2) O   1           s(  0.00%)p 1.00( 99.70%)d 0.00(  0.27%)
                                                  f 0.00(  0.03%)
                                            0.0000  0.0000  0.0000  0.0000  0.0000
                                            0.0000  0.0000  0.0000  0.0000  0.0000
                                            0.0000  0.0000  0.0000  0.9982  0.0231
                                           -0.0053  0.0052  0.0000  0.0000  0.0000
                                            0.0416 -0.0134  0.0039 -0.0280 -0.0013
                                            0.0053  0.0000  0.0000  0.0000  0.0000
                                            0.0000  0.0000 -0.0142  0.0053  0.0000
                                            0.0000  0.0000  0.0000  0.0047 -0.0032
                                            0.0022 -0.0003  0.0000  0.0000  0.0000
                                            0.0000
    15. (1.98027) LP ( 1) I   3           s( 99.34%)p 0.01(  0.66%)d 0.00(  0.00%)
                                                  f 0.00(  0.00%)
                                            0.0000  0.9967 -0.0000  0.0002 -0.0001
                                           -0.0000 -0.0000 -0.0143  0.0003 -0.0002
                                            0.0001 -0.0000 -0.0801  0.0004 -0.0008
                                            0.0002  0.0000  0.0000  0.0000  0.0000
                                            0.0000 -0.0000  0.0012 -0.0003 -0.0001
                                            0.0000  0.0000  0.0000  0.0000  0.0000
                                            0.0000  0.0000  0.0000  0.0000 -0.0021
                                            0.0005  0.0002  0.0000 -0.0016  0.0004
                                            0.0001  0.0000  0.0000 -0.0002 -0.0001
                                           -0.0008 -0.0006  0.0000  0.0000  0.0000
                                            0.0000 -0.0006 -0.0004 -0.0008 -0.0005
    16. (1.95170) LP ( 2) I   3           s(  0.00%)p 1.00(100.00%)d 0.00(  0.00%)
                                                  f 0.00(  0.00%)
                                            0.0000  0.0000  0.0000  0.0000  0.0000
                                            0.0000  0.0000  0.0000  0.0000  0.0000
                                            0.0000  0.0000  0.0000  0.0000  0.0000
                                            0.0000  0.0001  1.0000  0.0005  0.0011
                                            0.0000  0.0000  0.0000  0.0000  0.0000
                                           -0.0000  0.0025 -0.0012  0.0009 -0.0000
                                            0.0047 -0.0007 -0.0016  0.0000  0.0000
                                            0.0000  0.0000  0.0000  0.0000  0.0000
                                            0.0000 -0.0018 -0.0012  0.0000  0.0000
                                            0.0000  0.0000 -0.0016 -0.0008  0.0011
                                            0.0009  0.0000  0.0000  0.0000  0.0000
    17. (1.95149) LP ( 3) I   3           s(  0.00%)p 1.00( 99.99%)d 0.00(  0.01%)
                                                  f 0.00(  0.00%)
                                           -0.0000  0.0034  0.0011 -0.0022  0.0019
                                           -0.0001 -0.0001 -0.9763 -0.0018 -0.0016
                                            0.0006  0.0000  0.2161 -0.0008 -0.0004
                                            0.0007 -0.0000 -0.0000 -0.0000 -0.0000
                                           -0.0000  0.0000 -0.0052  0.0007  0.0013
                                           -0.0000 -0.0000 -0.0000 -0.0000 -0.0000
                                           -0.0000 -0.0000 -0.0000  0.0000 -0.0041
                                            0.0016 -0.0005 -0.0000  0.0009 -0.0006
                                            0.0009 -0.0000 -0.0000  0.0008  0.0006
                                           -0.0002 -0.0001 -0.0000 -0.0000 -0.0000
                                           -0.0000  0.0016  0.0006 -0.0019 -0.0014
    18. (1.93379) LP ( 4) I   3           s(  0.66%)p99.99( 99.29%)d 0.06(  0.04%)
                                                  f 0.01(  0.00%)
                                           -0.0000  0.0812  0.0002 -0.0030  0.0012
                                            0.0004 -0.0000  0.2156  0.0005 -0.0004
                                           -0.0003 -0.0001  0.9728 -0.0022 -0.0026
                                            0.0005  0.0000  0.0000  0.0000  0.0000
                                            0.0000 -0.0000  0.0086 -0.0008 -0.0007
                                            0.0000  0.0000  0.0000  0.0000  0.0000
                                            0.0000  0.0000  0.0000  0.0001 -0.0148
                                            0.0011  0.0028  0.0001 -0.0106  0.0013
                                            0.0009  0.0000  0.0000 -0.0009 -0.0005
                                           -0.0039 -0.0025  0.0000  0.0000  0.0000
                                            0.0000 -0.0027 -0.0012 -0.0036 -0.0021
    19. (0.02018) RY*( 1) O   1           s(  0.00%)p 1.00( 97.46%)d 0.03(  2.45%)
                                                  f 0.00(  0.09%)
                                            0.0000  0.0000  0.0000  0.0000  0.0000
                                            0.0000  0.0000  0.0000  0.0000  0.0000
                                            0.0000  0.0000  0.0000 -0.0311  0.9862
                                            0.0316 -0.0081  0.0000  0.0000  0.0000
                                            0.1410 -0.0360  0.0079 -0.0567  0.0035
                                            0.0088  0.0000  0.0000  0.0000  0.0000
                                            0.0000  0.0000 -0.0207  0.0153  0.0000
                                            0.0000  0.0000  0.0000  0.0117 -0.0087
                                           -0.0026  0.0001  0.0000  0.0000  0.0000
                                            0.0000
    20. (0.01615) RY*( 2) O   1           s( 12.99%)p 6.44( 83.63%)d 0.25(  3.27%)
                                                  f 0.01(  0.11%)
                                           -0.0000 -0.0151  0.3600  0.0072 -0.0011
                                            0.0087 -0.5447  0.0017  0.0010 -0.0083
                                            0.7340  0.0189 -0.0182  0.0000  0.0000
                                            0.0000  0.0000  0.1700 -0.0139 -0.0098
                                            0.0000  0.0000  0.0000  0.0000  0.0000
                                            0.0000  0.0029  0.0263 -0.0165  0.0315
                                           -0.0355  0.0156  0.0000  0.0000  0.0034
                                           -0.0082 -0.0028  0.0075  0.0000  0.0000
                                            0.0000  0.0000  0.0208  0.0018  0.0221
                                           -0.0080
    21. (0.00988) RY*( 3) O   1           s(  0.28%)p99.99( 92.56%)d24.81(  6.91%)
                                                  f 0.90(  0.25%)
                                           -0.0000  0.0031  0.0399  0.0342 -0.0039
                                            0.0322  0.7925 -0.0137 -0.0080  0.0210
                                            0.5428  0.0207 -0.0263  0.0000  0.0000
                                            0.0000  0.0000  0.1343 -0.0093  0.0079
                                            0.0000  0.0000  0.0000  0.0000  0.0000
                                            0.0000 -0.1880 -0.1071  0.0446 -0.0006
                                            0.0372 -0.0273  0.0000  0.0000  0.0168
                                            0.0091  0.0071  0.0000  0.0000  0.0000
                                            0.0000  0.0000 -0.0121 -0.0110  0.0385
                                           -0.0189
    22. (0.00659) RY*( 4) O   1           s( 37.30%)p 0.04(  1.52%)d 1.62( 60.52%)
                                                  f 0.02(  0.66%)
                                            0.0000  0.0137  0.6103 -0.0151  0.0095
                                           -0.0070  0.1025 -0.0099 -0.0059  0.0092
                                           -0.0651  0.0002 -0.0155 -0.0000 -0.0000
                                           -0.0000 -0.0000 -0.7100 -0.0310  0.0055
                                           -0.0000 -0.0000 -0.0000 -0.0000 -0.0000
                                           -0.0000 -0.1176 -0.0142  0.0116  0.2902
                                            0.0426  0.0007 -0.0000 -0.0000 -0.0056
                                            0.0116  0.0110 -0.0062 -0.0000 -0.0000
                                           -0.0000 -0.0000 -0.0676  0.0192 -0.0351
                                            0.0081
    23. (0.00630) RY*( 5) O   1           s(  0.00%)p 1.00(  0.41%)d99.99( 98.25%)
                                                  f 3.25(  1.34%)
                                            0.0000  0.0000  0.0000  0.0000  0.0000
                                            0.0000  0.0000  0.0000  0.0000  0.0000
                                            0.0000  0.0000  0.0000 -0.0084 -0.0622
                                            0.0007 -0.0136  0.0000  0.0000  0.0000
                                            0.7145  0.0743 -0.0166  0.6801  0.0597
                                           -0.0067  0.0000  0.0000  0.0000  0.0000
                                            0.0000  0.0000  0.0072 -0.0064  0.0000
                                            0.0000  0.0000  0.0000  0.1048 -0.0451
                                           -0.0155  0.0084  0.0000  0.0000  0.0000
                                            0.0000
    24. (0.00590) RY*( 6) O   1           s(  0.00%)p 1.00(  2.08%)d46.75( 97.05%)
                                                  f 0.42(  0.87%)
                                            0.0000  0.0000  0.0000  0.0000  0.0000
                                            0.0000  0.0000  0.0000  0.0000  0.0000
                                            0.0000  0.0000  0.0000  0.0446  0.1350
                                            0.0231  0.0003  0.0000  0.0000  0.0000
                                           -0.6651 -0.0987  0.0213  0.7151  0.0807
                                           -0.0038  0.0000  0.0000  0.0000  0.0000
                                            0.0000  0.0000  0.0767 -0.0323  0.0000
                                            0.0000  0.0000  0.0000  0.0020 -0.0044
                                            0.0394 -0.0139  0.0000  0.0000  0.0000
                                            0.0000
    25. (0.00580) RY*( 7) O   1           s(  7.10%)p 0.80(  5.68%)d12.16( 86.39%)
                                                  f 0.12(  0.82%)
                                           -0.0000  0.0099  0.2658 -0.0164 -0.0010
                                            0.0216  0.0896  0.0099 -0.0124 -0.0459
                                           -0.2120 -0.0324 -0.0004  0.0000  0.0000
                                            0.0000  0.0000  0.5228  0.0533 -0.0118
                                            0.0000  0.0000  0.0000  0.0000  0.0000
                                            0.0000  0.2071  0.0060  0.0127  0.7293
                                            0.1119 -0.0132  0.0000  0.0000  0.0477
                                           -0.0161 -0.0584  0.0230  0.0000  0.0000
                                            0.0000  0.0000  0.0361 -0.0203  0.0045
                                            0.0020
    26. (0.00317) RY*( 8) O   1           s( 39.42%)p 0.22(  8.67%)d 1.30( 51.33%)
                                                  f 0.01(  0.58%)
                                            0.0000 -0.0079  0.6275  0.0020 -0.0200
                                           -0.0209  0.1569 -0.0219 -0.0212 -0.0025
                                           -0.2425 -0.0102 -0.0415  0.0000  0.0000
                                            0.0000  0.0000  0.2898  0.0554 -0.0066
                                            0.0000  0.0000  0.0000  0.0000  0.0000
                                            0.0000  0.2564  0.0406  0.0195 -0.5809
                                           -0.1451 -0.0006  0.0000  0.0000 -0.0175
                                            0.0234  0.0227 -0.0194  0.0000  0.0000
                                            0.0000  0.0000  0.0424 -0.0475 -0.0067
                                           -0.0014
    27. (0.00299) RY*( 9) O   1           s(  2.36%)p 3.52(  8.29%)d37.29( 87.87%)
                                                  f 0.63(  1.48%)
                                           -0.0000 -0.0033  0.1535  0.0003 -0.0004
                                            0.0432 -0.1340  0.0671 -0.0287  0.0276
                                           -0.2290  0.0440 -0.0511 -0.0000 -0.0000
                                           -0.0000 -0.0000  0.2616  0.0714 -0.0038
                                           -0.0000 -0.0000 -0.0000 -0.0000 -0.0000
                                           -0.0000 -0.8839 -0.1484 -0.0123 -0.0416
                                           -0.0059  0.0000 -0.0000 -0.0000  0.0270
                                           -0.0227  0.0304 -0.0257 -0.0000 -0.0000
                                           -0.0000 -0.0000 -0.0376  0.0157  0.0904
                                           -0.0461
    28. (0.00071) RY*(10) O   1           s( 37.88%)p 1.26( 47.65%)d 0.33( 12.59%)
                                                  f 0.05(  1.88%)
                                            0.0000 -0.0041 -0.0254  0.6136  0.0403
                                           -0.0040 -0.0309  0.0189 -0.0846 -0.0024
                                           -0.0004 -0.6304 -0.2656 -0.0000 -0.0000
                                           -0.0000 -0.0000 -0.0364  0.1277 -0.0764
                                           -0.0000 -0.0000 -0.0000 -0.0000 -0.0000
                                           -0.0000  0.0292 -0.2152  0.1347  0.0327
                                           -0.1675  0.0898 -0.0000 -0.0000  0.0223
                                            0.0157  0.0530  0.0528 -0.0000 -0.0000
                                           -0.0000 -0.0000  0.0070  0.0462  0.0854
                                            0.0548
    29. (0.00057) RY*(11) O   1           s(  0.00%)p 1.00( 17.94%)d 3.89( 69.80%)
                                                  f 0.68( 12.26%)
                                            0.0000  0.0000  0.0000  0.0000  0.0000
                                            0.0000  0.0000  0.0000  0.0000  0.0000
                                            0.0000  0.0000  0.0000  0.0135  0.0594
                                           -0.4191 -0.0029  0.0000  0.0000  0.0000
                                           -0.0528  0.6725  0.1450  0.0543 -0.4583
                                           -0.0948  0.0000  0.0000  0.0000  0.0000
                                            0.0000  0.0000  0.2973 -0.0360  0.0000
                                            0.0000  0.0000  0.0000 -0.1530  0.0227
                                            0.0937  0.0136  0.0000  0.0000  0.0000
                                            0.0000
    30. (0.00058) RY*(12) O   1           s(  1.13%)p55.23( 62.18%)d29.41( 33.11%)
                                                  f 3.18(  3.58%)
                                           -0.0000  0.0080  0.0204  0.0877 -0.0555
                                           -0.0006 -0.0515 -0.7815  0.0519 -0.0037
                                           -0.0476  0.0060  0.0588 -0.0000 -0.0000
                                           -0.0000 -0.0000  0.0344 -0.4577 -0.0554
                                           -0.0000 -0.0000 -0.0000 -0.0000 -0.0000
                                           -0.0000 -0.0129 -0.3205  0.0066 -0.0249
                                            0.1058 -0.0513 -0.0000 -0.0000  0.0853
                                            0.0218 -0.1359 -0.0078 -0.0000 -0.0000
                                           -0.0000 -0.0000  0.0449 -0.0713  0.0476
                                           -0.0130
    31. (0.00055) RY*(13) O   1           s(  0.00%)p 1.00( 44.40%)d 0.89( 39.58%)
                                                  f 0.36( 16.02%)
                                            0.0000  0.0000  0.0000  0.0000  0.0000
                                            0.0000  0.0000  0.0000  0.0000  0.0000
                                            0.0000  0.0000  0.0000  0.0117  0.0014
                                            0.6568  0.1117  0.0000  0.0000  0.0000
                                           -0.0023  0.4887  0.1479 -0.0153  0.3535
                                            0.0995  0.0000  0.0000  0.0000  0.0000
                                            0.0000  0.0000  0.1091  0.0027  0.0000
                                            0.0000  0.0000  0.0000 -0.3774  0.0250
                                            0.0727 -0.0038  0.0000  0.0000  0.0000
                                            0.0000
    32. (0.00051) RY*(14) O   1           s(  0.29%)p30.82(  9.06%)d99.99( 70.44%)
                                                  f68.69( 20.20%)
                                           -0.0000 -0.0004 -0.0313 -0.0126  0.0425
                                            0.0049  0.0374  0.0815 -0.0132 -0.0110
                                           -0.0233  0.2624 -0.1135 -0.0000 -0.0000
                                           -0.0000 -0.0000 -0.0377 -0.2444 -0.1233
                                           -0.0000 -0.0000 -0.0000 -0.0000 -0.0000
                                           -0.0000  0.0138 -0.0136 -0.0112  0.1442
                                           -0.7699 -0.1188 -0.0000 -0.0000  0.0021
                                           -0.0214 -0.0776  0.0340 -0.0000 -0.0000
                                           -0.0000 -0.0000  0.2498  0.0812  0.3528
                                            0.0290
    33. (0.00047) RY*(15) O   1           s(  0.43%)p29.03( 12.53%)d29.61( 12.78%)
                                                  f99.99( 74.25%)
                                           -0.0000  0.0038 -0.0283  0.0509  0.0303
                                           -0.0008 -0.0183 -0.1643 -0.0509  0.0033
                                            0.0030  0.2892 -0.1083  0.0000  0.0000
                                            0.0000  0.0000 -0.0076  0.2188  0.0445
                                            0.0000  0.0000  0.0000  0.0000  0.0000
                                            0.0000  0.0351 -0.2284  0.0065  0.0580
[...]
                                           -0.0163  0.0923 -0.0838 -0.0080  0.9544
                                           -0.0297  0.0277  0.2215 -0.1061  0.0118
                                            0.0000  0.0000  0.0000 -0.0566  0.0254
                                            0.0000  0.0000  0.0000  0.0000  0.0404
                                           -0.0248 -0.0716 -0.0013
   127. (0.00241) RY*( 4) H   4           s( 34.66%)p 1.86( 64.58%)d 0.02(  0.76%)
                                            0.0397  0.5239 -0.2589 -0.0597 -0.2665
                                           -0.0142  0.0556  0.7153 -0.2377  0.0585
                                            0.0000  0.0000  0.0000  0.0684  0.0089
                                            0.0000  0.0000  0.0000  0.0000 -0.0172
                                           -0.0450 -0.0184 -0.0121
   128. (0.00075) RY*( 5) H   4           s( 52.79%)p 0.79( 41.91%)d 0.10(  5.30%)
                                           -0.0027  0.1982  0.6828 -0.1495  0.0302
                                            0.3769 -0.0215  0.2751  0.3952 -0.2095
                                            0.0000  0.0000  0.0000 -0.0632  0.0157
                                            0.0000  0.0000  0.0000  0.0000  0.1895
                                            0.0479  0.0859  0.0564
   129. (0.00041) RY*( 6) H   4           s(  2.44%)p34.67( 84.49%)d 5.36( 13.07%)
                                           -0.0000 -0.0762  0.0310  0.1326 -0.0035
                                            0.7782  0.0287 -0.0668 -0.3438  0.3403
                                            0.0000  0.0000  0.0000 -0.0266  0.2399
                                            0.0000  0.0000  0.0000  0.0000 -0.2065
                                           -0.0734 -0.1327 -0.0826
   130. (0.00037) RY*( 7) H   4           s(  0.00%)p 1.00( 87.53%)d 0.14( 12.47%)
                                            0.0000  0.0000  0.0000  0.0000  0.0000
                                            0.0000  0.0000  0.0000  0.0000  0.0000
                                           -0.1490  0.9139  0.1335  0.0000  0.0000
                                            0.1122 -0.0093  0.2822  0.1800  0.0000
                                            0.0000  0.0000  0.0000
   131. (0.00033) RY*( 8) H   4           s( 14.24%)p 3.29( 46.80%)d 2.74( 38.96%)
                                           -0.0166 -0.0140  0.3754 -0.0322  0.0062
                                           -0.3246  0.3192  0.0597  0.1596  0.4813
                                           -0.0000 -0.0000 -0.0000  0.3465  0.0888
                                           -0.0000 -0.0000 -0.0000 -0.0000 -0.1896
                                           -0.3094 -0.3216 -0.1633
   132. (0.00028) RY*( 9) H   4           s(  6.20%)p 2.84( 17.64%)d12.28( 76.15%)
                                            0.0018 -0.0481 -0.0201  0.2435 -0.0065
                                            0.1308  0.2595 -0.0631 -0.2039 -0.2153
                                            0.0000  0.0000  0.0000  0.5789 -0.0779
                                            0.0000  0.0000  0.0000  0.0000  0.6157
                                            0.0264 -0.1837  0.0826
   133. (0.00025) RY*(10) H   4           s(  0.00%)p 1.00( 15.18%)d 5.59( 84.82%)
                                            0.0000  0.0000  0.0000  0.0000  0.0000
                                            0.0000  0.0000  0.0000  0.0000  0.0000
                                            0.0965 -0.2918  0.2395  0.0000  0.0000
                                            0.1161 -0.0697  0.9043 -0.1100  0.0000
                                            0.0000  0.0000  0.0000
   134. (0.00017) RY*(11) H   4           s( 48.38%)p 0.44( 21.23%)d 0.63( 30.40%)
                                            0.0179  0.0291  0.3596  0.5944 -0.0007
                                           -0.2224  0.1855  0.0462 -0.3474 -0.0744
                                            0.0000  0.0000  0.0000 -0.1469  0.1199
                                            0.0000  0.0000  0.0000  0.0000 -0.0950
                                           -0.1125  0.4897  0.0806
   135. (0.00018) RY*(12) H   4           s(  6.81%)p 0.69(  4.72%)d13.00( 88.47%)
                                            0.0044  0.0009  0.1165  0.2334 -0.1088
                                           -0.1349  0.0320  0.0326 -0.1065 -0.0607
                                           -0.0000 -0.0000 -0.0000 -0.6175  0.0110
                                           -0.0000 -0.0000 -0.0000 -0.0000  0.2682
                                            0.0084 -0.6533 -0.0681
   136. (0.00016) RY*(13) H   4           s(  0.00%)p 1.00(  0.45%)d99.99( 99.55%)
                                            0.0000  0.0000  0.0000  0.0000  0.0000
                                            0.0000  0.0000  0.0000  0.0000  0.0000
                                           -0.0172 -0.0610 -0.0210  0.0000  0.0000
                                            0.9735  0.1542 -0.1346 -0.0766  0.0000
                                            0.0000  0.0000  0.0000
   137. (0.00012) RY*(14) H   4           s(  0.00%)p 1.00( 64.11%)d 0.56( 35.89%)
                                            0.0000  0.0000  0.0000  0.0000  0.0000
                                            0.0000  0.0000  0.0000  0.0000  0.0000
                                           -0.0063 -0.1695  0.7825  0.0000  0.0000
                                            0.0184  0.0363 -0.1920  0.5660  0.0000
                                            0.0000  0.0000  0.0000
   138. (0.00011) RY*(15) H   4           s(  4.26%)p13.05( 55.60%)d 9.42( 40.13%)
                                            0.0016  0.0192  0.1901  0.0782  0.0114
                                           -0.0204 -0.6827  0.0096 -0.2097  0.2129
                                           -0.0000 -0.0000 -0.0000  0.0952 -0.4961
                                           -0.0000 -0.0000 -0.0000 -0.0000  0.1571
                                           -0.3304  0.0189 -0.1092
   139. (0.00008) RY*(16) H   4           s( 19.48%)p 0.39(  7.57%)d 3.74( 72.95%)
   140. (0.00006) RY*(17) H   4           s(  0.00%)p 1.00(  0.12%)d99.99( 99.88%)
   141. (0.00006) RY*(18) H   4           s( 26.81%)p 1.52( 40.77%)d 1.21( 32.42%)
   142. (0.00006) RY*(19) H   4           s(  4.77%)p 2.83( 13.49%)d17.14( 81.74%)
   143. (0.00004) RY*(20) H   4           s(  0.00%)p 1.00( 33.24%)d 2.01( 66.76%)
   144. (0.00004) RY*(21) H   4           s(  3.09%)p11.04( 34.16%)d20.28( 62.74%)
   145. (0.00002) RY*(22) H   4           s(  8.68%)p 4.18( 36.26%)d 6.34( 55.06%)
   146. (0.01954) BD*( 1) O   1 - H   2  
                ( 15.98%)   0.3998* O   1 s( 15.17%)p 5.57( 84.46%)d 0.02(  0.36%)
                                                  f 0.00(  0.01%)
                                           -0.0001 -0.3894 -0.0004 -0.0012  0.0036
                                           -0.9187  0.0187 -0.0052  0.0019  0.0062
                                            0.0101 -0.0002  0.0028 -0.0000 -0.0000
                                           -0.0000 -0.0000  0.0229 -0.0033 -0.0014
                                           -0.0000 -0.0000 -0.0000 -0.0000 -0.0000
                                           -0.0000 -0.0454  0.0080 -0.0050  0.0304
                                           -0.0029  0.0018 -0.0000 -0.0000  0.0097
                                           -0.0011 -0.0001  0.0002 -0.0000 -0.0000
                                           -0.0000 -0.0000 -0.0025 -0.0022 -0.0014
                                            0.0002
                ( 84.02%)  -0.9166* H   2 s( 99.76%)p 0.00(  0.19%)d 0.00(  0.04%)
                                           -0.9988  0.0019 -0.0001 -0.0000 -0.0071
                                           -0.0431  0.0023  0.0015  0.0008  0.0011
                                           -0.0000 -0.0000 -0.0000 -0.0010  0.0029
                                           -0.0000 -0.0000 -0.0000 -0.0000 -0.0159
                                            0.0033  0.0126 -0.0013
   147. (0.03501) BD*( 1) O   1 - H   4  
                ( 13.01%)   0.3608* O   1 s( 16.94%)p 4.88( 82.71%)d 0.02(  0.34%)
                                                  f 0.00(  0.01%)
                                            0.0001  0.4115 -0.0053 -0.0034 -0.0009
                                           -0.1788  0.0111  0.0007  0.0005 -0.8915
                                            0.0155 -0.0074  0.0055 -0.0000 -0.0000
                                           -0.0000 -0.0000 -0.0109  0.0051 -0.0004
                                           -0.0000 -0.0000 -0.0000 -0.0000 -0.0000
                                           -0.0000 -0.0479  0.0066 -0.0015 -0.0300
                                            0.0001  0.0018 -0.0000 -0.0000  0.0020
                                           -0.0006  0.0098 -0.0013 -0.0000 -0.0000
                                           -0.0000 -0.0000  0.0025  0.0016 -0.0012
                                            0.0033
                ( 86.99%)  -0.9327* H   4 s( 99.79%)p 0.00(  0.20%)d 0.00(  0.01%)
                                            0.9984 -0.0314  0.0042 -0.0005  0.0264
                                            0.0030  0.0017 -0.0129  0.0299  0.0145
                                           -0.0000 -0.0000 -0.0000  0.0045 -0.0050
                                           -0.0000 -0.0000 -0.0000 -0.0000 -0.0001
                                            0.0007 -0.0090  0.0004


 NHO Directionality and "Bond Bending" (deviations from line of nuclear centers)

         [Thresholds for printing:  angular deviation  >  1.0 degree]
                                    hybrid p-character > 25.0%
                                    orbital occupancy  >  0.10e

                                Line of Centers        Hybrid 1              Hybrid 2
                                ---------------  -------------------   ------------------
                NBO               Theta   Phi    Theta   Phi    Dev    Theta   Phi    Dev
 ========================================================================================
     1. BD (   1) O   1 - H   2    90.0    0.0    90.0  358.8   1.2      --     --    --
     2. BD (   1) O   1 - H   4    90.0  258.1    90.0  259.3   1.1      --     --    --
    13. LP (   1) O   1             --     --     90.0  127.7   --       --     --    --
    14. LP (   2) O   1             --     --      0.0    0.0   --       --     --    --
    16. LP (   2) I   3             --     --      0.0    0.0   --       --     --    --
    17. LP (   3) I   3             --     --     90.0  167.6   --       --     --    --
    18. LP (   4) I   3             --     --     90.0   77.5   --       --     --    --


 Natural Bond Orbitals (Summary):

           NBO                  Occupancy  
 -----------------------------------------------
 Molecular unit  1  (H2O)
     1. BD (   1) O   1 - H   2          1.96406
     2. BD (   1) O   1 - H   4          1.96367
     3. CR (   1) O   1                  1.99992
    13. LP (   1) O   1                  1.97252
    14. LP (   2) O   1                  1.96135
    19. RY*(   1) O   1                  0.02018
    20. RY*(   2) O   1                  0.01615
    21. RY*(   3) O   1                  0.00988
    22. RY*(   4) O   1                  0.00659
    23. RY*(   5) O   1                  0.00630
    24. RY*(   6) O   1                  0.00590
    25. RY*(   7) O   1                  0.00580
    26. RY*(   8) O   1                  0.00317
    27. RY*(   9) O   1                  0.00299
    28. RY*(  10) O   1                  0.00071
    29. RY*(  11) O   1                  0.00057
    30. RY*(  12) O   1                  0.00058
    31. RY*(  13) O   1                  0.00055
    32. RY*(  14) O   1                  0.00051
    33. RY*(  15) O   1                  0.00047
    34. RY*(  16) O   1                  0.00044
    35. RY*(  17) O   1                  0.00045
    36. RY*(  18) O   1                  0.00044
    37. RY*(  19) O   1                  0.00042
    38. RY*(  20) O   1                  0.00042
    39. RY*(  21) O   1                  0.00038
    40. RY*(  22) O   1                  0.00035
    41. RY*(  23) O   1                  0.00030
    42. RY*(  24) O   1                  0.00028
    43. RY*(  25) O   1                  0.00025
    44. RY*(  26) O   1                  0.00015
    45. RY*(  27) O   1                  0.00008
    46. RY*(  28) O   1                  0.00009
    47. RY*(  29) O   1                  0.00008
    48. RY*(  30) O   1                  0.00008
    49. RY*(  31) O   1                  0.00007
    50. RY*(  32) O   1                  0.00006
    51. RY*(  33) O   1                  0.00007
    52. RY*(  34) O   1                  0.00007
    53. RY*(  35) O   1                  0.00006
    54. RY*(  36) O   1                  0.00006
    55. RY*(  37) O   1                  0.00007
    56. RY*(  38) O   1                  0.00005
    57. RY*(  39) O   1                  0.00002
    58. RY*(  40) O   1                  0.00002
    59. RY*(  41) O   1                 -0.00010
    60. RY*(   1) H   2                  0.00164
    61. RY*(   2) H   2                  0.00154
    62. RY*(   3) H   2                  0.00063
    63. RY*(   4) H   2                  0.00032
    64. RY*(   5) H   2                  0.00021
    65. RY*(   6) H   2                  0.00015
    66. RY*(   7) H   2                  0.00013
    67. RY*(   8) H   2                  0.00011
    68. RY*(   9) H   2                  0.00011
    69. RY*(  10) H   2                  0.00008
    70. RY*(  11) H   2                  0.00006
    71. RY*(  12) H   2                  0.00006
    72. RY*(  13) H   2                  0.00004
    73. RY*(  14) H   2                  0.00004
    74. RY*(  15) H   2                  0.00004
    75. RY*(  16) H   2                  0.00003
    76. RY*(  17) H   2                  0.00003
    77. RY*(  18) H   2                  0.00003
    78. RY*(  19) H   2                  0.00002
    79. RY*(  20) H   2                  0.00001
    80. RY*(  21) H   2                  0.00001
    81. RY*(  22) H   2                  0.00001
   124. RY*(   1) H   4                  0.00860
   125. RY*(   2) H   4                  0.00442
   126. RY*(   3) H   4                  0.00400
   127. RY*(   4) H   4                  0.00241
   128. RY*(   5) H   4                  0.00075
   129. RY*(   6) H   4                  0.00041
   130. RY*(   7) H   4                  0.00037
   131. RY*(   8) H   4                  0.00033
   132. RY*(   9) H   4                  0.00028
   133. RY*(  10) H   4                  0.00025
   134. RY*(  11) H   4                  0.00017
   135. RY*(  12) H   4                  0.00018
   136. RY*(  13) H   4                  0.00016
   137. RY*(  14) H   4                  0.00012
   138. RY*(  15) H   4                  0.00011
   139. RY*(  16) H   4                  0.00008
   140. RY*(  17) H   4                  0.00006
   141. RY*(  18) H   4                  0.00006
   142. RY*(  19) H   4                  0.00006
   143. RY*(  20) H   4                  0.00004
   144. RY*(  21) H   4                  0.00004
   145. RY*(  22) H   4                  0.00002
   146. BD*(   1) O   1 - H   2          0.01954
   147. BD*(   1) O   1 - H   4          0.03501
       -------------------------------
              Total Lewis    9.86152  ( 98.3273%)
        Valence non-Lewis    0.05454  (  0.5438%)
        Rydberg non-Lewis    0.11322  (  1.1289%)
       -------------------------------
            Total unit  1   10.02928  (100.0000%)
           Charge unit  1   -0.02928

 Molecular unit  2  (I)
     4. CR (   1) I   3                  2.00003
     5. CR (   2) I   3                  2.00007
     6. CR (   3) I   3                  2.00004
     7. CR (   4) I   3                  2.00007
     8. CR (   5) I   3                  1.99674
     9. CR (   6) I   3                  1.99678
    10. CR (   7) I   3                  1.99676
    11. CR (   8) I   3                  1.99672
    12. CR (   9) I   3                  1.99676
    15. LP (   1) I   3                  1.98027
    16. LP (   2) I   3                  1.95170
    17. LP (   3) I   3                  1.95149
    18. LP (   4) I   3                  1.93379
    82. RY*(   1) I   3                  0.02024
    83. RY*(   2) I   3                  0.02024
    84. RY*(   3) I   3                  0.02012
    85. RY*(   4) I   3                  0.02012
    86. RY*(   5) I   3                  0.02011
    87. RY*(   6) I   3                  0.01099
    88. RY*(   7) I   3                  0.01095
    89. RY*(   8) I   3                  0.01003
    90. RY*(   9) I   3                  0.00374
    91. RY*(  10) I   3                  0.00278
    92. RY*(  11) I   3                  0.00278
    93. RY*(  12) I   3                  0.00276
    94. RY*(  13) I   3                  0.00276
    95. RY*(  14) I   3                  0.00271
    96. RY*(  15) I   3                  0.00271
    97. RY*(  16) I   3                  0.00268
    98. RY*(  17) I   3                  0.00167
    99. RY*(  18) I   3                  0.00167
   100. RY*(  19) I   3                  0.00139
   101. RY*(  20) I   3                  0.00140
   102. RY*(  21) I   3                  0.00116
   103. RY*(  22) I   3                  0.00074
   104. RY*(  23) I   3                  0.00074
   105. RY*(  24) I   3                  0.00068
   106. RY*(  25) I   3                  0.00050
   107. RY*(  26) I   3                  0.00044
   108. RY*(  27) I   3                  0.00043
   109. RY*(  28) I   3                  0.00043
   110. RY*(  29) I   3                  0.00042
   111. RY*(  30) I   3                  0.00039
   112. RY*(  31) I   3                  0.00040
   113. RY*(  32) I   3                  0.00033
   114. RY*(  33) I   3                  0.00016
   115. RY*(  34) I   3                  0.00016
   116. RY*(  35) I   3                  0.00014
   117. RY*(  36) I   3                  0.00014
   118. RY*(  37) I   3                  0.00010
   119. RY*(  38) I   3                  0.00007
   120. RY*(  39) I   3                  0.00007
   121. RY*(  40) I   3                  0.00006
   122. RY*(  41) I   3                  0.00007
   123. RY*(  42) I   3                  0.00000
       -------------------------------
              Total Lewis   53.80122  ( 99.6859%)
        Valence non-Lewis    0.00000  (  0.0000%)
        Rydberg non-Lewis    0.16950  (  0.3141%)
       -------------------------------
            Total unit  2   53.97072  (100.0000%)
           Charge unit  2   -0.97072
 Leave Link  607 at Tue Oct 12 16:22:42 2021, MaxMem=  1048576000 cpu:         5.6
 (Enter /usr/local/gaussian/g09/l9999.exe)
 1\1\GINC-KRYPTON\SP\RMP2-FC\Gen\H2I1O1(1-)\CGAVINH\12-Oct-2021\0\\#p p
 op=NBO SP NoSymm mp2/gen Pseudo=read density=current\\title\\-1,1\O\X,
 1,10.\H,1,0.9609077,2,90.\I,1,3.50850362,2,90.,3,101.85830594,0\H,1,1.
 ,2,90.,3,101.85830594,0\\Version=ES64L-G09RevE.01\HF=-370.8156027\MP2=
 -371.3135497\RMSD=3.416e-09\Dipole=0.6945683,0.6555468,0.\Quadrupole=1
 2.5478255,-24.7126496,12.164824,-7.3256494,0.,0.\PG=CS [SG(H2I1O1)]\\@


 ...THE PHYSICISTS HAVE MADE THEIR UNIVERSE, AND IF YOU DO NOT LIKE
 IT, YOU MUST MAKE YOUR OWN.
                               -- E. R. HARRISON IN "COSMOLOGY" (1980)
 Job cpu time:       0 days  0 hours  2 minutes 35.9 seconds.
 File lengths (MBytes):  RWF=     15 Int=      0 D2E=      0 Chk=      3 Scr=      1
 Normal termination of Gaussian 09 at Tue Oct 12 16:22:42 2021.
