 Entering Gaussian System, Link 0=g16
 Input=ihod_rOH_075_sp.gjf
 Output=ihod_rOH_075_sp.log
 Initial command:
 /sw/contrib/gaussian/g16/B01/g16/l1.exe "/scr/Gau-23770.inp" -scrdir="/scr/"
 Entering Link 1 = /sw/contrib/gaussian/g16/B01/g16/l1.exe PID=     23771.
  
 Copyright (c) 1988-2017, Gaussian, Inc.  All Rights Reserved.
  
 This is part of the Gaussian(R) 16 program.  It is based on
 the Gaussian(R) 09 system (copyright 2009, Gaussian, Inc.),
 the Gaussian(R) 03 system (copyright 2003, Gaussian, Inc.),
 the Gaussian(R) 98 system (copyright 1998, Gaussian, Inc.),
 the Gaussian(R) 94 system (copyright 1995, Gaussian, Inc.),
 the Gaussian 92(TM) system (copyright 1992, Gaussian, Inc.),
 the Gaussian 90(TM) system (copyright 1990, Gaussian, Inc.),
 the Gaussian 88(TM) system (copyright 1988, Gaussian, Inc.),
 the Gaussian 86(TM) system (copyright 1986, Carnegie Mellon
 University), and the Gaussian 82(TM) system (copyright 1983,
 Carnegie Mellon University). Gaussian is a federally registered
 trademark of Gaussian, Inc.
  
 This software contains proprietary and confidential information,
 including trade secrets, belonging to Gaussian, Inc.
  
 This software is provided under written license and may be
 used, copied, transmitted, or stored only in accord with that
 written license.
  
 The following legend is applicable only to US Government
 contracts under FAR:
  
                    RESTRICTED RIGHTS LEGEND
  
 Use, reproduction and disclosure by the US Government is
 subject to restrictions as set forth in subparagraphs (a)
 and (c) of the Commercial Computer Software - Restricted
 Rights clause in FAR 52.227-19.
  
 Gaussian, Inc.
 340 Quinnipiac St., Bldg. 40, Wallingford CT 06492
  
  
 ---------------------------------------------------------------
 Warning -- This program may not be used in any manner that
 competes with the business of Gaussian, Inc. or will provide
 assistance to any competitor of Gaussian, Inc.  The licensee
 of this program is prohibited from giving any competitor of
 Gaussian, Inc. access to this program.  By using this program,
 the user acknowledges that Gaussian, Inc. is engaged in the
 business of creating and licensing software in the field of
 computational chemistry and represents and warrants to the
 licensee that it is not a competitor of Gaussian, Inc. and that
 it will not use this program in any manner prohibited above.
 ---------------------------------------------------------------
  

 Cite this work as:
 Gaussian 16, Revision B.01,
 M. J. Frisch, G. W. Trucks, H. B. Schlegel, G. E. Scuseria, 
 M. A. Robb, J. R. Cheeseman, G. Scalmani, V. Barone, 
 G. A. Petersson, H. Nakatsuji, X. Li, M. Caricato, A. V. Marenich, 
 J. Bloino, B. G. Janesko, R. Gomperts, B. Mennucci, H. P. Hratchian, 
 J. V. Ortiz, A. F. Izmaylov, J. L. Sonnenberg, D. Williams-Young, 
 F. Ding, F. Lipparini, F. Egidi, J. Goings, B. Peng, A. Petrone, 
 T. Henderson, D. Ranasinghe, V. G. Zakrzewski, J. Gao, N. Rega, 
 G. Zheng, W. Liang, M. Hada, M. Ehara, K. Toyota, R. Fukuda, 
 J. Hasegawa, M. Ishida, T. Nakajima, Y. Honda, O. Kitao, H. Nakai, 
 T. Vreven, K. Throssell, J. A. Montgomery, Jr., J. E. Peralta, 
 F. Ogliaro, M. J. Bearpark, J. J. Heyd, E. N. Brothers, K. N. Kudin, 
 V. N. Staroverov, T. A. Keith, R. Kobayashi, J. Normand, 
 K. Raghavachari, A. P. Rendell, J. C. Burant, S. S. Iyengar, 
 J. Tomasi, M. Cossi, J. M. Millam, M. Klene, C. Adamo, R. Cammi, 
 J. W. Ochterski, R. L. Martin, K. Morokuma, O. Farkas, 
 J. B. Foresman, and D. J. Fox, Gaussian, Inc., Wallingford CT, 2016.
 
 ******************************************
 Gaussian 16:  ES64L-G16RevB.01 20-Dec-2017
                26-Oct-2021 
 ******************************************
 %nproc=28
 Will use up to   28 processors via shared memory.
 %mem=120GB
 %chk=/gscratch/ilahie/mccoygrp/coire_hocl/rOH_s_oop_0/ihod/ihod_rOH_075.chk
 --------------------------------------------------------
 #p pop=NBO SP NoSymm mp2/gen Pseudo=read density=current
 --------------------------------------------------------
 1/30=1,38=1,172=1/1;
 2/12=2,15=1,17=6,18=5,40=1/2;
 3/5=7,11=9,16=1,17=8,25=1,30=1,71=1/1,2,3;
 4//1;
 5/5=2,38=5/2;
 8/6=4,10=1/1;
 9/15=1,16=-3/6;
 10/5=1,13=10,31=1/2;
 6/7=2,8=2,9=2,10=2,22=-1,40=1/1,7;
 99/5=1,9=1/99;
 Leave Link    1 at Tue Oct 26 13:19:54 2021, MaxMem= 16106127360 cpu:               2.4 elap:               0.1
 (Enter /sw/contrib/gaussian/g16/B01/g16/l101.exe)
 -----
 title
 -----
 Symbolic Z-matrix:
 Charge = -1 Multiplicity = 1
 O
 X                    1     10. 
 H(iso=2)             1    r1       2     90. 
 I                    1    r2       2     90.      3    a1       0
 H                    1    r3       2    oop      3    a1       0
       Variables:
  r1                    0.96091                  
  r2                    3.5085                   
  r3                    0.75                     
  a1                  101.85832                  
  OOP                  90.                       
 
 ITRead=  0  0  0  0
 MicOpt= -1 -1 -1 -1
 NAtoms=      4 NQM=        4 NQMF=       0 NMMI=      0 NMMIF=      0
                NMic=       0 NMicF=      0.
                    Isotopes and Nuclear Properties:
 (Nuclear quadrupole moments (NQMom) in fm**2, nuclear magnetic moments (NMagM)
  in nuclear magnetons)

  Atom         1           2           3           4
 IAtWgt=          16           2         127           1
 AtmWgt=  15.9949146   2.0141018 126.9004000   1.0078250
 NucSpn=           0           2           5           1
 AtZEff=  -0.0000000  -0.0000000  -0.0000000  -0.0000000
 NQMom=    0.0000000   0.2860000 -71.0000000   0.0000000
 NMagM=    0.0000000   0.8574380   2.8132800   2.7928460
 AtZNuc=   8.0000000   1.0000000  53.0000000   1.0000000
 Leave Link  101 at Tue Oct 26 13:19:54 2021, MaxMem= 16106127360 cpu:               3.2 elap:               0.1
 (Enter /sw/contrib/gaussian/g16/B01/g16/l202.exe)
                          Input orientation:                          
 ---------------------------------------------------------------------
 Center     Atomic      Atomic             Coordinates (Angstroms)
 Number     Number       Type             X           Y           Z
 ---------------------------------------------------------------------
      1          8           0        0.000000    0.000000    0.000000
      2          1           0        0.960908    0.000000    0.000000
      3         53           0       -0.720970   -3.433626    0.000000
      4          1           0       -0.154119   -0.733994    0.000000
 ---------------------------------------------------------------------
                    Distance matrix (angstroms):
                    1          2          3          4
     1  O    0.000000
     2  H    0.960908   0.000000
     3  I    3.508501   3.823414   0.000000
     4  H    0.750000   1.334928   2.758501   0.000000
 Symmetry turned off by external request.
 Stoichiometry    H2IO(1-)
 Framework group  CS[SG(H2IO)]
 Deg. of freedom     5
 Full point group                 CS      NOp   2
 Rotational constants (GHZ):         322.4231524           2.4990385           2.4798179
 Leave Link  202 at Tue Oct 26 13:19:54 2021, MaxMem= 16106127360 cpu:               2.3 elap:               0.1
 (Enter /sw/contrib/gaussian/g16/B01/g16/l301.exe)
 General basis read from cards:  (5D, 7F)
 Centers:       1      2      4
 aug-cc-pVTZ
 ****
 Centers:       3
 S 11 1.00
     Exponent=  5.5465000000D+03 Coefficients=  1.5600000000D-04
     Exponent=  8.3821400000D+02 Coefficients=  9.8600000000D-04
     Exponent=  1.8218700000D+02 Coefficients=  2.7920000000D-03
     Exponent=  3.1212300000D+01 Coefficients= -4.3251000000D-02
     Exponent=  1.9531400000D+01 Coefficients=  2.3413400000D-01
     Exponent=  8.2409900000D+00 Coefficients= -7.5094300000D-01
     Exponent=  2.1945500000D+00 Coefficients=  8.8296800000D-01
     Exponent=  1.1091100000D+00 Coefficients=  4.6206100000D-01
     Exponent=  3.7464100000D-01 Coefficients=  2.2286000000D-02
     Exponent=  1.7708000000D-01 Coefficients= -4.3530000000D-03
     Exponent=  8.1061000000D-02 Coefficients=  1.1020000000D-03
 S 11 1.00
     Exponent=  5.5465000000D+03 Coefficients= -7.3000000000D-05
     Exponent=  8.3821400000D+02 Coefficients= -5.0800000000D-04
     Exponent=  1.8218700000D+02 Coefficients= -1.1580000000D-03
     Exponent=  3.1212300000D+01 Coefficients=  1.2193000000D-02
     Exponent=  1.9531400000D+01 Coefficients= -8.7854000000D-02
     Exponent=  8.2409900000D+00 Coefficients=  3.3820000000D-01
     Exponent=  2.1945500000D+00 Coefficients= -5.7655000000D-01
     Exponent=  1.1091100000D+00 Coefficients= -4.0929800000D-01
     Exponent=  3.7464100000D-01 Coefficients=  5.6745900000D-01
     Exponent=  1.7708000000D-01 Coefficients=  6.1248900000D-01
     Exponent=  8.1061000000D-02 Coefficients=  1.4323100000D-01
 S 1 1.00
     Exponent=  3.7464100000D-01 Coefficients=  1.0000000000D+00
 S 1 1.00
     Exponent=  1.7708000000D-01 Coefficients=  1.0000000000D+00
 S 1 1.00
     Exponent=  1.0010000000D-01 Coefficients=  1.0000000000D+00
 S 1 1.00
     Exponent=  4.1200000000D-02 Coefficients=  1.0000000000D+00
 P 9 1.00
     Exponent=  1.8898800000D+02 Coefficients=  5.8500000000D-04
     Exponent=  2.1286800000D+01 Coefficients=  3.6923000000D-02
     Exponent=  1.0039600000D+01 Coefficients= -2.3532400000D-01
     Exponent=  3.4518000000D+00 Coefficients=  3.4148300000D-01
     Exponent=  1.9745600000D+00 Coefficients=  5.3478800000D-01
     Exponent=  1.0242000000D+00 Coefficients=  2.6514100000D-01
     Exponent=  4.4943700000D-01 Coefficients=  2.5787000000D-02
     Exponent=  1.8664800000D-01 Coefficients=  5.2200000000D-04
     Exponent=  7.3481000000D-02 Coefficients=  6.0600000000D-04
 P 9 1.00
     Exponent=  1.8898800000D+02 Coefficients= -2.5600000000D-04
     Exponent=  2.1286800000D+01 Coefficients= -1.1682000000D-02
     Exponent=  1.0039600000D+01 Coefficients=  8.3192000000D-02
     Exponent=  3.4518000000D+00 Coefficients= -1.5697000000D-01
     Exponent=  1.9745600000D+00 Coefficients= -2.2451800000D-01
     Exponent=  1.0242000000D+00 Coefficients= -1.1445100000D-01
     Exponent=  4.4943700000D-01 Coefficients=  3.7535600000D-01
     Exponent=  1.8664800000D-01 Coefficients=  5.7513600000D-01
     Exponent=  7.3481000000D-02 Coefficients=  2.4591700000D-01
 P 1 1.00
     Exponent=  5.9810000000D-01 Coefficients=  1.0000000000D+00
 P 1 1.00
     Exponent=  9.6180000000D-02 Coefficients=  1.0000000000D+00
 P 1 1.00
     Exponent=  3.5900000000D-02 Coefficients=  1.0000000000D+00
 D 9 1.00
     Exponent=  1.3266200000D+02 Coefficients=  5.7200000000D-04
     Exponent=  3.7605400000D+01 Coefficients=  4.4020000000D-03
     Exponent=  1.0389100000D+01 Coefficients= -4.0922000000D-02
     Exponent=  6.4901700000D+00 Coefficients=  9.9661000000D-02
     Exponent=  3.4545100000D+00 Coefficients=  3.2266300000D-01
     Exponent=  1.8441300000D+00 Coefficients=  4.0034300000D-01
     Exponent=  9.6247800000D-01 Coefficients=  2.6830600000D-01
     Exponent=  4.7285300000D-01 Coefficients=  8.4847000000D-02
     Exponent=  1.9320000000D-01 Coefficients=  7.6320000000D-03
 D 1 1.00
     Exponent=  4.7285300000D-01 Coefficients=  1.0000000000D+00
 D 1 1.00
     Exponent=  1.9320000000D-01 Coefficients=  1.0000000000D+00
 D 1 1.00
     Exponent=  7.8200000000D-02 Coefficients=  1.0000000000D+00
 F 1 1.00
     Exponent=  4.0640000000D-01 Coefficients=  1.0000000000D+00
 F 1 1.00
     Exponent=  1.8480000000D-01 Coefficients=  1.0000000000D+00
 ****
 ======================================================================================================
                                       Pseudopotential Parameters
 ======================================================================================================
  Center     Atomic      Valence      Angular      Power
  Number     Number     Electrons     Momentum     of R      Exponent        Coefficient   SO-Coeffient
 ======================================================================================================
    1          8
                                   No pseudopotential on this center.
    2          1
                                   No pseudopotential on this center.
    3         53           25
                                      G and up 
                                                     2        1.0000000        0.00000000    0.00000000
                                      S - G
                                                     2       40.0333760       49.98964900    0.00000000
                                                     2       17.3005760      281.00655600    0.00000000
                                                     2        8.8517200       61.41673900    0.00000000
                                      P - G
                                                     2       15.7201410       67.41623900    0.00000000
                                                     2       15.2082220      134.80769600    0.00000000
                                                     2        8.2941860       14.56654800    0.00000000
                                                     2        7.7539490       28.96842200    0.00000000
                                      D - G
                                                     2       13.8177510       35.53875600    0.00000000
                                                     2       13.5878050       53.33975900    0.00000000
                                                     2        6.9476300        9.71646600    0.00000000
                                                     2        6.9600990       14.97750000    0.00000000
                                      F - G
                                                     2       18.5229500      -20.17661800    0.00000000
                                                     2       18.2510350      -26.08807700    0.00000000
                                                     2        7.5579010       -0.22043400    0.00000000
                                                     2        7.5974040       -0.22164600    0.00000000
    4          1
                                   No pseudopotential on this center.
 ======================================================================================================
 Ernie: Thresh=  0.10000D-02 Tol=  0.10000D-05 Strict=F.
 Ernie:  10 primitive shells out of 113 were deleted.
   147 basis functions,   296 primitive gaussians,   170 cartesian basis functions
    18 alpha electrons       18 beta electrons
       nuclear repulsion energy        48.8680219043 Hartrees.
 IExCor=    0 DFT=F Ex=HF Corr=None ExCW=0 ScaHFX=  1.000000
 ScaDFX=  1.000000  1.000000  1.000000  1.000000 ScalE2=  1.000000  1.000000
 IRadAn=      5 IRanWt=     -1 IRanGd=            0 ICorTp=0 IEmpDi=  4
 NAtoms=    4 NActive=    4 NUniq=    4 SFac= 1.00D+00 NAtFMM=   60 NAOKFM=F Big=F
 Integral buffers will be    131072 words long.
 Raffenetti 1 integral format.
 Two-electron integral symmetry is turned off.
 Leave Link  301 at Tue Oct 26 13:19:54 2021, MaxMem= 16106127360 cpu:               2.5 elap:               0.1
 (Enter /sw/contrib/gaussian/g16/B01/g16/l302.exe)
 NPDir=0 NMtPBC=     1 NCelOv=     1 NCel=       1 NClECP=     1 NCelD=      1
         NCelK=      1 NCelE2=     1 NClLst=     1 CellRange=     0.0.
 One-electron integrals computed using PRISM.
   1 Symmetry operations used in ECPInt.
 ECPInt:  NShTT=    1225 NPrTT=    5557 LenC2=    1226 LenP2D=    4932.
 LDataN:  DoStor=T MaxTD1= 7 Len=  274
 NBasis=   147 RedAO= T EigKep=  1.85D-04  NBF=   147
 NBsUse=   147 1.00D-06 EigRej= -1.00D+00 NBFU=   147
 Leave Link  302 at Tue Oct 26 13:19:54 2021, MaxMem= 16106127360 cpu:               6.4 elap:               0.3
 (Enter /sw/contrib/gaussian/g16/B01/g16/l303.exe)
 DipDrv:  MaxL=1.
 Leave Link  303 at Tue Oct 26 13:19:54 2021, MaxMem= 16106127360 cpu:               0.6 elap:               0.0
 (Enter /sw/contrib/gaussian/g16/B01/g16/l401.exe)
 ExpMin= 2.53D-02 ExpMax= 1.53D+04 ExpMxC= 5.22D+02 IAcc=3 IRadAn=         5 AccDes= 0.00D+00
 Harris functional with IExCor=  205 and IRadAn=       5 diagonalized for initial guess.
 HarFok:  IExCor=  205 AccDes= 0.00D+00 IRadAn=         5 IDoV= 1 UseB2=F ITyADJ=14
 ICtDFT=  3500011 ScaDFX=  1.000000  1.000000  1.000000  1.000000
 Defaulting to unpruned grid for atomic number  53.
 FoFCou: FMM=F IPFlag=           0 FMFlag=      100000 FMFlg1=           0
         NFxFlg=           0 DoJE=T BraDBF=F KetDBF=T FulRan=T
         wScrn=  0.000000 ICntrl=       500 IOpCl=  0 I1Cent=   200000004 NGrid=           0
         NMat0=    1 NMatS0=      1 NMatT0=    0 NMatD0=    1 NMtDS0=    0 NMtDT0=    0
 Symmetry not used in FoFCou.
 Harris En= -372.628764845572    
 JPrj=0 DoOrth=F DoCkMO=F.
 Leave Link  401 at Tue Oct 26 13:19:55 2021, MaxMem= 16106127360 cpu:               6.9 elap:               0.3
 (Enter /sw/contrib/gaussian/g16/B01/g16/l502.exe)
 Keep R1 ints in memory in canonical form, NReq=117068943.
 FoFCou: FMM=F IPFlag=           0 FMFlag=           0 FMFlg1=           0
         NFxFlg=           0 DoJE=F BraDBF=F KetDBF=F FulRan=T
         wScrn=  0.000000 ICntrl=       600 IOpCl=  0 I1Cent=           0 NGrid=           0
         NMat0=    1 NMatS0=  10878 NMatT0=    0 NMatD0=    1 NMtDS0=    0 NMtDT0=    0
 Symmetry not used in FoFCou.
 Two-electron integral symmetry not used.
 Closed shell SCF:
 Using DIIS extrapolation, IDIIS=  1040.
 NGot= 16106127360 LenX= 16046892795 LenY= 16046863454
 Requested convergence on RMS density matrix=1.00D-08 within 128 cycles.
 Requested convergence on MAX density matrix=1.00D-06.
 Requested convergence on             energy=1.00D-06.
 No special actions if energy rises.

 Cycle   1  Pass 1  IDiag  1:
 E= -370.555701857456    
 DIIS: error= 4.40D-02 at cycle   1 NSaved=   1.
 NSaved= 1 IEnMin= 1 EnMin= -370.555701857456     IErMin= 1 ErrMin= 4.40D-02
 ErrMax= 4.40D-02  0.00D+00 EMaxC= 1.00D-01 BMatC= 4.26D-01 BMatP= 4.26D-01
 IDIUse=3 WtCom= 5.60D-01 WtEn= 4.40D-01
 Coeff-Com:  0.100D+01
 Coeff-En:   0.100D+01
 Coeff:      0.100D+01
 Gap=     0.376 Goal=   None    Shift=    0.000
 GapD=    0.376 DampG=1.000 DampE=0.500 DampFc=0.5000 IDamp=-1.
 Damping current iteration by 5.00D-01
 RMSDP=3.60D-03 MaxDP=9.98D-02              OVMax= 1.48D-01

 Cycle   2  Pass 1  IDiag  1:
 E= -370.657668323970     Delta-E=       -0.101966466514 Rises=F Damp=T
 DIIS: error= 1.55D-02 at cycle   2 NSaved=   2.
 NSaved= 2 IEnMin= 2 EnMin= -370.657668323970     IErMin= 2 ErrMin= 1.55D-02
 ErrMax= 1.55D-02  0.00D+00 EMaxC= 1.00D-01 BMatC= 6.18D-02 BMatP= 4.26D-01
 IDIUse=3 WtCom= 8.45D-01 WtEn= 1.55D-01
 Coeff-Com: -0.442D+00 0.144D+01
 Coeff-En:   0.000D+00 0.100D+01
 Coeff:     -0.373D+00 0.137D+01
 Gap=     0.252 Goal=   None    Shift=    0.000
 RMSDP=1.59D-03 MaxDP=7.77D-02 DE=-1.02D-01 OVMax= 6.67D-02

 Cycle   3  Pass 1  IDiag  1:
 E= -370.747723291374     Delta-E=       -0.090054967403 Rises=F Damp=F
 DIIS: error= 3.30D-03 at cycle   3 NSaved=   3.
 NSaved= 3 IEnMin= 3 EnMin= -370.747723291374     IErMin= 3 ErrMin= 3.30D-03
 ErrMax= 3.30D-03  0.00D+00 EMaxC= 1.00D-01 BMatC= 1.32D-03 BMatP= 6.18D-02
 IDIUse=3 WtCom= 9.67D-01 WtEn= 3.30D-02
 Coeff-Com: -0.942D-01 0.185D+00 0.910D+00
 Coeff-En:   0.000D+00 0.000D+00 0.100D+01
 Coeff:     -0.911D-01 0.178D+00 0.913D+00
 Gap=     0.264 Goal=   None    Shift=    0.000
 RMSDP=3.90D-04 MaxDP=1.71D-02 DE=-9.01D-02 OVMax= 8.21D-03

 Cycle   4  Pass 1  IDiag  1:
 E= -370.748631801330     Delta-E=       -0.000908509956 Rises=F Damp=F
 DIIS: error= 4.47D-04 at cycle   4 NSaved=   4.
 NSaved= 4 IEnMin= 4 EnMin= -370.748631801330     IErMin= 4 ErrMin= 4.47D-04
 ErrMax= 4.47D-04  0.00D+00 EMaxC= 1.00D-01 BMatC= 3.62D-05 BMatP= 1.32D-03
 IDIUse=3 WtCom= 9.96D-01 WtEn= 4.47D-03
 Coeff-Com:  0.686D-02-0.255D-01 0.474D-01 0.971D+00
 Coeff-En:   0.000D+00 0.000D+00 0.000D+00 0.100D+01
 Coeff:      0.683D-02-0.254D-01 0.472D-01 0.971D+00
 Gap=     0.266 Goal=   None    Shift=    0.000
 RMSDP=1.01D-04 MaxDP=5.42D-03 DE=-9.09D-04 OVMax= 2.53D-03

 Cycle   5  Pass 1  IDiag  1:
 E= -370.748676446382     Delta-E=       -0.000044645052 Rises=F Damp=F
 DIIS: error= 1.65D-04 at cycle   5 NSaved=   5.
 NSaved= 5 IEnMin= 5 EnMin= -370.748676446382     IErMin= 5 ErrMin= 1.65D-04
 ErrMax= 1.65D-04  0.00D+00 EMaxC= 1.00D-01 BMatC= 3.54D-06 BMatP= 3.62D-05
 IDIUse=3 WtCom= 9.98D-01 WtEn= 1.65D-03
 Coeff-Com:  0.652D-02-0.108D-01-0.634D-01 0.235D-01 0.104D+01
 Coeff-En:   0.000D+00 0.000D+00 0.000D+00 0.000D+00 0.100D+01
 Coeff:      0.651D-02-0.107D-01-0.633D-01 0.235D-01 0.104D+01
 Gap=     0.265 Goal=   None    Shift=    0.000
 RMSDP=4.14D-05 MaxDP=1.59D-03 DE=-4.46D-05 OVMax= 1.02D-03

 Cycle   6  Pass 1  IDiag  1:
 E= -370.748683090272     Delta-E=       -0.000006643890 Rises=F Damp=F
 DIIS: error= 5.43D-05 at cycle   6 NSaved=   6.
 NSaved= 6 IEnMin= 6 EnMin= -370.748683090272     IErMin= 6 ErrMin= 5.43D-05
 ErrMax= 5.43D-05  0.00D+00 EMaxC= 1.00D-01 BMatC= 2.89D-07 BMatP= 3.54D-06
 IDIUse=1 WtCom= 1.00D+00 WtEn= 0.00D+00
 Coeff-Com: -0.229D-02 0.476D-02 0.106D-01-0.101D+00-0.146D+00 0.123D+01
 Coeff:     -0.229D-02 0.476D-02 0.106D-01-0.101D+00-0.146D+00 0.123D+01
 Gap=     0.266 Goal=   None    Shift=    0.000
 RMSDP=1.09D-05 MaxDP=5.73D-04 DE=-6.64D-06 OVMax= 5.06D-04

 Cycle   7  Pass 1  IDiag  1:
 E= -370.748683858081     Delta-E=       -0.000000767809 Rises=F Damp=F
 DIIS: error= 1.07D-05 at cycle   7 NSaved=   7.
 NSaved= 7 IEnMin= 7 EnMin= -370.748683858081     IErMin= 7 ErrMin= 1.07D-05
 ErrMax= 1.07D-05  0.00D+00 EMaxC= 1.00D-01 BMatC= 9.02D-09 BMatP= 2.89D-07
 IDIUse=1 WtCom= 1.00D+00 WtEn= 0.00D+00
 Coeff-Com:  0.879D-04-0.293D-03 0.106D-02 0.169D-01-0.344D-01-0.188D+00
 Coeff-Com:  0.121D+01
 Coeff:      0.879D-04-0.293D-03 0.106D-02 0.169D-01-0.344D-01-0.188D+00
 Coeff:      0.121D+01
 Gap=     0.266 Goal=   None    Shift=    0.000
 RMSDP=2.28D-06 MaxDP=9.95D-05 DE=-7.68D-07 OVMax= 9.90D-05

 Cycle   8  Pass 1  IDiag  1:
 E= -370.748683887497     Delta-E=       -0.000000029416 Rises=F Damp=F
 DIIS: error= 1.92D-06 at cycle   8 NSaved=   8.
 NSaved= 8 IEnMin= 8 EnMin= -370.748683887497     IErMin= 8 ErrMin= 1.92D-06
 ErrMax= 1.92D-06  0.00D+00 EMaxC= 1.00D-01 BMatC= 3.80D-10 BMatP= 9.02D-09
 IDIUse=1 WtCom= 1.00D+00 WtEn= 0.00D+00
 Coeff-Com:  0.962D-04-0.190D-03-0.542D-03 0.338D-02 0.769D-02-0.377D-01
 Coeff-Com: -0.107D+00 0.113D+01
 Coeff:      0.962D-04-0.190D-03-0.542D-03 0.338D-02 0.769D-02-0.377D-01
 Coeff:     -0.107D+00 0.113D+01
 Gap=     0.266 Goal=   None    Shift=    0.000
 RMSDP=6.75D-07 MaxDP=3.80D-05 DE=-2.94D-08 OVMax= 1.68D-05

 Cycle   9  Pass 1  IDiag  1:
 E= -370.748683888521     Delta-E=       -0.000000001024 Rises=F Damp=F
 DIIS: error= 4.68D-07 at cycle   9 NSaved=   9.
 NSaved= 9 IEnMin= 9 EnMin= -370.748683888521     IErMin= 9 ErrMin= 4.68D-07
 ErrMax= 4.68D-07  0.00D+00 EMaxC= 1.00D-01 BMatC= 2.35D-11 BMatP= 3.80D-10
 IDIUse=1 WtCom= 1.00D+00 WtEn= 0.00D+00
 Coeff-Com: -0.217D-04 0.503D-04 0.131D-04-0.156D-02 0.121D-02 0.162D-01
 Coeff-Com: -0.443D-01-0.208D+00 0.124D+01
 Coeff:     -0.217D-04 0.503D-04 0.131D-04-0.156D-02 0.121D-02 0.162D-01
 Coeff:     -0.443D-01-0.208D+00 0.124D+01
 Gap=     0.266 Goal=   None    Shift=    0.000
 RMSDP=1.41D-07 MaxDP=8.12D-06 DE=-1.02D-09 OVMax= 3.84D-06

 Cycle  10  Pass 1  IDiag  1:
 E= -370.748683888582     Delta-E=       -0.000000000061 Rises=F Damp=F
 DIIS: error= 1.01D-07 at cycle  10 NSaved=  10.
 NSaved=10 IEnMin=10 EnMin= -370.748683888582     IErMin=10 ErrMin= 1.01D-07
 ErrMax= 1.01D-07  0.00D+00 EMaxC= 1.00D-01 BMatC= 1.32D-12 BMatP= 2.35D-11
 IDIUse=1 WtCom= 1.00D+00 WtEn= 0.00D+00
 Coeff-Com: -0.712D-05 0.142D-04 0.320D-04-0.303D-03-0.369D-03 0.340D-02
 Coeff-Com:  0.236D-02-0.756D-01 0.979D-01 0.973D+00
 Coeff:     -0.712D-05 0.142D-04 0.320D-04-0.303D-03-0.369D-03 0.340D-02
 Coeff:      0.236D-02-0.756D-01 0.979D-01 0.973D+00
 Gap=     0.266 Goal=   None    Shift=    0.000
 RMSDP=1.91D-08 MaxDP=7.45D-07 DE=-6.10D-11 OVMax= 6.69D-07

 Cycle  11  Pass 1  IDiag  1:
 E= -370.748683888585     Delta-E=       -0.000000000003 Rises=F Damp=F
 DIIS: error= 2.50D-08 at cycle  11 NSaved=  11.
 NSaved=11 IEnMin=11 EnMin= -370.748683888585     IErMin=11 ErrMin= 2.50D-08
 ErrMax= 2.50D-08  0.00D+00 EMaxC= 1.00D-01 BMatC= 8.41D-14 BMatP= 1.32D-12
 IDIUse=1 WtCom= 1.00D+00 WtEn= 0.00D+00
 Coeff-Com:  0.201D-05-0.462D-05-0.123D-05 0.138D-03-0.112D-03-0.134D-02
 Coeff-Com:  0.300D-02 0.204D-01-0.106D+00-0.477D-01 0.113D+01
 Coeff:      0.201D-05-0.462D-05-0.123D-05 0.138D-03-0.112D-03-0.134D-02
 Coeff:      0.300D-02 0.204D-01-0.106D+00-0.477D-01 0.113D+01
 Gap=     0.266 Goal=   None    Shift=    0.000
 RMSDP=1.40D-08 MaxDP=8.96D-07 DE=-2.67D-12 OVMax= 3.18D-07

 Cycle  12  Pass 1  IDiag  1:
 E= -370.748683888584     Delta-E=        0.000000000001 Rises=F Damp=F
 DIIS: error= 3.21D-09 at cycle  12 NSaved=  12.
 NSaved=12 IEnMin=11 EnMin= -370.748683888585     IErMin=12 ErrMin= 3.21D-09
 ErrMax= 3.21D-09  0.00D+00 EMaxC= 1.00D-01 BMatC= 2.12D-15 BMatP= 8.41D-14
 IDIUse=1 WtCom= 1.00D+00 WtEn= 0.00D+00
 Coeff-Com: -0.239D-06 0.637D-06-0.557D-06-0.226D-04 0.391D-04 0.186D-03
 Coeff-Com: -0.661D-03-0.239D-02 0.213D-01-0.195D-01-0.241D+00 0.124D+01
 Coeff:     -0.239D-06 0.637D-06-0.557D-06-0.226D-04 0.391D-04 0.186D-03
 Coeff:     -0.661D-03-0.239D-02 0.213D-01-0.195D-01-0.241D+00 0.124D+01
 Gap=     0.266 Goal=   None    Shift=    0.000
 RMSDP=3.20D-09 MaxDP=2.12D-07 DE= 1.02D-12 OVMax= 6.65D-08

 SCF Done:  E(RHF) =  -370.748683889     A.U. after   12 cycles
            NFock= 12  Conv=0.32D-08     -V/T= 2.9775
 KE= 1.874813899429D+02 PE=-9.116399557770D+02 EE= 3.045418600413D+02
 Leave Link  502 at Tue Oct 26 13:19:57 2021, MaxMem= 16106127360 cpu:              33.2 elap:               2.2
 (Enter /sw/contrib/gaussian/g16/B01/g16/l801.exe)
 ExpMin= 2.53D-02 ExpMax= 1.53D+04 ExpMxC= 5.22D+02 IAcc=3 IRadAn=         5 AccDes= 0.00D+00
 HarFok:  IExCor=  205 AccDes= 0.00D+00 IRadAn=         5 IDoV=-2 UseB2=F ITyADJ=14
 ICtDFT= 12500011 ScaDFX=  1.000000  1.000000  1.000000  1.000000
 Defaulting to unpruned grid for atomic number  53.
 Largest valence mixing into a core orbital is  1.30D-04
 Largest core mixing into a valence orbital is  1.69D-05
 Range of M.O.s used for correlation:     6   147
 NBasis=   147 NAE=    18 NBE=    18 NFC=     5 NFV=     0
 NROrb=    142 NOA=    13 NOB=    13 NVA=   129 NVB=   129

 **** Warning!!: The largest alpha MO coefficient is  0.20843581D+02

 Leave Link  801 at Tue Oct 26 13:19:57 2021, MaxMem= 16106127360 cpu:               3.2 elap:               0.2
 (Enter /sw/contrib/gaussian/g16/B01/g16/l906.exe)
 Frozen-core derivative calculation, NFC=   5 NFV=   0.
 FulOut=F Deriv=T AODrv=F NAtomX=     4
   MMem=         225  MDisk=          13 MDiskD=          13
  W3Min=      449820 MinDsk=      818995 NBas6D=         170
 NBas2D=       14925    NTT=       14535    LW2=    26219120
    MDV= 16105851883 MDiskM=      473642 NBas2p=       14925
 Fully in-core method, ICMem=   303093605.
 IMap=   1   2   3   4   5   6   7   8   9  10  11  12  13  14  15  16  17  18
 JobTyp=1 Pass  1 fully in-core, NPsUse= 28.
 Compute canonical integrals.
 FoFCou: FMM=F IPFlag=           0 FMFlag=           0 FMFlg1=           0
         NFxFlg=           0 DoJE=F BraDBF=F KetDBF=F FulRan=T
         wScrn=  0.000000 ICntrl=       600 IOpCl=  1 I1Cent=           0 NGrid=           0
         NMat0=    1 NMatS0=  14925 NMatT0=    0 NMatD0=    1 NMtDS0=    0 NMtDT0=    0
 Symmetry not used in FoFCou.
 Spin components of T(2) and E(2):
     alpha-alpha T2 =       0.2049087470D-01 E2=     -0.6573550623D-01
     alpha-beta  T2 =       0.1074817821D+00 E2=     -0.3543126329D+00
     beta-beta   T2 =       0.2049087470D-01 E2=     -0.6573550623D-01
 The integrals were generated   1 times.
 ANorm=    0.1071663908D+01
 E2 =    -0.4857836454D+00 EUMP2 =    -0.37123446753397D+03
 Leave Link  906 at Tue Oct 26 13:20:00 2021, MaxMem= 16106127360 cpu:              82.6 elap:               3.0
 (Enter /sw/contrib/gaussian/g16/B01/g16/l1002.exe)
 Minotr:  Closed shell wavefunction.
          Computing MP2/KS-MP2 derivatives.
          Using Z-Vector for PSCF gradient.
          Skipping F1 and S1 gradient terms here.
          Frozen-core window.
          Direct CPHF calculation.
          Differentiating once with respect to electric field.
                with respect to dipole field.
          Electric field/nuclear overlap derivatives assumed to be zero.
          Requested convergence is 1.0D-10 RMS, and 1.0D-09 maximum.
          NewPWx=F KeepS1=T KeepF1=T KeepIn=T MapXYZ=F SortEE=F KeepMc=T.
 Keep R1 ints in memory in canonical form, NReq=117071895.
 FoFCou: FMM=F IPFlag=           0 FMFlag=           0 FMFlg1=           0
         NFxFlg=           0 DoJE=F BraDBF=F KetDBF=F FulRan=T
         wScrn=  0.000000 ICntrl=       600 IOpCl=  0 I1Cent=           0 NGrid=           0
         NMat0=    1 NMatS0=  10878 NMatT0=    0 NMatD0=    1 NMtDS0=    0 NMtDT0=    0
 Symmetry not used in FoFCou.
 Two-electron integral symmetry not used.
          MDV=   16106127360 using IRadAn=       5.
          Solving linear equations separately, MaxMat=       0.
          There are     1 degrees of freedom in the 1st order CPHF.  IDoFFX=0 NUNeed=     1.
 LinEq1:  Iter=  0 NonCon=     1 RMS=2.33D-03 Max=3.34D-02 NDo=     1
 AX will form     1 AO Fock derivatives at one time.
 LinEq1:  Iter=  1 NonCon=     1 RMS=3.66D-04 Max=3.09D-03 NDo=     1
 LinEq1:  Iter=  2 NonCon=     1 RMS=1.71D-04 Max=1.91D-03 NDo=     1
 LinEq1:  Iter=  3 NonCon=     1 RMS=3.32D-05 Max=4.56D-04 NDo=     1
 LinEq1:  Iter=  4 NonCon=     1 RMS=7.48D-06 Max=7.35D-05 NDo=     1
 LinEq1:  Iter=  5 NonCon=     1 RMS=2.37D-06 Max=2.80D-05 NDo=     1
 LinEq1:  Iter=  6 NonCon=     1 RMS=4.87D-07 Max=5.14D-06 NDo=     1
 LinEq1:  Iter=  7 NonCon=     1 RMS=1.02D-07 Max=1.30D-06 NDo=     1
 LinEq1:  Iter=  8 NonCon=     1 RMS=2.80D-08 Max=2.97D-07 NDo=     1
 LinEq1:  Iter=  9 NonCon=     1 RMS=5.95D-09 Max=7.95D-08 NDo=     1
 LinEq1:  Iter= 10 NonCon=     1 RMS=1.08D-09 Max=1.28D-08 NDo=     1
 LinEq1:  Iter= 11 NonCon=     1 RMS=1.70D-10 Max=2.35D-09 NDo=     1
 LinEq1:  Iter= 12 NonCon=     0 RMS=3.24D-11 Max=4.36D-10 NDo=     1
 Linear equations converged to 1.000D-10 1.000D-09 after    12 iterations.
 End of Minotr F.D. properties file   721 does not exist.
 End of Minotr F.D. properties file   722 does not exist.
 End of Minotr F.D. properties file   788 does not exist.
 Leave Link 1002 at Tue Oct 26 13:20:02 2021, MaxMem= 16106127360 cpu:              35.0 elap:               2.4
 (Enter /sw/contrib/gaussian/g16/B01/g16/l601.exe)
 Copying SCF densities to generalized density rwf, IOpCl= 0 IROHF=0.

 **********************************************************************

            Population analysis using the MP2 Density.

 **********************************************************************

 Alpha  occ. eigenvalues --  -20.39346  -7.46085  -5.28630  -5.28617  -5.28616
 Alpha  occ. eigenvalues --   -2.01366  -2.01362  -2.01361  -2.01345  -2.01345
 Alpha  occ. eigenvalues --   -1.27445  -0.62799  -0.61285  -0.45798  -0.37048
 Alpha  occ. eigenvalues --   -0.14050  -0.13637  -0.13605
 Alpha virt. eigenvalues --    0.12951   0.16784   0.23457   0.24494   0.25419
 Alpha virt. eigenvalues --    0.26613   0.27975   0.28480   0.31351   0.33101
 Alpha virt. eigenvalues --    0.36848   0.37346   0.37575   0.39645   0.40755
 Alpha virt. eigenvalues --    0.41649   0.45424   0.47499   0.53866   0.54449
 Alpha virt. eigenvalues --    0.56995   0.60135   0.66362   0.70798   0.77247
 Alpha virt. eigenvalues --    0.78653   0.78720   0.79922   0.80484   0.80593
 Alpha virt. eigenvalues --    0.82489   0.84421   0.85562   0.85597   0.87185
 Alpha virt. eigenvalues --    0.87509   0.88371   0.88891   0.89095   0.90298
 Alpha virt. eigenvalues --    0.92103   0.97464   0.98642   1.06996   1.07026
 Alpha virt. eigenvalues --    1.09057   1.09296   1.12131   1.12721   1.15133
 Alpha virt. eigenvalues --    1.18244   1.20612   1.33835   1.36763   1.38858
 Alpha virt. eigenvalues --    1.43381   1.46051   1.53862   1.56425   1.66895
 Alpha virt. eigenvalues --    1.73461   1.75725   1.75750   1.77480   1.78735
 Alpha virt. eigenvalues --    1.81229   1.81476   1.84746   1.88134   1.88885
 Alpha virt. eigenvalues --    1.99967   2.05820   2.06068   2.10407   2.10977
 Alpha virt. eigenvalues --    2.11671   2.17531   2.27917   2.43228   2.49356
 Alpha virt. eigenvalues --    2.55819   2.59235   2.63295   2.65902   2.80817
 Alpha virt. eigenvalues --    2.83513   2.85582   2.95585   3.05349   3.06381
 Alpha virt. eigenvalues --    3.13598   3.22668   3.25466   3.87035   3.97353
 Alpha virt. eigenvalues --    4.14762   4.26254   4.34996   4.42377   4.52516
 Alpha virt. eigenvalues --    4.58006   4.64332   4.66136   4.73790   4.78464
 Alpha virt. eigenvalues --    5.04392   5.19454   5.39228   5.46518   5.60416
 Alpha virt. eigenvalues --    6.06369   6.08305   6.49646   6.65242   6.75577
 Alpha virt. eigenvalues --    6.95539   7.23253   7.39106   7.40102   7.41607
 Alpha virt. eigenvalues --    7.46093   7.92036   8.03257   8.33927   8.48099
 Alpha virt. eigenvalues --    9.29034   9.68873  21.42924  59.21686
          Condensed to atoms (all electrons):
               1          2          3          4
     1  O    7.936508   0.258409  -0.040194   0.177669
     2  H    0.258409   0.590087   0.009779  -0.040103
     3  I   -0.040194   0.009779  25.976264   0.018311
     4  H    0.177669  -0.040103   0.018311   0.729400
 Mulliken charges:
               1
     1  O   -0.332391
     2  H    0.181828
     3  I   -0.964160
     4  H    0.114724
 Sum of Mulliken charges =  -1.00000
 Mulliken charges with hydrogens summed into heavy atoms:
               1
     1  O   -0.035840
     3  I   -0.964160
 Electronic spatial extent (au):  <R**2>=           1236.3422
 Charge=             -1.0000 electrons
 Dipole moment (field-independent basis, Debye):
    X=              4.3911    Y=             14.4498    Z=             -0.0000  Tot=             15.1023
 Quadrupole moment (field-independent basis, Debye-Ang):
   XX=            -41.4072   YY=            -94.4377   ZZ=            -41.8049
   XY=            -10.4109   XZ=              0.0000   YZ=              0.0000
 Traceless Quadrupole moment (field-independent basis, Debye-Ang):
   XX=             17.8094   YY=            -35.2211   ZZ=             17.4117
   XY=            -10.4109   XZ=              0.0000   YZ=              0.0000
 Octapole moment (field-independent basis, Debye-Ang**2):
  XXX=             75.0649  YYY=            535.6856  ZZZ=             -0.0000  XYY=             60.8283
  XXY=            124.9130  XXZ=             -0.0000  XZZ=             23.8403  YZZ=            117.3495
  YYZ=             -0.0000  XYZ=             -0.0000
 Hexadecapole moment (field-independent basis, Debye-Ang**3):
 XXXX=           -182.5032 YYYY=          -3112.7659 ZZZZ=            -77.5305 XXXY=           -256.2824
 XXXZ=              0.0000 YYYX=           -376.8718 YYYZ=              0.0000 ZZZX=              0.0000
 ZZZY=              0.0000 XXYY=           -471.0150 XXZZ=            -43.5429 YYZZ=           -427.8816
 XXYZ=              0.0000 YYXZ=              0.0000 ZZXY=            -83.7364
 N-N= 4.886802190427D+01 E-N=-9.110503875834D+02  KE= 1.876389063429D+02
 No NMR shielding tensors so no spin-rotation constants.
 Leave Link  601 at Tue Oct 26 13:20:03 2021, MaxMem= 16106127360 cpu:               7.7 elap:               0.3
 (Enter /sw/contrib/gaussian/g16/B01/g16/l607.exe)
 ******************************Gaussian NBO Version 3.1******************************
             N A T U R A L   A T O M I C   O R B I T A L   A N D
          N A T U R A L   B O N D   O R B I T A L   A N A L Y S I S
 ******************************Gaussian NBO Version 3.1******************************
       /RESON  / : Allow strongly delocalized NBO set

 Analyzing the MP2 density

 Job title: title                                                           

 Storage needed:     65577 in NPA,     86948 in NBO (********** available)
 GSVD:  LWork=         -15 too small for GESVD, short by       42345 words or       42345 for optimal perf.


 NATURAL POPULATIONS:  Natural atomic orbital occupancies 
                                                          
   NAO  Atom  No  lang   Type(AO)    Occupancy
 --------------------------------------------
     1    O    1  S      Cor( 1S)     1.99949
     2    O    1  S      Val( 2S)     1.65134
     3    O    1  S      Ryd( 3S)     0.00621
     4    O    1  S      Ryd( 4S)     0.00047
     5    O    1  S      Ryd( 5S)     0.00021
     6    O    1  px     Val( 2p)     1.51969
     7    O    1  px     Ryd( 3p)     0.00850
     8    O    1  px     Ryd( 4p)     0.00053
     9    O    1  px     Ryd( 5p)     0.00005
    10    O    1  py     Val( 2p)     1.63997
    11    O    1  py     Ryd( 3p)     0.01282
    12    O    1  py     Ryd( 4p)     0.00051
    13    O    1  py     Ryd( 5p)     0.00007
    14    O    1  pz     Val( 2p)     1.95430
    15    O    1  pz     Ryd( 3p)     0.01935
    16    O    1  pz     Ryd( 4p)     0.00056
    17    O    1  pz     Ryd( 5p)     0.00002
    18    O    1  dxy    Ryd( 3d)     0.00813
    19    O    1  dxy    Ryd( 4d)     0.00038
    20    O    1  dxy    Ryd( 5d)     0.00006
    21    O    1  dxz    Ryd( 3d)     0.00752
    22    O    1  dxz    Ryd( 4d)     0.00039
    23    O    1  dxz    Ryd( 5d)     0.00006
    24    O    1  dyz    Ryd( 3d)     0.00808
    25    O    1  dyz    Ryd( 4d)     0.00039
    26    O    1  dyz    Ryd( 5d)     0.00010
    27    O    1  dx2y2  Ryd( 3d)     0.01055
    28    O    1  dx2y2  Ryd( 4d)     0.00023
    29    O    1  dx2y2  Ryd( 5d)     0.00008
    30    O    1  dz2    Ryd( 3d)     0.00873
    31    O    1  dz2    Ryd( 4d)     0.00035
    32    O    1  dz2    Ryd( 5d)     0.00007
    33    O    1  f(0)   Ryd( 4f)     0.00062
    34    O    1  f(0)   Ryd( 5f)     0.00009
    35    O    1  f(C1)  Ryd( 4f)     0.00054
    36    O    1  f(C1)  Ryd( 5f)     0.00007
    37    O    1  f(S1)  Ryd( 4f)     0.00050
    38    O    1  f(S1)  Ryd( 5f)     0.00009
    39    O    1  f(C2)  Ryd( 4f)     0.00042
    40    O    1  f(C2)  Ryd( 5f)     0.00008
    41    O    1  f(S2)  Ryd( 4f)     0.00043
    42    O    1  f(S2)  Ryd( 5f)     0.00007
    43    O    1  f(C3)  Ryd( 4f)     0.00037
    44    O    1  f(C3)  Ryd( 5f)     0.00011
    45    O    1  f(S3)  Ryd( 4f)     0.00035
    46    O    1  f(S3)  Ryd( 5f)     0.00013

    47    H    2  S      Val( 1S)     0.55089
    48    H    2  S      Ryd( 2S)     0.00136
    49    H    2  S      Ryd( 3S)     0.00021
    50    H    2  S      Ryd( 4S)     0.00006
    51    H    2  px     Ryd( 2p)     0.00122
    52    H    2  px     Ryd( 3p)     0.00042
    53    H    2  px     Ryd( 4p)     0.00013
    54    H    2  py     Ryd( 2p)     0.00193
    55    H    2  py     Ryd( 3p)     0.00023
    56    H    2  py     Ryd( 4p)     0.00008
    57    H    2  pz     Ryd( 2p)     0.00536
    58    H    2  pz     Ryd( 3p)     0.00018
    59    H    2  pz     Ryd( 4p)     0.00005
    60    H    2  dxy    Ryd( 3d)     0.00006
    61    H    2  dxy    Ryd( 4d)     0.00005
    62    H    2  dxz    Ryd( 3d)     0.00007
    63    H    2  dxz    Ryd( 4d)     0.00006
    64    H    2  dyz    Ryd( 3d)     0.00011
    65    H    2  dyz    Ryd( 4d)     0.00003
    66    H    2  dx2y2  Ryd( 3d)     0.00009
    67    H    2  dx2y2  Ryd( 4d)     0.00004
    68    H    2  dz2    Ryd( 3d)     0.00010
    69    H    2  dz2    Ryd( 4d)     0.00004

    70    I    3  S      Cor( 4S)     2.00002
    71    I    3  S      Val( 5S)     1.98055
    72    I    3  S      Ryd( 6S)     0.00379
    73    I    3  S      Ryd( 7S)     0.00058
    74    I    3  S      Ryd( 8S)     0.00009
    75    I    3  S      Ryd( 9S)     0.00000
    76    I    3  px     Cor( 4p)     2.00007
    77    I    3  px     Val( 5p)     1.95115
    78    I    3  px     Ryd( 6p)     0.01124
    79    I    3  px     Ryd( 7p)     0.00076
    80    I    3  px     Ryd( 8p)     0.00008
    81    I    3  py     Cor( 4p)     2.00007
    82    I    3  py     Val( 5p)     1.94649
    83    I    3  py     Ryd( 6p)     0.01042
    84    I    3  py     Ryd( 7p)     0.00069
    85    I    3  py     Ryd( 8p)     0.00014
    86    I    3  pz     Cor( 4p)     2.00007
    87    I    3  pz     Val( 5p)     1.95169
    88    I    3  pz     Ryd( 6p)     0.01123
    89    I    3  pz     Ryd( 7p)     0.00076
    90    I    3  pz     Ryd( 8p)     0.00008
    91    I    3  dxy    Cor( 4d)     1.99676
    92    I    3  dxy    Ryd( 5d)     0.02037
    93    I    3  dxy    Ryd( 6d)     0.00150
    94    I    3  dxy    Ryd( 7d)     0.00018
    95    I    3  dxz    Cor( 4d)     1.99679
    96    I    3  dxz    Ryd( 5d)     0.02023
    97    I    3  dxz    Ryd( 6d)     0.00169
    98    I    3  dxz    Ryd( 7d)     0.00017
    99    I    3  dyz    Cor( 4d)     1.99677
   100    I    3  dyz    Ryd( 5d)     0.02028
   101    I    3  dyz    Ryd( 6d)     0.00148
   102    I    3  dyz    Ryd( 7d)     0.00017
   103    I    3  dx2y2  Cor( 4d)     1.99674
   104    I    3  dx2y2  Ryd( 5d)     0.02022
   105    I    3  dx2y2  Ryd( 6d)     0.00163
   106    I    3  dx2y2  Ryd( 7d)     0.00021
   107    I    3  dz2    Cor( 4d)     1.99677
   108    I    3  dz2    Ryd( 5d)     0.02024
   109    I    3  dz2    Ryd( 6d)     0.00168
   110    I    3  dz2    Ryd( 7d)     0.00018
   111    I    3  f(0)   Ryd( 4f)     0.00275
   112    I    3  f(0)   Ryd( 5f)     0.00043
   113    I    3  f(C1)  Ryd( 4f)     0.00276
   114    I    3  f(C1)  Ryd( 5f)     0.00043
   115    I    3  f(S1)  Ryd( 4f)     0.00276
   116    I    3  f(S1)  Ryd( 5f)     0.00046
   117    I    3  f(C2)  Ryd( 4f)     0.00274
   118    I    3  f(C2)  Ryd( 5f)     0.00043
   119    I    3  f(S2)  Ryd( 4f)     0.00278
   120    I    3  f(S2)  Ryd( 5f)     0.00044
   121    I    3  f(C3)  Ryd( 4f)     0.00271
   122    I    3  f(C3)  Ryd( 5f)     0.00044
   123    I    3  f(S3)  Ryd( 4f)     0.00274
   124    I    3  f(S3)  Ryd( 5f)     0.00046

   125    H    4  S      Val( 1S)     0.56691
   126    H    4  S      Ryd( 2S)     0.00581
   127    H    4  S      Ryd( 3S)     0.00036
   128    H    4  S      Ryd( 4S)     0.00013
   129    H    4  px     Ryd( 2p)     0.00331
   130    H    4  px     Ryd( 3p)     0.00029
   131    H    4  px     Ryd( 4p)     0.00013
   132    H    4  py     Ryd( 2p)     0.00399
   133    H    4  py     Ryd( 3p)     0.00061
   134    H    4  py     Ryd( 4p)     0.00025
   135    H    4  pz     Ryd( 2p)     0.00427
   136    H    4  pz     Ryd( 3p)     0.00034
   137    H    4  pz     Ryd( 4p)     0.00013
   138    H    4  dxy    Ryd( 3d)     0.00016
   139    H    4  dxy    Ryd( 4d)     0.00008
   140    H    4  dxz    Ryd( 4d)     0.00009
   141    H    4  dxz    Ryd( 3d)     0.00012
   142    H    4  dyz    Ryd( 3d)     0.00016
   143    H    4  dyz    Ryd( 4d)     0.00007
   144    H    4  dx2y2  Ryd( 3d)     0.00019
   145    H    4  dx2y2  Ryd( 4d)     0.00013
   146    H    4  dz2    Ryd( 3d)     0.00014
   147    H    4  dz2    Ryd( 4d)     0.00014

 [ 28 electrons found in the effective core potential]

 WARNING:  5 low occupancy (<1.9990e) core orbitals found on  I    3


 Summary of Natural Population Analysis:                  
                                                          
                                       Natural Population 
                Natural  -----------------------------------------------
    Atom  No    Charge         Core      Valence    Rydberg      Total
 -----------------------------------------------------------------------
      O    1   -0.86307      1.99949     6.76530    0.09828     8.86307
      H    2    0.43723      0.00000     0.55089    0.01189     0.56277
      I    3   -0.98635     45.98405     7.82988    0.17242    53.98635
      H    4    0.41219      0.00000     0.56691    0.02090     0.58781
 =======================================================================
   * Total *   -1.00000     47.98354    15.71297    0.30349    64.00000

                                 Natural Population      
 --------------------------------------------------------
   Effective Core            28.00000
   Core                      19.98354 ( 99.9177% of  20)
   Valence                   15.71297 ( 98.2061% of  16)
   Natural Minimal Basis     63.69651 ( 99.5258% of  64)
   Natural Rydberg Basis      0.30349 (  0.4742% of  64)
 --------------------------------------------------------

    Atom  No          Natural Electron Configuration
 ----------------------------------------------------------------------------
      O    1      [core]2S( 1.65)2p( 5.11)3S( 0.01)3p( 0.04)3d( 0.04)
      H    2            1S( 0.55)2p( 0.01)
      I    3      [core]5S( 1.98)5p( 5.85)4f( 0.02)5d( 0.10)6p( 0.03)6d( 0.01)
      H    4            1S( 0.57)2S( 0.01)2p( 0.01)


 NATURAL BOND ORBITAL ANALYSIS:

                       Occupancies       Lewis Structure    Low   High
           Occ.    -------------------  -----------------   occ   occ
  Cycle   Thresh.   Lewis   Non-Lewis     CR  BD  3C  LP    (L)   (NL)   Dev
 =============================================================================
   1(1)    1.90    63.69071   0.30929     10   2   0   6     0      0    0.01
 -----------------------------------------------------------------------------

 Structure accepted: No low occupancy Lewis orbitals

 WARNING:  5 low occupancy (<1.9990e) core orbitals found on  I    3

 --------------------------------------------------------
   Effective Core           28.00000
   Core                     19.98354 ( 99.918% of  20)
   Valence Lewis            15.70717 ( 98.170% of  16)
  ==================       ============================
   Total Lewis              63.69071 ( 99.517% of  64)
  -----------------------------------------------------
   Valence non-Lewis         0.03598 (  0.056% of  64)
   Rydberg non-Lewis         0.27330 (  0.427% of  64)
  ==================       ============================
   Total non-Lewis           0.30929 (  0.483% of  64)
 --------------------------------------------------------


       (Occupancy)   Bond orbital/ Coefficients/ Hybrids
 ---------------------------------------------------------------------------------
     1. (1.96782) BD ( 1) O   1 - H   2  
                ( 72.76%)   0.8530* O   1 s( 20.39%)p 3.89( 79.21%)d 0.02(  0.39%)
                                                  f 0.00(  0.01%)
                                            0.0002  0.4515 -0.0007 -0.0012 -0.0020
                                            0.8848 -0.0262  0.0104 -0.0018  0.0903
                                           -0.0187  0.0008 -0.0019  0.0000  0.0000
                                            0.0000  0.0000 -0.0237  0.0022 -0.0000
                                            0.0000  0.0000  0.0000  0.0000  0.0000
                                            0.0000  0.0466 -0.0031 -0.0025 -0.0338
                                            0.0036  0.0007  0.0000  0.0000 -0.0096
                                           -0.0002  0.0003 -0.0005  0.0000  0.0000
                                            0.0000  0.0000  0.0026  0.0023  0.0026
                                           -0.0001
                ( 27.24%)   0.5220* H   2 s( 99.92%)p 0.00(  0.08%)d 0.00(  0.00%)
                                            0.9996  0.0025 -0.0002  0.0003  0.0090
                                            0.0234 -0.0055 -0.0098 -0.0043 -0.0026
                                            0.0000  0.0000  0.0000 -0.0009 -0.0012
                                            0.0000  0.0000  0.0000  0.0000 -0.0038
                                           -0.0009 -0.0002  0.0008
     2. (1.97715) BD ( 1) O   1 - H   4  
                ( 71.85%)   0.8476* O   1 s( 36.43%)p 1.73( 63.17%)d 0.01(  0.39%)
                                                  f 0.00(  0.01%)
                                           -0.0003 -0.6033  0.0195  0.0031  0.0033
                                            0.2273 -0.0239  0.0004 -0.0010  0.7599
                                           -0.0448  0.0038 -0.0003  0.0000  0.0000
                                            0.0000  0.0000 -0.0029 -0.0047 -0.0009
                                            0.0000  0.0000  0.0000  0.0000  0.0000
                                            0.0000  0.0504  0.0021 -0.0023  0.0356
                                            0.0020  0.0008  0.0000  0.0000 -0.0019
                                           -0.0003 -0.0080 -0.0023  0.0000  0.0000
                                            0.0000  0.0000 -0.0031 -0.0035 -0.0019
                                           -0.0049
                ( 28.15%)   0.5306* H   4 s( 99.88%)p 0.00(  0.11%)d 0.00(  0.01%)
                                           -0.9994  0.0083 -0.0002  0.0004 -0.0137
                                            0.0028 -0.0016 -0.0141  0.0240 -0.0100
                                            0.0000  0.0000  0.0000  0.0027 -0.0015
                                            0.0000  0.0000  0.0000  0.0000 -0.0062
                                            0.0047 -0.0040  0.0054
     3. (1.99949) CR ( 1) O   1           s(100.00%)
                                            1.0000 -0.0005  0.0000  0.0000  0.0000
                                           -0.0000  0.0000 -0.0000  0.0000  0.0001
                                           -0.0000  0.0000  0.0000  0.0000  0.0000
                                            0.0000  0.0000 -0.0000 -0.0000 -0.0000
                                            0.0000  0.0000  0.0000  0.0000  0.0000
                                            0.0000  0.0000  0.0000 -0.0000  0.0000
                                            0.0000  0.0000  0.0000  0.0000  0.0000
                                            0.0000 -0.0000 -0.0000  0.0000  0.0000
                                            0.0000  0.0000 -0.0000 -0.0000 -0.0000
                                           -0.0000
     4. (2.00002) CR ( 1) I   3           s(100.00%)
                                            1.0000 -0.0000  0.0000 -0.0000 -0.0000
                                           -0.0000  0.0000 -0.0000 -0.0000 -0.0000
                                            0.0000  0.0000 -0.0000  0.0000  0.0000
                                           -0.0000  0.0000  0.0000  0.0000  0.0000
                                            0.0000  0.0000 -0.0000  0.0000 -0.0000
                                            0.0000  0.0000  0.0000  0.0000  0.0000
                                            0.0000  0.0000  0.0000 -0.0000  0.0000
                                           -0.0000 -0.0000 -0.0000  0.0000 -0.0000
                                            0.0000  0.0000  0.0000  0.0000  0.0000
                                            0.0000  0.0000  0.0000  0.0000  0.0000
                                            0.0000  0.0000  0.0000  0.0000  0.0000
     5. (2.00007) CR ( 2) I   3           s(  0.00%)p 1.00(100.00%)
                                            0.0000  0.0000  0.0000 -0.0000  0.0000
                                           -0.0000  1.0000 -0.0000 -0.0000 -0.0000
                                            0.0000 -0.0000  0.0000 -0.0000 -0.0000
                                            0.0000  0.0000  0.0000  0.0000  0.0000
                                            0.0000  0.0000 -0.0000  0.0000  0.0000
                                            0.0000  0.0000  0.0000  0.0000  0.0000
                                            0.0000  0.0000  0.0000  0.0000 -0.0000
                                            0.0000 -0.0000  0.0000 -0.0000 -0.0000
                                            0.0000  0.0000  0.0000  0.0000  0.0000
                                           -0.0000 -0.0000  0.0000  0.0000  0.0000
                                            0.0000  0.0000  0.0000 -0.0000 -0.0000
     6. (2.00007) CR ( 3) I   3           s(  0.00%)p 1.00(100.00%)
                                            0.0000  0.0000 -0.0000  0.0000  0.0000
                                            0.0000 -0.0000  0.0000  0.0000  0.0000
                                           -0.0000  1.0000  0.0000  0.0000 -0.0000
                                            0.0000  0.0000  0.0000  0.0000  0.0000
                                            0.0000 -0.0000  0.0000 -0.0000  0.0000
                                            0.0000  0.0000  0.0000  0.0000  0.0000
                                            0.0000  0.0000  0.0000  0.0000 -0.0000
                                            0.0000  0.0000  0.0000 -0.0000  0.0000
                                           -0.0000  0.0000  0.0000 -0.0000 -0.0000
                                           -0.0000 -0.0000  0.0000  0.0000  0.0000
                                            0.0000 -0.0000 -0.0000 -0.0000 -0.0000
     7. (2.00007) CR ( 4) I   3           s(  0.00%)p 1.00(100.00%)
                                            0.0000  0.0000  0.0000  0.0000  0.0000
                                            0.0000  0.0000  0.0000  0.0000  0.0000
                                            0.0000  0.0000  0.0000  0.0000  0.0000
                                            0.0000  1.0000 -0.0000  0.0000 -0.0000
                                            0.0000  0.0000  0.0000  0.0000  0.0000
                                            0.0000 -0.0000  0.0000 -0.0000  0.0000
                                           -0.0000  0.0000  0.0000  0.0000  0.0000
                                            0.0000  0.0000  0.0000  0.0000  0.0000
                                            0.0000  0.0000  0.0000  0.0000  0.0000
                                            0.0000  0.0000  0.0000  0.0000 -0.0000
                                           -0.0000  0.0000  0.0000  0.0000  0.0000
     8. (1.99676) CR ( 5) I   3           s(  0.00%)p 0.00(  0.00%)d 1.00(100.00%)
                                            0.0000  0.0000 -0.0000  0.0000 -0.0000
                                            0.0000  0.0000  0.0000  0.0000  0.0000
                                           -0.0000 -0.0000  0.0000  0.0000 -0.0000
                                            0.0000  0.0000  0.0000  0.0000  0.0000
                                            0.0000  1.0000  0.0000 -0.0000  0.0000
                                            0.0000  0.0000  0.0000  0.0000  0.0000
                                            0.0000  0.0000  0.0000  0.0000 -0.0000
                                            0.0000  0.0000  0.0000 -0.0000  0.0000
                                           -0.0000  0.0000  0.0000 -0.0000 -0.0000
                                           -0.0000 -0.0000  0.0000  0.0000  0.0000
                                            0.0000 -0.0000 -0.0000 -0.0000  0.0000
     9. (1.99679) CR ( 6) I   3           s(  0.00%)p 0.00(  0.00%)d 1.00(100.00%)
                                            0.0000  0.0000  0.0000  0.0000  0.0000
                                            0.0000  0.0000  0.0000  0.0000  0.0000
                                            0.0000  0.0000  0.0000  0.0000  0.0000
                                            0.0000  0.0000  0.0000 -0.0000  0.0000
                                           -0.0000  0.0000  0.0000  0.0000  0.0000
                                            1.0000  0.0000 -0.0000  0.0000 -0.0000
                                            0.0000 -0.0000 -0.0000  0.0000  0.0000
                                            0.0000  0.0000  0.0000  0.0000  0.0000
                                            0.0000 -0.0000 -0.0000  0.0000  0.0000
                                            0.0000  0.0000 -0.0000 -0.0000  0.0000
                                            0.0000  0.0000  0.0000  0.0000  0.0000
    10. (1.99677) CR ( 7) I   3           s(  0.00%)p 0.00(  0.00%)d 1.00(100.00%)
                                            0.0000  0.0000  0.0000  0.0000  0.0000
                                            0.0000  0.0000  0.0000  0.0000  0.0000
                                            0.0000  0.0000  0.0000  0.0000  0.0000
                                            0.0000  0.0000  0.0000 -0.0000  0.0000
                                           -0.0000  0.0000  0.0000  0.0000  0.0000
                                           -0.0000  0.0000 -0.0000  0.0000  1.0000
                                            0.0000 -0.0000 -0.0000  0.0000  0.0000
                                            0.0000  0.0000  0.0000  0.0000  0.0000
                                            0.0000 -0.0000 -0.0000  0.0000  0.0000
                                            0.0000  0.0000 -0.0000 -0.0000  0.0000
                                            0.0000  0.0000  0.0000  0.0000  0.0000
    11. (1.99674) CR ( 8) I   3           s(  0.00%)p 0.00(  0.00%)d 1.00(100.00%)
                                           -0.0000 -0.0000  0.0000  0.0000 -0.0000
                                           -0.0000  0.0000  0.0000 -0.0000  0.0000
                                            0.0000  0.0000 -0.0000  0.0000  0.0000
                                           -0.0000  0.0000  0.0000  0.0000  0.0000
                                            0.0000  0.0000 -0.0000  0.0000 -0.0000
                                            0.0000  0.0000  0.0000  0.0000  0.0000
                                            0.0000  0.0000  0.0000  1.0000  0.0000
                                           -0.0000 -0.0000 -0.0000  0.0000 -0.0000
                                           -0.0000  0.0000  0.0000  0.0000  0.0000
                                            0.0000  0.0000  0.0000  0.0000  0.0000
                                            0.0000  0.0000  0.0000  0.0000  0.0000
    12. (1.99677) CR ( 9) I   3           s(  0.00%)p 0.00(  0.00%)d 1.00(100.00%)
                                           -0.0000 -0.0000  0.0000 -0.0000 -0.0000
                                           -0.0000  0.0000 -0.0000 -0.0000 -0.0000
                                            0.0000  0.0000 -0.0000 -0.0000  0.0000
                                           -0.0000  0.0000  0.0000  0.0000  0.0000
                                            0.0000  0.0000 -0.0000  0.0000 -0.0000
                                            0.0000  0.0000  0.0000  0.0000  0.0000
                                            0.0000  0.0000  0.0000 -0.0000  0.0000
                                           -0.0000 -0.0000  1.0000  0.0000 -0.0000
                                            0.0000  0.0000  0.0000  0.0000  0.0000
                                            0.0000  0.0000  0.0000  0.0000  0.0000
                                            0.0000  0.0000  0.0000  0.0000  0.0000
    13. (1.97024) LP ( 1) O   1           s( 43.09%)p 1.32( 56.76%)d 0.00(  0.15%)
                                                  f 0.00(  0.00%)
                                            0.0003  0.6563  0.0133  0.0026  0.0029
                                           -0.3992 -0.0112  0.0018 -0.0005  0.6387
                                            0.0117 -0.0037  0.0002  0.0000  0.0000
                                            0.0000  0.0000  0.0307 -0.0046  0.0012
                                            0.0000  0.0000  0.0000  0.0000  0.0000
                                            0.0000  0.0128  0.0005  0.0015  0.0186
                                           -0.0015 -0.0008  0.0000  0.0000  0.0023
                                           -0.0003 -0.0039  0.0008  0.0000  0.0000
                                            0.0000  0.0000  0.0010 -0.0011  0.0007
                                           -0.0020
    14. (1.96151) LP ( 2) O   1           s(  0.00%)p 1.00( 99.78%)d 0.00(  0.21%)
                                                  f 0.00(  0.01%)
                                            0.0000  0.0000  0.0000  0.0000  0.0000
                                            0.0000  0.0000  0.0000  0.0000  0.0000
                                            0.0000  0.0000  0.0000  0.9982  0.0378
                                           -0.0058  0.0014  0.0000  0.0000  0.0000
                                            0.0292 -0.0047 -0.0004 -0.0351  0.0021
                                           -0.0041  0.0000  0.0000  0.0000  0.0000
                                            0.0000  0.0000 -0.0098  0.0019  0.0000
                                            0.0000  0.0000  0.0000 -0.0010 -0.0003
                                            0.0022  0.0001  0.0000  0.0000  0.0000
                                            0.0000
    15. (1.98061) LP ( 1) I   3           s( 99.90%)p 0.00(  0.10%)d 0.00(  0.00%)
                                                  f 0.00(  0.00%)
                                           -0.0000  0.9995  0.0000  0.0000 -0.0000
                                           -0.0000 -0.0000 -0.0041  0.0005 -0.0001
                                            0.0001 -0.0000 -0.0308  0.0006 -0.0006
                                            0.0001  0.0000  0.0000  0.0000  0.0000
                                            0.0000 -0.0000  0.0013 -0.0004  0.0000
                                            0.0000  0.0000  0.0000  0.0000  0.0000
                                            0.0000  0.0000  0.0000  0.0000 -0.0019
                                            0.0005  0.0001  0.0000 -0.0015  0.0005
                                           -0.0000  0.0000  0.0000 -0.0002 -0.0001
                                           -0.0007 -0.0005  0.0000  0.0000  0.0000
                                            0.0000 -0.0005 -0.0003 -0.0005 -0.0003
    16. (1.95175) LP ( 2) I   3           s(  0.00%)p 1.00(100.00%)d 0.00(  0.00%)
                                                  f 0.00(  0.00%)
                                            0.0000  0.0000  0.0000  0.0000  0.0000
                                            0.0000  0.0000  0.0000  0.0000  0.0000
                                            0.0000  0.0000  0.0000  0.0000  0.0000
                                            0.0000  0.0000  1.0000 -0.0006  0.0005
                                           -0.0000  0.0000  0.0000  0.0000  0.0000
                                           -0.0000  0.0024 -0.0014  0.0012 -0.0000
                                            0.0035 -0.0010 -0.0007  0.0000  0.0000
                                            0.0000  0.0000  0.0000  0.0000  0.0000
                                            0.0000 -0.0012 -0.0010  0.0000  0.0000
                                            0.0000  0.0000 -0.0010 -0.0006  0.0009
                                            0.0009  0.0000  0.0000  0.0000  0.0000
    17. (1.95157) LP ( 3) I   3           s(  0.00%)p 1.00( 99.99%)d 0.00(  0.00%)
                                                  f 0.00(  0.00%)
                                           -0.0000  0.0034  0.0014 -0.0025  0.0021
                                           -0.0001 -0.0000 -0.9711 -0.0008 -0.0010
                                            0.0006  0.0000  0.2386 -0.0013 -0.0005
                                            0.0007 -0.0000 -0.0000 -0.0000 -0.0000
                                           -0.0000  0.0000 -0.0041  0.0011  0.0004
                                           -0.0000 -0.0000 -0.0000 -0.0000 -0.0000
                                           -0.0000 -0.0000 -0.0000  0.0000 -0.0036
                                            0.0017 -0.0010 -0.0000  0.0010 -0.0007
                                            0.0009 -0.0000 -0.0000  0.0006  0.0005
                                           -0.0001 -0.0000 -0.0000 -0.0000 -0.0000
                                           -0.0000  0.0009  0.0004 -0.0015 -0.0013
    18. (1.94653) LP ( 4) I   3           s(  0.10%)p99.99( 99.89%)d 0.18(  0.02%)
                                                  f 0.02(  0.00%)
                                            0.0000  0.0308 -0.0016  0.0001  0.0005
                                            0.0001 -0.0000  0.2386  0.0014  0.0001
                                           -0.0003 -0.0000  0.9705 -0.0002 -0.0015
                                            0.0005  0.0000  0.0000  0.0000  0.0000
                                            0.0000 -0.0000  0.0068 -0.0018  0.0008
                                            0.0000  0.0000  0.0000  0.0000  0.0000
                                            0.0000  0.0000  0.0000  0.0000 -0.0084
                                            0.0011  0.0012  0.0000 -0.0069  0.0016
                                           -0.0003  0.0000  0.0000 -0.0007 -0.0005
                                           -0.0023 -0.0017  0.0000  0.0000  0.0000
                                            0.0000 -0.0019 -0.0010 -0.0017 -0.0008
    19. (0.01676) RY*( 1) O   1           s(  0.00%)p 1.00( 98.57%)d 0.01(  1.42%)
                                                  f 0.00(  0.01%)
                                            0.0000  0.0000  0.0000  0.0000  0.0000
                                            0.0000  0.0000  0.0000  0.0000  0.0000
                                            0.0000  0.0000  0.0000 -0.0418  0.9914
                                            0.0312 -0.0099  0.0000  0.0000  0.0000
                                            0.1130 -0.0171 -0.0084 -0.0305  0.0111
                                           -0.0019  0.0000  0.0000  0.0000  0.0000
                                            0.0000  0.0000 -0.0024  0.0067  0.0000
                                            0.0000  0.0000  0.0000  0.0047 -0.0016
                                           -0.0045  0.0003  0.0000  0.0000  0.0000
                                            0.0000
    20. (0.01355) RY*( 2) O   1           s( 24.08%)p 3.08( 74.04%)d 0.08(  1.83%)
                                                  f 0.00(  0.06%)
                                            0.0000 -0.0209  0.4900 -0.0147  0.0001
                                            0.0196 -0.4388 -0.0154 -0.0013 -0.0040
                                            0.7393  0.0225 -0.0098  0.0000  0.0000
                                            0.0000  0.0000  0.1309 -0.0143  0.0010
                                            0.0000  0.0000  0.0000  0.0000  0.0000
                                            0.0000 -0.0227 -0.0011  0.0072  0.0164
                                           -0.0107 -0.0000  0.0000  0.0000  0.0012
                                            0.0004  0.0052  0.0024  0.0000  0.0000
                                            0.0000  0.0000  0.0138 -0.0078  0.0165
                                           -0.0052
    21. (0.00606) RY*( 3) O   1           s(  0.58%)p92.34( 53.95%)d76.68( 44.80%)
                                                  f 1.14(  0.67%)
                                           -0.0000  0.0062  0.0651 -0.0396 -0.0007
                                           -0.0686 -0.6514 -0.0421  0.0157 -0.0350
                                           -0.3255 -0.0351  0.0094 -0.0000 -0.0000
                                           -0.0000 -0.0000 -0.4724 -0.0058  0.0006
                                           -0.0000 -0.0000 -0.0000 -0.0000 -0.0000
                                           -0.0000  0.4179  0.0174  0.0090 -0.2230
                                           -0.0083 -0.0042 -0.0000 -0.0000 -0.0495
                                            0.0232 -0.0093 -0.0027 -0.0000 -0.0000
                                           -0.0000 -0.0000 -0.0154 -0.0072 -0.0535
                                            0.0212
    22. (0.00576) RY*( 4) O   1           s(  0.00%)p 1.00(  1.51%)d64.85( 97.71%)
                                                  f 0.52(  0.79%)
                                            0.0000  0.0000  0.0000  0.0000  0.0000
                                            0.0000  0.0000  0.0000  0.0000  0.0000
                                            0.0000  0.0000  0.0000 -0.0320 -0.1180
                                           -0.0066 -0.0087  0.0000  0.0000  0.0000
                                            0.9617  0.0249  0.0094 -0.2266 -0.0060
                                            0.0059  0.0000  0.0000  0.0000  0.0000
                                            0.0000  0.0000 -0.0536  0.0290  0.0000
                                            0.0000  0.0000  0.0000  0.0425 -0.0259
                                           -0.0376  0.0159  0.0000  0.0000  0.0000
                                            0.0000
    23. (0.00570) RY*( 5) O   1           s(  0.00%)p 1.00(  0.09%)d99.99( 99.14%)
                                                  f 8.21(  0.76%)
                                            0.0000  0.0000  0.0000  0.0000  0.0000
                                            0.0000  0.0000  0.0000  0.0000  0.0000
                                            0.0000  0.0000  0.0000  0.0276  0.0049
                                           -0.0116  0.0037  0.0000  0.0000  0.0000
                                            0.2289  0.0070  0.0066  0.9681  0.0412
                                            0.0087  0.0000  0.0000  0.0000  0.0000
                                            0.0000  0.0000  0.0409 -0.0155  0.0000
                                            0.0000  0.0000  0.0000  0.0695 -0.0279
                                            0.0081 -0.0079  0.0000  0.0000  0.0000
                                            0.0000
    24. (0.00560) RY*( 6) O   1           s(  5.77%)p 1.39(  8.04%)d14.79( 85.28%)
                                                  f 0.16(  0.91%)
                                           -0.0000  0.0091  0.2399  0.0054 -0.0038
                                            0.0050  0.2519  0.0185 -0.0114  0.0374
                                            0.1225 -0.0008 -0.0042 -0.0000 -0.0000
                                           -0.0000 -0.0000 -0.8130 -0.0132 -0.0027
                                           -0.0000 -0.0000 -0.0000 -0.0000 -0.0000
                                           -0.0000 -0.4330 -0.0128 -0.0058  0.0613
                                            0.0071  0.0099 -0.0000 -0.0000 -0.0000
                                            0.0031  0.0323 -0.0177 -0.0000 -0.0000
                                           -0.0000 -0.0000 -0.0812  0.0272 -0.0141
                                            0.0156
    25. (0.00543) RY*( 7) O   1           s( 12.93%)p 0.72(  9.36%)d 5.97( 77.20%)
                                                  f 0.04(  0.51%)
                                           -0.0000  0.0298  0.3573 -0.0267 -0.0049
                                            0.0111 -0.0580 -0.0138 -0.0010 -0.0569
                                           -0.2912 -0.0436 -0.0049  0.0000  0.0000
                                            0.0000  0.0000  0.0393  0.0075  0.0051
                                            0.0000  0.0000  0.0000  0.0000  0.0000
                                            0.0000  0.1243  0.0098 -0.0050  0.8680
                                            0.0380 -0.0033  0.0000  0.0000  0.0296
                                           -0.0151 -0.0552  0.0179  0.0000  0.0000
                                            0.0000  0.0000 -0.0132 -0.0024 -0.0210
                                            0.0046
    26. (0.00231) RY*( 8) O   1           s( 11.05%)p 2.98( 32.90%)d 5.02( 55.50%)
                                                  f 0.05(  0.55%)
                                            0.0000 -0.0020  0.3283 -0.0416 -0.0313
                                           -0.0236  0.5501  0.0405  0.0080 -0.0175
                                            0.1539 -0.0101  0.0004  0.0000  0.0000
                                            0.0000  0.0000 -0.1048 -0.0045  0.0117
                                            0.0000  0.0000  0.0000  0.0000  0.0000
                                            0.0000  0.7125  0.0974 -0.0659 -0.1464
                                           -0.0210  0.0217  0.0000  0.0000 -0.0066
                                            0.0291  0.0040  0.0026  0.0000  0.0000
                                            0.0000  0.0000  0.0378 -0.0272 -0.0497
                                            0.0008
    27. (0.00180) RY*( 9) O   1           s( 44.01%)p 0.52( 22.93%)d 0.75( 32.88%)
                                                  f 0.00(  0.17%)
                                           -0.0000  0.0002  0.6491  0.0615 -0.1227
                                           -0.0001  0.0520  0.0036 -0.0495 -0.0013
                                           -0.4407 -0.1677 -0.0425 -0.0000 -0.0000
                                           -0.0000 -0.0000  0.2633  0.0739  0.0237
                                           -0.0000 -0.0000 -0.0000 -0.0000 -0.0000
                                           -0.0000 -0.2804 -0.0688  0.0420 -0.3860
                                           -0.1369  0.0251 -0.0000 -0.0000 -0.0024
                                            0.0157 -0.0218 -0.0099 -0.0000 -0.0000
                                           -0.0000 -0.0000 -0.0220 -0.0194 -0.0059
                                            0.0039
    28. (0.00068) RY*(10) O   1           s( 48.30%)p 0.94( 45.50%)d 0.08(  3.87%)
                                                  f 0.05(  2.33%)
                                            0.0000 -0.0049 -0.1071  0.6750 -0.1261
                                            0.0017 -0.0181  0.0645 -0.1109 -0.0001
                                            0.1058 -0.6530 -0.0258 -0.0000 -0.0000
                                           -0.0000 -0.0000 -0.0437  0.0733  0.1196
                                           -0.0000 -0.0000 -0.0000 -0.0000 -0.0000
                                           -0.0000  0.0648  0.0452  0.0417  0.0542
                                            0.0632 -0.0474 -0.0000 -0.0000  0.0166
                                           -0.0056  0.0320  0.0508 -0.0000 -0.0000
                                           -0.0000 -0.0000  0.0340  0.0663 -0.0387
                                            0.1110
    29. (0.00053) RY*(11) O   1           s(  0.00%)p 1.00( 70.57%)d 0.39( 27.26%)
                                                  f 0.03(  2.17%)
                                            0.0000  0.0000  0.0000  0.0000  0.0000
                                            0.0000  0.0000  0.0000  0.0000  0.0000
                                            0.0000  0.0000  0.0000  0.0035 -0.0367
                                            0.8367 -0.0645  0.0000  0.0000  0.0000
                                           -0.0018 -0.2230 -0.0770 -0.0019  0.4449
                                            0.1379  0.0000  0.0000  0.0000  0.0000
                                            0.0000  0.0000 -0.1373  0.0460  0.0000
                                            0.0000  0.0000  0.0000  0.0153 -0.0063
                                           -0.0197 -0.0069  0.0000  0.0000  0.0000
                                            0.0000
    30. (0.00043) RY*(12) O   1           s(  4.77%)p 4.20( 20.02%)d 3.60( 17.18%)
                                                  f12.17( 58.04%)
                                           -0.0000  0.0030  0.0057  0.2041  0.0775
                                            0.0070  0.0190 -0.4203 -0.0045 -0.0005
                                           -0.0078  0.1512  0.0112 -0.0000 -0.0000
                                           -0.0000 -0.0000 -0.0721 -0.1286  0.0516
                                           -0.0000 -0.0000 -0.0000 -0.0000 -0.0000
                                           -0.0000  0.0090 -0.0700  0.0536 -0.0013
                                           -0.3586 -0.1043 -0.0000 -0.0000  0.4878
                                           -0.0355 -0.2622  0.0323 -0.0000 -0.0000
                                           -0.0000 -0.0000  0.5084  0.0086  0.1109
                                            0.0234
    31. (0.00043) RY*(13) O   1           s(  0.00%)p 1.00(  1.83%)d10.91( 20.01%)
                                                  f42.61( 78.15%)
                                            0.0000  0.0000  0.0000  0.0000  0.0000
                                            0.0000  0.0000  0.0000  0.0000  0.0000
                                            0.0000  0.0000  0.0000  0.0037 -0.0052
                                           -0.1353  0.0004  0.0000  0.0000  0.0000
                                            0.0156 -0.0854 -0.0252 -0.0825  0.4088
                                            0.1342  0.0000  0.0000  0.0000  0.0000
                                            0.0000  0.0000  0.8151 -0.0331  0.0000
                                            0.0000  0.0000  0.0000  0.3401  0.0093
                                            0.0118 -0.0089  0.0000  0.0000  0.0000
                                            0.0000
    32. (0.00043) RY*(14) O   1           s(  4.03%)p 2.77( 11.17%)d 6.57( 26.46%)
                                                  f14.48( 58.34%)
                                           -0.0000  0.0023  0.0053  0.1906  0.0625
                                            0.0032  0.0202 -0.3080 -0.0193  0.0002
                                           -0.0141  0.1257  0.0082  0.0000  0.0000
                                            0.0000  0.0000  0.0233 -0.1947 -0.0460
                                            0.0000  0.0000  0.0000  0.0000  0.0000
                                            0.0000  0.0211 -0.0385  0.0144  0.0716
                                           -0.4474 -0.1288  0.0000  0.0000 -0.4149
                                            0.0173  0.6325 -0.0107  0.0000  0.0000
                                            0.0000  0.0000 -0.0255  0.0206 -0.0926
                                            0.0338
    33. (0.00043) RY*(15) O   1           s(  0.00%)p 1.00(  2.90%)d 2.26(  6.56%)
                                                  f31.22( 90.54%)
                                            0.0000  0.0000  0.0000  0.0000  0.0000
                                            0.0000  0.0000  0.0000  0.0000  0.0000
                                            0.0000  0.0000  0.0000 -0.0008 -0.0054
                                            0.1683  0.0255  0.0000  0.0000  0.0000
                                            0.0605 -0.0706 -0.0593 -0.0020 -0.2266
                                           -0.0455  0.0000  0.0000  0.0000  0.0000
                                            0.0000  0.0000  0.2237 -0.0178  0.0000
                                            0.0000  0.0000  0.0000 -0.2380 -0.0049
                                            0.8925 -0.0429  0.0000  0.0000  0.0000
                                            0.0000
    34. (0.00041) RY*(16) O   1           s(  0.00%)p 1.00(  0.03%)d99.99( 10.11%)
                                                  f99.99( 89.86%)
                                            0.0000  0.0000  0.0000  0.0000  0.0000
                                            0.0000  0.0000  0.0000  0.0000  0.0000
                                            0.0000  0.0000  0.0000 -0.0015  0.0076
[...]
                                            0.0041  0.2393 -0.1018 -0.0425 -0.6734
                                            0.0066  0.0087  0.6773  0.1108  0.0136
                                            0.0000  0.0000  0.0000  0.0318  0.0077
                                            0.0000  0.0000  0.0000  0.0000 -0.0214
                                           -0.0396  0.0502  0.0145
   127. (0.00242) RY*( 4) H   4           s( 24.66%)p 3.04( 74.95%)d 0.02(  0.39%)
                                           -0.0080  0.4384 -0.2326 -0.0153  0.6969
                                            0.0375  0.0242  0.4719  0.1977 -0.0084
                                            0.0000  0.0000  0.0000 -0.0542  0.0136
                                            0.0000  0.0000  0.0000  0.0000  0.0072
                                           -0.0139 -0.0043 -0.0222
   128. (0.00040) RY*( 5) H   4           s( 18.10%)p 3.90( 70.52%)d 0.63( 11.38%)
                                            0.0007 -0.0109 -0.2466  0.3464 -0.0332
                                           -0.6386 -0.2078 -0.0952  0.2718  0.4125
                                           -0.0000 -0.0000 -0.0000  0.1498  0.0485
                                           -0.0000 -0.0000 -0.0000 -0.0000  0.1822
                                           -0.1971 -0.0520 -0.1194
   129. (0.00034) RY*( 6) H   4           s(  9.25%)p 6.30( 58.29%)d 3.51( 32.46%)
                                           -0.0138  0.0482  0.0656  0.2927  0.0240
                                            0.3123  0.2594  0.0508 -0.3290  0.5538
                                            0.0000  0.0000  0.0000  0.0006  0.1974
                                            0.0000  0.0000  0.0000  0.0000 -0.3650
                                           -0.3144 -0.0927 -0.2122
   130. (0.00030) RY*( 7) H   4           s(  0.00%)p 1.00( 92.53%)d 0.08(  7.47%)
                                            0.0000  0.0000  0.0000  0.0000  0.0000
                                            0.0000  0.0000  0.0000  0.0000  0.0000
                                            0.1251  0.9384  0.1707  0.0000  0.0000
                                           -0.0597  0.0171 -0.2655 -0.0174  0.0000
                                            0.0000  0.0000  0.0000
   131. (0.00022) RY*( 8) H   4           s( 25.98%)p 1.89( 49.02%)d 0.96( 25.01%)
                                           -0.0098  0.0523  0.4897 -0.1308  0.1124
                                           -0.5221 -0.1068  0.2435 -0.3619 -0.0571
                                           -0.0000 -0.0000 -0.0000  0.1624  0.0099
                                           -0.0000 -0.0000 -0.0000 -0.0000 -0.2890
                                            0.1629 -0.3364 -0.0198
   132. (0.00017) RY*( 9) H   4           s( 41.62%)p 0.15(  6.27%)d 1.25( 52.11%)
                                           -0.0036  0.0803  0.6321  0.1012  0.0345
                                           -0.0856 -0.0180  0.0728  0.1551  0.1566
                                            0.0000  0.0000  0.0000 -0.5093  0.1607
                                            0.0000  0.0000  0.0000  0.0000  0.2475
                                           -0.0970  0.3968  0.0874
   133. (0.00015) RY*(10) H   4           s(  0.00%)p 1.00( 44.74%)d 1.24( 55.26%)
                                            0.0000  0.0000  0.0000  0.0000  0.0000
                                            0.0000  0.0000  0.0000  0.0000  0.0000
                                            0.0406 -0.1911  0.6397  0.0000  0.0000
                                           -0.4252 -0.3062 -0.2010  0.4875  0.0000
                                            0.0000  0.0000  0.0000
   134. (0.00016) RY*(11) H   4           s(  0.00%)p 1.00(  6.21%)d15.10( 93.79%)
                                            0.0000  0.0000  0.0000  0.0000  0.0000
                                            0.0000  0.0000  0.0000  0.0000  0.0000
                                            0.0185  0.2199 -0.1157  0.0000  0.0000
                                           -0.2673 -0.5649  0.7384 -0.0469  0.0000
                                            0.0000  0.0000  0.0000
   135. (0.00013) RY*(12) H   4           s(  1.72%)p 1.62(  2.79%)d55.47( 95.49%)
                                           -0.0009  0.0132  0.1172  0.0575  0.0898
                                            0.0649 -0.0923  0.0355 -0.0752  0.0146
                                            0.0000  0.0000  0.0000  0.5751  0.0619
                                            0.0000  0.0000  0.0000  0.0000 -0.0085
                                           -0.3007  0.3156  0.6559
   136. (0.00013) RY*(13) H   4           s(  0.00%)p 1.00( 23.72%)d 3.22( 76.28%)
                                            0.0000  0.0000  0.0000  0.0000  0.0000
                                            0.0000  0.0000  0.0000  0.0000  0.0000
                                            0.0360  0.0779  0.4794  0.0000  0.0000
                                            0.1870  0.5951  0.5852  0.1767  0.0000
                                            0.0000  0.0000  0.0000
   137. (0.00013) RY*(14) H   4           s(  2.39%)p26.14( 62.45%)d14.72( 35.16%)
                                           -0.0043  0.0161  0.0469  0.1464  0.0131
                                            0.2687 -0.7068  0.0748 -0.1710  0.1331
                                           -0.0000 -0.0000 -0.0000 -0.1654 -0.5307
                                           -0.0000 -0.0000 -0.0000 -0.0000  0.0514
                                           -0.1162 -0.1571  0.0421
   138. (0.00010) RY*(15) H   4           s(  6.25%)p 0.98(  6.12%)d14.02( 87.63%)
                                           -0.0089  0.0747  0.2380 -0.0144  0.0379
                                            0.1755  0.0288  0.0668 -0.1307  0.0808
                                           -0.0000 -0.0000 -0.0000  0.5099 -0.0867
                                           -0.0000 -0.0000 -0.0000 -0.0000  0.5401
                                            0.1605  0.1579 -0.5161
   139. (0.00007) RY*(16) H   4           s(  4.06%)p 5.80( 23.53%)d17.85( 72.41%)
   140. (0.00006) RY*(17) H   4           s( 58.83%)p 0.07(  3.84%)d 0.63( 37.34%)
   141. (0.00007) RY*(18) H   4           s(  0.00%)p 1.00(  1.27%)d77.87( 98.73%)
   142. (0.00005) RY*(19) H   4           s( 10.62%)p 4.17( 44.31%)d 4.24( 45.07%)
   143. (0.00002) RY*(20) H   4           s(  1.89%)p18.39( 34.66%)d33.66( 63.45%)
   144. (0.00003) RY*(21) H   4           s(  0.00%)p 1.00( 31.64%)d 2.16( 68.36%)
   145. (0.00001) RY*(22) H   4           s( 14.71%)p 3.05( 44.83%)d 2.75( 40.47%)
   146. (0.02090) BD*( 1) O   1 - H   2  
                ( 27.24%)   0.5220* O   1 s( 20.39%)p 3.89( 79.21%)d 0.02(  0.39%)
                                                  f 0.00(  0.01%)
                                           -0.0002 -0.4515  0.0007  0.0012  0.0020
                                           -0.8848  0.0262 -0.0104  0.0018 -0.0903
                                            0.0187 -0.0008  0.0019 -0.0000 -0.0000
                                           -0.0000 -0.0000  0.0237 -0.0022  0.0000
                                           -0.0000 -0.0000 -0.0000 -0.0000 -0.0000
                                           -0.0000 -0.0466  0.0031  0.0025  0.0338
                                           -0.0036 -0.0007 -0.0000 -0.0000  0.0096
                                            0.0002 -0.0003  0.0005 -0.0000 -0.0000
                                           -0.0000 -0.0000 -0.0026 -0.0023 -0.0026
                                            0.0001
                ( 72.76%)  -0.8530* H   2 s( 99.92%)p 0.00(  0.08%)d 0.00(  0.00%)
                                           -0.9996 -0.0025  0.0002 -0.0003 -0.0090
                                           -0.0234  0.0055  0.0098  0.0043  0.0026
                                           -0.0000 -0.0000 -0.0000  0.0009  0.0012
                                           -0.0000 -0.0000 -0.0000 -0.0000  0.0038
                                            0.0009  0.0002 -0.0008
   147. (0.01508) BD*( 1) O   1 - H   4  
                ( 28.15%)   0.5306* O   1 s( 36.43%)p 1.73( 63.17%)d 0.01(  0.39%)
                                                  f 0.00(  0.01%)
                                            0.0003  0.6033 -0.0195 -0.0031 -0.0033
                                           -0.2273  0.0239 -0.0004  0.0010 -0.7599
                                            0.0448 -0.0038  0.0003 -0.0000 -0.0000
                                           -0.0000 -0.0000  0.0029  0.0047  0.0009
                                           -0.0000 -0.0000 -0.0000 -0.0000 -0.0000
                                           -0.0000 -0.0504 -0.0021  0.0023 -0.0356
                                           -0.0020 -0.0008 -0.0000 -0.0000  0.0019
                                            0.0003  0.0080  0.0023 -0.0000 -0.0000
                                           -0.0000 -0.0000  0.0031  0.0035  0.0019
                                            0.0049
                ( 71.85%)  -0.8476* H   4 s( 99.88%)p 0.00(  0.11%)d 0.00(  0.01%)
                                            0.9994 -0.0083  0.0002 -0.0004  0.0137
                                           -0.0028  0.0016  0.0141 -0.0240  0.0100
                                           -0.0000 -0.0000 -0.0000 -0.0027  0.0015
                                           -0.0000 -0.0000 -0.0000 -0.0000  0.0062
                                           -0.0047  0.0040 -0.0054


 NHO Directionality and "Bond Bending" (deviations from line of nuclear centers)

         [Thresholds for printing:  angular deviation  >  1.0 degree]
                                    hybrid p-character > 25.0%
                                    orbital occupancy  >  0.10e

                                Line of Centers        Hybrid 1              Hybrid 2
                                ---------------  -------------------   ------------------
                NBO               Theta   Phi    Theta   Phi    Dev    Theta   Phi    Dev
 ========================================================================================
     1. BD (   1) O   1 - H   2    90.0    0.0    90.0    4.6   4.6      --     --    --
     2. BD (   1) O   1 - H   4    90.0  258.1    90.0  254.2   3.9      --     --    --
    13. LP (   1) O   1             --     --     90.0  122.3   --       --     --    --
    14. LP (   2) O   1             --     --      0.0    0.0   --       --     --    --
    16. LP (   2) I   3             --     --      0.0    0.0   --       --     --    --
    17. LP (   3) I   3             --     --     90.0  166.3   --       --     --    --
    18. LP (   4) I   3             --     --     90.0   76.1   --       --     --    --


 Natural Bond Orbitals (Summary):

           NBO                  Occupancy  
 -----------------------------------------------
 Molecular unit  1  (H2O)
     1. BD (   1) O   1 - H   2          1.96782
     2. BD (   1) O   1 - H   4          1.97715
     3. CR (   1) O   1                  1.99949
    13. LP (   1) O   1                  1.97024
    14. LP (   2) O   1                  1.96151
    19. RY*(   1) O   1                  0.01676
    20. RY*(   2) O   1                  0.01355
    21. RY*(   3) O   1                  0.00606
    22. RY*(   4) O   1                  0.00576
    23. RY*(   5) O   1                  0.00570
    24. RY*(   6) O   1                  0.00560
    25. RY*(   7) O   1                  0.00543
    26. RY*(   8) O   1                  0.00231
    27. RY*(   9) O   1                  0.00180
    28. RY*(  10) O   1                  0.00068
    29. RY*(  11) O   1                  0.00053
    30. RY*(  12) O   1                  0.00043
    31. RY*(  13) O   1                  0.00043
    32. RY*(  14) O   1                  0.00043
    33. RY*(  15) O   1                  0.00043
    34. RY*(  16) O   1                  0.00041
    35. RY*(  17) O   1                  0.00040
    36. RY*(  18) O   1                  0.00035
    37. RY*(  19) O   1                  0.00036
    38. RY*(  20) O   1                  0.00032
    39. RY*(  21) O   1                  0.00030
    40. RY*(  22) O   1                  0.00028
    41. RY*(  23) O   1                  0.00024
    42. RY*(  24) O   1                  0.00017
    43. RY*(  25) O   1                  0.00015
    44. RY*(  26) O   1                  0.00012
    45. RY*(  27) O   1                  0.00006
    46. RY*(  28) O   1                  0.00007
    47. RY*(  29) O   1                  0.00007
    48. RY*(  30) O   1                  0.00007
    49. RY*(  31) O   1                  0.00007
    50. RY*(  32) O   1                  0.00006
    51. RY*(  33) O   1                  0.00005
    52. RY*(  34) O   1                  0.00006
    53. RY*(  35) O   1                  0.00004
    54. RY*(  36) O   1                  0.00004
    55. RY*(  37) O   1                  0.00002
    56. RY*(  38) O   1                  0.00003
    57. RY*(  39) O   1                  0.00001
    58. RY*(  40) O   1                  0.00002
    59. RY*(  41) O   1                  0.00000
    60. RY*(   1) H   2                  0.00541
    61. RY*(   2) H   2                  0.00237
    62. RY*(   3) H   2                  0.00159
    63. RY*(   4) H   2                  0.00065
    64. RY*(   5) H   2                  0.00030
    65. RY*(   6) H   2                  0.00021
    66. RY*(   7) H   2                  0.00018
    67. RY*(   8) H   2                  0.00011
    68. RY*(   9) H   2                  0.00010
    69. RY*(  10) H   2                  0.00009
    70. RY*(  11) H   2                  0.00007
    71. RY*(  12) H   2                  0.00007
    72. RY*(  13) H   2                  0.00006
    73. RY*(  14) H   2                  0.00005
    74. RY*(  15) H   2                  0.00003
    75. RY*(  16) H   2                  0.00003
    76. RY*(  17) H   2                  0.00003
    77. RY*(  18) H   2                  0.00002
    78. RY*(  19) H   2                  0.00002
    79. RY*(  20) H   2                  0.00001
    80. RY*(  21) H   2                  0.00002
    81. RY*(  22) H   2                  0.00002
   124. RY*(   1) H   4                  0.00708
   125. RY*(   2) H   4                  0.00434
   126. RY*(   3) H   4                  0.00394
   127. RY*(   4) H   4                  0.00242
   128. RY*(   5) H   4                  0.00040
   129. RY*(   6) H   4                  0.00034
   130. RY*(   7) H   4                  0.00030
   131. RY*(   8) H   4                  0.00022
   132. RY*(   9) H   4                  0.00017
   133. RY*(  10) H   4                  0.00015
   134. RY*(  11) H   4                  0.00016
   135. RY*(  12) H   4                  0.00013
   136. RY*(  13) H   4                  0.00013
   137. RY*(  14) H   4                  0.00013
   138. RY*(  15) H   4                  0.00010
   139. RY*(  16) H   4                  0.00007
   140. RY*(  17) H   4                  0.00006
   141. RY*(  18) H   4                  0.00007
   142. RY*(  19) H   4                  0.00005
   143. RY*(  20) H   4                  0.00002
   144. RY*(  21) H   4                  0.00003
   145. RY*(  22) H   4                  0.00001
   146. BD*(   1) O   1 - H   2          0.02090
   147. BD*(   1) O   1 - H   4          0.01508
       -------------------------------
              Total Lewis    9.87621  ( 98.6275%)
        Valence non-Lewis    0.03598  (  0.3594%)
        Rydberg non-Lewis    0.10146  (  1.0132%)
       -------------------------------
            Total unit  1   10.01365  (100.0000%)
           Charge unit  1   -0.01365

 Molecular unit  2  (I)
     4. CR (   1) I   3                  2.00002
     5. CR (   2) I   3                  2.00007
     6. CR (   3) I   3                  2.00007
     7. CR (   4) I   3                  2.00007
     8. CR (   5) I   3                  1.99676
     9. CR (   6) I   3                  1.99679
    10. CR (   7) I   3                  1.99677
    11. CR (   8) I   3                  1.99674
    12. CR (   9) I   3                  1.99677
    15. LP (   1) I   3                  1.98061
    16. LP (   2) I   3                  1.95175
    17. LP (   3) I   3                  1.95157
    18. LP (   4) I   3                  1.94653
    82. RY*(   1) I   3                  0.02030
    83. RY*(   2) I   3                  0.02029
    84. RY*(   3) I   3                  0.02020
    85. RY*(   4) I   3                  0.02020
    86. RY*(   5) I   3                  0.02002
    87. RY*(   6) I   3                  0.01126
    88. RY*(   7) I   3                  0.01123
    89. RY*(   8) I   3                  0.01040
    90. RY*(   9) I   3                  0.00426
    91. RY*(  10) I   3                  0.00279
    92. RY*(  11) I   3                  0.00279
    93. RY*(  12) I   3                  0.00277
    94. RY*(  13) I   3                  0.00277
    95. RY*(  14) I   3                  0.00273
    96. RY*(  15) I   3                  0.00272
    97. RY*(  16) I   3                  0.00272
    98. RY*(  17) I   3                  0.00169
    99. RY*(  18) I   3                  0.00169
   100. RY*(  19) I   3                  0.00148
   101. RY*(  20) I   3                  0.00147
   102. RY*(  21) I   3                  0.00133
   103. RY*(  22) I   3                  0.00075
   104. RY*(  23) I   3                  0.00076
   105. RY*(  24) I   3                  0.00073
   106. RY*(  25) I   3                  0.00049
   107. RY*(  26) I   3                  0.00044
   108. RY*(  27) I   3                  0.00044
   109. RY*(  28) I   3                  0.00043
   110. RY*(  29) I   3                  0.00042
   111. RY*(  30) I   3                  0.00041
   112. RY*(  31) I   3                  0.00042
   113. RY*(  32) I   3                  0.00039
   114. RY*(  33) I   3                  0.00016
   115. RY*(  34) I   3                  0.00016
   116. RY*(  35) I   3                  0.00015
   117. RY*(  36) I   3                  0.00015
   118. RY*(  37) I   3                  0.00014
   119. RY*(  38) I   3                  0.00009
   120. RY*(  39) I   3                  0.00008
   121. RY*(  40) I   3                  0.00008
   122. RY*(  41) I   3                  0.00006
   123. RY*(  42) I   3                  0.00000
       -------------------------------
              Total Lewis   53.81450  ( 99.6817%)
        Valence non-Lewis    0.00000  (  0.0000%)
        Rydberg non-Lewis    0.17185  (  0.3183%)
       -------------------------------
            Total unit  2   53.98635  (100.0000%)
           Charge unit  2   -0.98635
 Leave Link  607 at Tue Oct 26 13:20:05 2021, MaxMem= 16106127360 cpu:              67.0 elap:               2.4
 (Enter /sw/contrib/gaussian/g16/B01/g16/l9999.exe)
 1\1\GINC-N2097\SP\RMP2-FC\Gen\H2I1O1(1-)\CGAVINH\26-Oct-2021\0\\#p pop
 =NBO SP NoSymm mp2/gen Pseudo=read density=current\\title\\-1,1\O\X,1,
 10.\H,1,0.96090774,2,90.\I,1,3.50850138,2,90.,3,101.85832019,0\H,1,0.7
 5,2,90.,3,101.85832019,0\\Version=ES64L-G16RevB.01\HF=-370.7486839\MP2
 =-371.2344675\RMSD=3.198e-09\Dipole=0.7979682,1.0106364,0.\Quadrupole=
 13.2408266,-26.1860338,12.9452072,-7.7402735,0.,0.\PG=CS [SG(H2I1O1)]\
 \@


 HE THAT FOLLOWS NATURE IS NEVER LOST.

                             -- BACON
 Job cpu time:       0 days  0 hours  4 minutes 14.6 seconds.
 Elapsed time:       0 days  0 hours  0 minutes 11.6 seconds.
 File lengths (MBytes):  RWF=     11 Int=      0 D2E=      0 Chk=      8 Scr=      1
 Normal termination of Gaussian 16 at Tue Oct 26 13:20:06 2021.
