 Entering Gaussian System, Link 0=g16
 Input=ihod_rOH_140_sp.gjf
 Output=ihod_rOH_140_sp.log
 Initial command:
 /sw/contrib/gaussian/g16/B01/g16/l1.exe "/scr/Gau-29219.inp" -scrdir="/scr/"
 Entering Link 1 = /sw/contrib/gaussian/g16/B01/g16/l1.exe PID=     29220.
  
 Copyright (c) 1988-2017, Gaussian, Inc.  All Rights Reserved.
  
 This is part of the Gaussian(R) 16 program.  It is based on
 the Gaussian(R) 09 system (copyright 2009, Gaussian, Inc.),
 the Gaussian(R) 03 system (copyright 2003, Gaussian, Inc.),
 the Gaussian(R) 98 system (copyright 1998, Gaussian, Inc.),
 the Gaussian(R) 94 system (copyright 1995, Gaussian, Inc.),
 the Gaussian 92(TM) system (copyright 1992, Gaussian, Inc.),
 the Gaussian 90(TM) system (copyright 1990, Gaussian, Inc.),
 the Gaussian 88(TM) system (copyright 1988, Gaussian, Inc.),
 the Gaussian 86(TM) system (copyright 1986, Carnegie Mellon
 University), and the Gaussian 82(TM) system (copyright 1983,
 Carnegie Mellon University). Gaussian is a federally registered
 trademark of Gaussian, Inc.
  
 This software contains proprietary and confidential information,
 including trade secrets, belonging to Gaussian, Inc.
  
 This software is provided under written license and may be
 used, copied, transmitted, or stored only in accord with that
 written license.
  
 The following legend is applicable only to US Government
 contracts under FAR:
  
                    RESTRICTED RIGHTS LEGEND
  
 Use, reproduction and disclosure by the US Government is
 subject to restrictions as set forth in subparagraphs (a)
 and (c) of the Commercial Computer Software - Restricted
 Rights clause in FAR 52.227-19.
  
 Gaussian, Inc.
 340 Quinnipiac St., Bldg. 40, Wallingford CT 06492
  
  
 ---------------------------------------------------------------
 Warning -- This program may not be used in any manner that
 competes with the business of Gaussian, Inc. or will provide
 assistance to any competitor of Gaussian, Inc.  The licensee
 of this program is prohibited from giving any competitor of
 Gaussian, Inc. access to this program.  By using this program,
 the user acknowledges that Gaussian, Inc. is engaged in the
 business of creating and licensing software in the field of
 computational chemistry and represents and warrants to the
 licensee that it is not a competitor of Gaussian, Inc. and that
 it will not use this program in any manner prohibited above.
 ---------------------------------------------------------------
  

 Cite this work as:
 Gaussian 16, Revision B.01,
 M. J. Frisch, G. W. Trucks, H. B. Schlegel, G. E. Scuseria, 
 M. A. Robb, J. R. Cheeseman, G. Scalmani, V. Barone, 
 G. A. Petersson, H. Nakatsuji, X. Li, M. Caricato, A. V. Marenich, 
 J. Bloino, B. G. Janesko, R. Gomperts, B. Mennucci, H. P. Hratchian, 
 J. V. Ortiz, A. F. Izmaylov, J. L. Sonnenberg, D. Williams-Young, 
 F. Ding, F. Lipparini, F. Egidi, J. Goings, B. Peng, A. Petrone, 
 T. Henderson, D. Ranasinghe, V. G. Zakrzewski, J. Gao, N. Rega, 
 G. Zheng, W. Liang, M. Hada, M. Ehara, K. Toyota, R. Fukuda, 
 J. Hasegawa, M. Ishida, T. Nakajima, Y. Honda, O. Kitao, H. Nakai, 
 T. Vreven, K. Throssell, J. A. Montgomery, Jr., J. E. Peralta, 
 F. Ogliaro, M. J. Bearpark, J. J. Heyd, E. N. Brothers, K. N. Kudin, 
 V. N. Staroverov, T. A. Keith, R. Kobayashi, J. Normand, 
 K. Raghavachari, A. P. Rendell, J. C. Burant, S. S. Iyengar, 
 J. Tomasi, M. Cossi, J. M. Millam, M. Klene, C. Adamo, R. Cammi, 
 J. W. Ochterski, R. L. Martin, K. Morokuma, O. Farkas, 
 J. B. Foresman, and D. J. Fox, Gaussian, Inc., Wallingford CT, 2016.
 
 ******************************************
 Gaussian 16:  ES64L-G16RevB.01 20-Dec-2017
                26-Oct-2021 
 ******************************************
 %nproc=28
 Will use up to   28 processors via shared memory.
 %mem=120GB
 %chk=/gscratch/ilahie/mccoygrp/coire_hocl/rOH_s_oop_0/ihod/ihod_rOH_140.chk
 --------------------------------------------------------
 #p pop=NBO SP NoSymm mp2/gen Pseudo=read density=current
 --------------------------------------------------------
 1/30=1,38=1,172=1/1;
 2/12=2,15=1,17=6,18=5,40=1/2;
 3/5=7,11=9,16=1,17=8,25=1,30=1,71=1/1,2,3;
 4//1;
 5/5=2,38=5/2;
 8/6=4,10=1/1;
 9/15=1,16=-3/6;
 10/5=1,13=10,31=1/2;
 6/7=2,8=2,9=2,10=2,22=-1,40=1/1,7;
 99/5=1,9=1/99;
 Leave Link    1 at Tue Oct 26 13:22:30 2021, MaxMem= 16106127360 cpu:               2.9 elap:               0.1
 (Enter /sw/contrib/gaussian/g16/B01/g16/l101.exe)
 -----
 title
 -----
 Symbolic Z-matrix:
 Charge = -1 Multiplicity = 1
 O
 X                    1     10. 
 H(iso=2)             1    r1       2     90. 
 I                    1    r2       2     90.      3    a1       0
 H                    1    r3       2    oop      3    a1       0
       Variables:
  r1                    0.96091                  
  r2                    3.5085                   
  r3                    1.4                      
  a1                  101.85832                  
  OOP                  90.                       
 
 ITRead=  0  0  0  0
 MicOpt= -1 -1 -1 -1
 NAtoms=      4 NQM=        4 NQMF=       0 NMMI=      0 NMMIF=      0
                NMic=       0 NMicF=      0.
                    Isotopes and Nuclear Properties:
 (Nuclear quadrupole moments (NQMom) in fm**2, nuclear magnetic moments (NMagM)
  in nuclear magnetons)

  Atom         1           2           3           4
 IAtWgt=          16           2         127           1
 AtmWgt=  15.9949146   2.0141018 126.9004000   1.0078250
 NucSpn=           0           2           5           1
 AtZEff=  -0.0000000  -0.0000000  -0.0000000  -0.0000000
 NQMom=    0.0000000   0.2860000 -71.0000000   0.0000000
 NMagM=    0.0000000   0.8574380   2.8132800   2.7928460
 AtZNuc=   8.0000000   1.0000000  53.0000000   1.0000000
 Leave Link  101 at Tue Oct 26 13:22:30 2021, MaxMem= 16106127360 cpu:               2.2 elap:               0.1
 (Enter /sw/contrib/gaussian/g16/B01/g16/l202.exe)
                          Input orientation:                          
 ---------------------------------------------------------------------
 Center     Atomic      Atomic             Coordinates (Angstroms)
 Number     Number       Type             X           Y           Z
 ---------------------------------------------------------------------
      1          8           0        0.000000    0.000000    0.000000
      2          1           0        0.960908    0.000000    0.000000
      3         53           0       -0.720970   -3.433626    0.000000
      4          1           0       -0.287689   -1.370122    0.000000
 ---------------------------------------------------------------------
                    Distance matrix (angstroms):
                    1          2          3          4
     1  O    0.000000
     2  H    0.960908   0.000000
     3  I    3.508501   3.823414   0.000000
     4  H    1.400000   1.853707   2.108501   0.000000
 Symmetry turned off by external request.
 Stoichiometry    H2IO(1-)
 Framework group  CS[SG(H2IO)]
 Deg. of freedom     5
 Full point group                 CS      NOp   2
 Rotational constants (GHZ):         323.0430132           2.5314897           2.5118062
 Leave Link  202 at Tue Oct 26 13:22:30 2021, MaxMem= 16106127360 cpu:               0.3 elap:               0.0
 (Enter /sw/contrib/gaussian/g16/B01/g16/l301.exe)
 General basis read from cards:  (5D, 7F)
 Centers:       1      2      4
 aug-cc-pVTZ
 ****
 Centers:       3
 S 11 1.00
     Exponent=  5.5465000000D+03 Coefficients=  1.5600000000D-04
     Exponent=  8.3821400000D+02 Coefficients=  9.8600000000D-04
     Exponent=  1.8218700000D+02 Coefficients=  2.7920000000D-03
     Exponent=  3.1212300000D+01 Coefficients= -4.3251000000D-02
     Exponent=  1.9531400000D+01 Coefficients=  2.3413400000D-01
     Exponent=  8.2409900000D+00 Coefficients= -7.5094300000D-01
     Exponent=  2.1945500000D+00 Coefficients=  8.8296800000D-01
     Exponent=  1.1091100000D+00 Coefficients=  4.6206100000D-01
     Exponent=  3.7464100000D-01 Coefficients=  2.2286000000D-02
     Exponent=  1.7708000000D-01 Coefficients= -4.3530000000D-03
     Exponent=  8.1061000000D-02 Coefficients=  1.1020000000D-03
 S 11 1.00
     Exponent=  5.5465000000D+03 Coefficients= -7.3000000000D-05
     Exponent=  8.3821400000D+02 Coefficients= -5.0800000000D-04
     Exponent=  1.8218700000D+02 Coefficients= -1.1580000000D-03
     Exponent=  3.1212300000D+01 Coefficients=  1.2193000000D-02
     Exponent=  1.9531400000D+01 Coefficients= -8.7854000000D-02
     Exponent=  8.2409900000D+00 Coefficients=  3.3820000000D-01
     Exponent=  2.1945500000D+00 Coefficients= -5.7655000000D-01
     Exponent=  1.1091100000D+00 Coefficients= -4.0929800000D-01
     Exponent=  3.7464100000D-01 Coefficients=  5.6745900000D-01
     Exponent=  1.7708000000D-01 Coefficients=  6.1248900000D-01
     Exponent=  8.1061000000D-02 Coefficients=  1.4323100000D-01
 S 1 1.00
     Exponent=  3.7464100000D-01 Coefficients=  1.0000000000D+00
 S 1 1.00
     Exponent=  1.7708000000D-01 Coefficients=  1.0000000000D+00
 S 1 1.00
     Exponent=  1.0010000000D-01 Coefficients=  1.0000000000D+00
 S 1 1.00
     Exponent=  4.1200000000D-02 Coefficients=  1.0000000000D+00
 P 9 1.00
     Exponent=  1.8898800000D+02 Coefficients=  5.8500000000D-04
     Exponent=  2.1286800000D+01 Coefficients=  3.6923000000D-02
     Exponent=  1.0039600000D+01 Coefficients= -2.3532400000D-01
     Exponent=  3.4518000000D+00 Coefficients=  3.4148300000D-01
     Exponent=  1.9745600000D+00 Coefficients=  5.3478800000D-01
     Exponent=  1.0242000000D+00 Coefficients=  2.6514100000D-01
     Exponent=  4.4943700000D-01 Coefficients=  2.5787000000D-02
     Exponent=  1.8664800000D-01 Coefficients=  5.2200000000D-04
     Exponent=  7.3481000000D-02 Coefficients=  6.0600000000D-04
 P 9 1.00
     Exponent=  1.8898800000D+02 Coefficients= -2.5600000000D-04
     Exponent=  2.1286800000D+01 Coefficients= -1.1682000000D-02
     Exponent=  1.0039600000D+01 Coefficients=  8.3192000000D-02
     Exponent=  3.4518000000D+00 Coefficients= -1.5697000000D-01
     Exponent=  1.9745600000D+00 Coefficients= -2.2451800000D-01
     Exponent=  1.0242000000D+00 Coefficients= -1.1445100000D-01
     Exponent=  4.4943700000D-01 Coefficients=  3.7535600000D-01
     Exponent=  1.8664800000D-01 Coefficients=  5.7513600000D-01
     Exponent=  7.3481000000D-02 Coefficients=  2.4591700000D-01
 P 1 1.00
     Exponent=  5.9810000000D-01 Coefficients=  1.0000000000D+00
 P 1 1.00
     Exponent=  9.6180000000D-02 Coefficients=  1.0000000000D+00
 P 1 1.00
     Exponent=  3.5900000000D-02 Coefficients=  1.0000000000D+00
 D 9 1.00
     Exponent=  1.3266200000D+02 Coefficients=  5.7200000000D-04
     Exponent=  3.7605400000D+01 Coefficients=  4.4020000000D-03
     Exponent=  1.0389100000D+01 Coefficients= -4.0922000000D-02
     Exponent=  6.4901700000D+00 Coefficients=  9.9661000000D-02
     Exponent=  3.4545100000D+00 Coefficients=  3.2266300000D-01
     Exponent=  1.8441300000D+00 Coefficients=  4.0034300000D-01
     Exponent=  9.6247800000D-01 Coefficients=  2.6830600000D-01
     Exponent=  4.7285300000D-01 Coefficients=  8.4847000000D-02
     Exponent=  1.9320000000D-01 Coefficients=  7.6320000000D-03
 D 1 1.00
     Exponent=  4.7285300000D-01 Coefficients=  1.0000000000D+00
 D 1 1.00
     Exponent=  1.9320000000D-01 Coefficients=  1.0000000000D+00
 D 1 1.00
     Exponent=  7.8200000000D-02 Coefficients=  1.0000000000D+00
 F 1 1.00
     Exponent=  4.0640000000D-01 Coefficients=  1.0000000000D+00
 F 1 1.00
     Exponent=  1.8480000000D-01 Coefficients=  1.0000000000D+00
 ****
 ======================================================================================================
                                       Pseudopotential Parameters
 ======================================================================================================
  Center     Atomic      Valence      Angular      Power
  Number     Number     Electrons     Momentum     of R      Exponent        Coefficient   SO-Coeffient
 ======================================================================================================
    1          8
                                   No pseudopotential on this center.
    2          1
                                   No pseudopotential on this center.
    3         53           25
                                      G and up 
                                                     2        1.0000000        0.00000000    0.00000000
                                      S - G
                                                     2       40.0333760       49.98964900    0.00000000
                                                     2       17.3005760      281.00655600    0.00000000
                                                     2        8.8517200       61.41673900    0.00000000
                                      P - G
                                                     2       15.7201410       67.41623900    0.00000000
                                                     2       15.2082220      134.80769600    0.00000000
                                                     2        8.2941860       14.56654800    0.00000000
                                                     2        7.7539490       28.96842200    0.00000000
                                      D - G
                                                     2       13.8177510       35.53875600    0.00000000
                                                     2       13.5878050       53.33975900    0.00000000
                                                     2        6.9476300        9.71646600    0.00000000
                                                     2        6.9600990       14.97750000    0.00000000
                                      F - G
                                                     2       18.5229500      -20.17661800    0.00000000
                                                     2       18.2510350      -26.08807700    0.00000000
                                                     2        7.5579010       -0.22043400    0.00000000
                                                     2        7.5974040       -0.22164600    0.00000000
    4          1
                                   No pseudopotential on this center.
 ======================================================================================================
 Ernie: Thresh=  0.10000D-02 Tol=  0.10000D-05 Strict=F.
 Ernie:  10 primitive shells out of 113 were deleted.
   147 basis functions,   296 primitive gaussians,   170 cartesian basis functions
    18 alpha electrons       18 beta electrons
       nuclear repulsion energy        47.6148482444 Hartrees.
 IExCor=    0 DFT=F Ex=HF Corr=None ExCW=0 ScaHFX=  1.000000
 ScaDFX=  1.000000  1.000000  1.000000  1.000000 ScalE2=  1.000000  1.000000
 IRadAn=      5 IRanWt=     -1 IRanGd=            0 ICorTp=0 IEmpDi=  4
 NAtoms=    4 NActive=    4 NUniq=    4 SFac= 1.00D+00 NAtFMM=   60 NAOKFM=F Big=F
 Integral buffers will be    131072 words long.
 Raffenetti 1 integral format.
 Two-electron integral symmetry is turned off.
 Leave Link  301 at Tue Oct 26 13:22:30 2021, MaxMem= 16106127360 cpu:               3.3 elap:               0.1
 (Enter /sw/contrib/gaussian/g16/B01/g16/l302.exe)
 NPDir=0 NMtPBC=     1 NCelOv=     1 NCel=       1 NClECP=     1 NCelD=      1
         NCelK=      1 NCelE2=     1 NClLst=     1 CellRange=     0.0.
 One-electron integrals computed using PRISM.
   1 Symmetry operations used in ECPInt.
 ECPInt:  NShTT=    1225 NPrTT=    5557 LenC2=    1226 LenP2D=    4936.
 LDataN:  DoStor=T MaxTD1= 7 Len=  274
 NBasis=   147 RedAO= T EigKep=  2.51D-04  NBF=   147
 NBsUse=   147 1.00D-06 EigRej= -1.00D+00 NBFU=   147
 Leave Link  302 at Tue Oct 26 13:22:31 2021, MaxMem= 16106127360 cpu:               6.8 elap:               0.3
 (Enter /sw/contrib/gaussian/g16/B01/g16/l303.exe)
 DipDrv:  MaxL=1.
 Leave Link  303 at Tue Oct 26 13:22:31 2021, MaxMem= 16106127360 cpu:               0.8 elap:               0.1
 (Enter /sw/contrib/gaussian/g16/B01/g16/l401.exe)
 ExpMin= 2.53D-02 ExpMax= 1.53D+04 ExpMxC= 5.22D+02 IAcc=3 IRadAn=         5 AccDes= 0.00D+00
 Harris functional with IExCor=  205 and IRadAn=       5 diagonalized for initial guess.
 HarFok:  IExCor=  205 AccDes= 0.00D+00 IRadAn=         5 IDoV= 1 UseB2=F ITyADJ=14
 ICtDFT=  3500011 ScaDFX=  1.000000  1.000000  1.000000  1.000000
 Defaulting to unpruned grid for atomic number  53.
 FoFCou: FMM=F IPFlag=           0 FMFlag=      100000 FMFlg1=           0
         NFxFlg=           0 DoJE=T BraDBF=F KetDBF=T FulRan=T
         wScrn=  0.000000 ICntrl=       500 IOpCl=  0 I1Cent=   200000004 NGrid=           0
         NMat0=    1 NMatS0=      1 NMatT0=    0 NMatD0=    1 NMtDS0=    0 NMtDT0=    0
 Symmetry not used in FoFCou.
 Harris En= -372.647863370277    
 JPrj=0 DoOrth=F DoCkMO=F.
 Leave Link  401 at Tue Oct 26 13:22:31 2021, MaxMem= 16106127360 cpu:               6.6 elap:               0.3
 (Enter /sw/contrib/gaussian/g16/B01/g16/l502.exe)
 Keep R1 ints in memory in canonical form, NReq=117069331.
 FoFCou: FMM=F IPFlag=           0 FMFlag=           0 FMFlg1=           0
         NFxFlg=           0 DoJE=F BraDBF=F KetDBF=F FulRan=T
         wScrn=  0.000000 ICntrl=       600 IOpCl=  0 I1Cent=           0 NGrid=           0
         NMat0=    1 NMatS0=  10878 NMatT0=    0 NMatD0=    1 NMtDS0=    0 NMtDT0=    0
 Symmetry not used in FoFCou.
 Two-electron integral symmetry not used.
 Closed shell SCF:
 Using DIIS extrapolation, IDIIS=  1040.
 NGot= 16106127360 LenX= 16046892803 LenY= 16046863462
 Requested convergence on RMS density matrix=1.00D-08 within 128 cycles.
 Requested convergence on MAX density matrix=1.00D-06.
 Requested convergence on             energy=1.00D-06.
 No special actions if energy rises.

 Cycle   1  Pass 1  IDiag  1:
 E= -370.542315678480    
 DIIS: error= 3.51D-02 at cycle   1 NSaved=   1.
 NSaved= 1 IEnMin= 1 EnMin= -370.542315678480     IErMin= 1 ErrMin= 3.51D-02
 ErrMax= 3.51D-02  0.00D+00 EMaxC= 1.00D-01 BMatC= 4.24D-01 BMatP= 4.24D-01
 IDIUse=3 WtCom= 6.49D-01 WtEn= 3.51D-01
 Coeff-Com:  0.100D+01
 Coeff-En:   0.100D+01
 Coeff:      0.100D+01
 Gap=     0.537 Goal=   None    Shift=    0.000
 GapD=    0.537 DampG=2.000 DampE=0.500 DampFc=1.0000 IDamp=-1.
 RMSDP=4.58D-03 MaxDP=1.40D-01              OVMax= 2.24D-01

 Cycle   2  Pass 1  IDiag  1:
 E= -370.636539815880     Delta-E=       -0.094224137400 Rises=F Damp=F
 DIIS: error= 3.11D-02 at cycle   2 NSaved=   2.
 NSaved= 2 IEnMin= 2 EnMin= -370.636539815880     IErMin= 2 ErrMin= 3.11D-02
 ErrMax= 3.11D-02  0.00D+00 EMaxC= 1.00D-01 BMatC= 1.53D-01 BMatP= 4.24D-01
 IDIUse=3 WtCom= 6.89D-01 WtEn= 3.11D-01
 Coeff-Com:  0.353D+00 0.647D+00
 Coeff-En:   0.283D+00 0.717D+00
 Coeff:      0.331D+00 0.669D+00
 Gap=     0.457 Goal=   None    Shift=    0.000
 RMSDP=2.09D-03 MaxDP=8.42D-02 DE=-9.42D-02 OVMax= 1.13D-01

 Cycle   3  Pass 1  IDiag  1:
 E= -370.736491097981     Delta-E=       -0.099951282101 Rises=F Damp=F
 DIIS: error= 7.88D-03 at cycle   3 NSaved=   3.
 NSaved= 3 IEnMin= 3 EnMin= -370.736491097981     IErMin= 3 ErrMin= 7.88D-03
 ErrMax= 7.88D-03  0.00D+00 EMaxC= 1.00D-01 BMatC= 1.09D-02 BMatP= 1.53D-01
 IDIUse=3 WtCom= 9.21D-01 WtEn= 7.88D-02
 Coeff-Com:  0.478D-02 0.204D+00 0.791D+00
 Coeff-En:   0.000D+00 0.000D+00 0.100D+01
 Coeff:      0.440D-02 0.188D+00 0.807D+00
 Gap=     0.311 Goal=   None    Shift=    0.000
 RMSDP=5.47D-04 MaxDP=2.52D-02 DE=-1.00D-01 OVMax= 2.34D-02

 Cycle   4  Pass 1  IDiag  1:
 E= -370.744139554621     Delta-E=       -0.007648456640 Rises=F Damp=F
 DIIS: error= 1.22D-03 at cycle   4 NSaved=   4.
 NSaved= 4 IEnMin= 4 EnMin= -370.744139554621     IErMin= 4 ErrMin= 1.22D-03
 ErrMax= 1.22D-03  0.00D+00 EMaxC= 1.00D-01 BMatC= 2.04D-04 BMatP= 1.09D-02
 IDIUse=3 WtCom= 9.88D-01 WtEn= 1.22D-02
 Coeff-Com: -0.130D-01-0.396D-02 0.119D+00 0.898D+00
 Coeff-En:   0.000D+00 0.000D+00 0.000D+00 0.100D+01
 Coeff:     -0.129D-01-0.391D-02 0.118D+00 0.899D+00
 Gap=     0.314 Goal=   None    Shift=    0.000
 RMSDP=1.37D-04 MaxDP=1.02D-02 DE=-7.65D-03 OVMax= 6.44D-03

 Cycle   5  Pass 1  IDiag  1:
 E= -370.744371608838     Delta-E=       -0.000232054217 Rises=F Damp=F
 DIIS: error= 3.17D-04 at cycle   5 NSaved=   5.
 NSaved= 5 IEnMin= 5 EnMin= -370.744371608838     IErMin= 5 ErrMin= 3.17D-04
 ErrMax= 3.17D-04  0.00D+00 EMaxC= 1.00D-01 BMatC= 1.40D-05 BMatP= 2.04D-04
 IDIUse=3 WtCom= 9.97D-01 WtEn= 3.17D-03
 Coeff-Com:  0.282D-02-0.149D-01-0.725D-01-0.991D-01 0.118D+01
 Coeff-En:   0.000D+00 0.000D+00 0.000D+00 0.000D+00 0.100D+01
 Coeff:      0.281D-02-0.149D-01-0.722D-01-0.988D-01 0.118D+01
 Gap=     0.312 Goal=   None    Shift=    0.000
 RMSDP=7.89D-05 MaxDP=3.12D-03 DE=-2.32D-04 OVMax= 3.94D-03

 Cycle   6  Pass 1  IDiag  1:
 E= -370.744415722008     Delta-E=       -0.000044113170 Rises=F Damp=F
 DIIS: error= 1.48D-04 at cycle   6 NSaved=   6.
 NSaved= 6 IEnMin= 6 EnMin= -370.744415722008     IErMin= 6 ErrMin= 1.48D-04
 ErrMax= 1.48D-04  0.00D+00 EMaxC= 1.00D-01 BMatC= 1.64D-06 BMatP= 1.40D-05
 IDIUse=3 WtCom= 9.99D-01 WtEn= 1.48D-03
 Coeff-Com: -0.139D-04 0.518D-02 0.159D-01-0.737D-01-0.333D+00 0.139D+01
 Coeff-En:   0.000D+00 0.000D+00 0.000D+00 0.000D+00 0.000D+00 0.100D+01
 Coeff:     -0.139D-04 0.518D-02 0.159D-01-0.736D-01-0.333D+00 0.139D+01
 Gap=     0.312 Goal=   None    Shift=    0.000
 RMSDP=3.24D-05 MaxDP=1.94D-03 DE=-4.41D-05 OVMax= 2.11D-03

 Cycle   7  Pass 1  IDiag  1:
 E= -370.744422800788     Delta-E=       -0.000007078781 Rises=F Damp=F
 DIIS: error= 3.03D-05 at cycle   7 NSaved=   7.
 NSaved= 7 IEnMin= 7 EnMin= -370.744422800788     IErMin= 7 ErrMin= 3.03D-05
 ErrMax= 3.03D-05  0.00D+00 EMaxC= 1.00D-01 BMatC= 1.17D-07 BMatP= 1.64D-06
 IDIUse=1 WtCom= 1.00D+00 WtEn= 0.00D+00
 Coeff-Com: -0.241D-03-0.143D-04 0.233D-02 0.305D-01-0.348D-01-0.322D+00
 Coeff-Com:  0.132D+01
 Coeff:     -0.241D-03-0.143D-04 0.233D-02 0.305D-01-0.348D-01-0.322D+00
 Coeff:      0.132D+01
 Gap=     0.311 Goal=   None    Shift=    0.000
 RMSDP=7.31D-06 MaxDP=2.56D-04 DE=-7.08D-06 OVMax= 5.06D-04

 Cycle   8  Pass 1  IDiag  1:
 E= -370.744423318303     Delta-E=       -0.000000517514 Rises=F Damp=F
 DIIS: error= 1.03D-05 at cycle   8 NSaved=   8.
 NSaved= 8 IEnMin= 8 EnMin= -370.744423318303     IErMin= 8 ErrMin= 1.03D-05
 ErrMax= 1.03D-05  0.00D+00 EMaxC= 1.00D-01 BMatC= 1.05D-08 BMatP= 1.17D-07
 IDIUse=1 WtCom= 1.00D+00 WtEn= 0.00D+00
 Coeff-Com:  0.207D-05-0.474D-03-0.997D-03 0.847D-02 0.242D-01-0.135D+00
 Coeff-Com:  0.106D+00 0.998D+00
 Coeff:      0.207D-05-0.474D-03-0.997D-03 0.847D-02 0.242D-01-0.135D+00
 Coeff:      0.106D+00 0.998D+00
 Gap=     0.311 Goal=   None    Shift=    0.000
 RMSDP=1.43D-06 MaxDP=4.72D-05 DE=-5.18D-07 OVMax= 1.12D-04

 Cycle   9  Pass 1  IDiag  1:
 E= -370.744423345798     Delta-E=       -0.000000027495 Rises=F Damp=F
 DIIS: error= 3.22D-06 at cycle   9 NSaved=   9.
 NSaved= 9 IEnMin= 9 EnMin= -370.744423345798     IErMin= 9 ErrMin= 3.22D-06
 ErrMax= 3.22D-06  0.00D+00 EMaxC= 1.00D-01 BMatC= 1.20D-09 BMatP= 1.05D-08
 IDIUse=1 WtCom= 1.00D+00 WtEn= 0.00D+00
 Coeff-Com:  0.187D-04 0.520D-04 0.329D-04-0.494D-02 0.326D-03 0.552D-01
 Coeff-Com: -0.173D+00-0.102D+00 0.122D+01
 Coeff:      0.187D-04 0.520D-04 0.329D-04-0.494D-02 0.326D-03 0.552D-01
 Coeff:     -0.173D+00-0.102D+00 0.122D+01
 Gap=     0.311 Goal=   None    Shift=    0.000
 RMSDP=7.09D-07 MaxDP=2.65D-05 DE=-2.75D-08 OVMax= 3.21D-05

 Cycle  10  Pass 1  IDiag  1:
 E= -370.744423349099     Delta-E=       -0.000000003301 Rises=F Damp=F
 DIIS: error= 5.91D-07 at cycle  10 NSaved=  10.
 NSaved=10 IEnMin=10 EnMin= -370.744423349099     IErMin=10 ErrMin= 5.91D-07
 ErrMax= 5.91D-07  0.00D+00 EMaxC= 1.00D-01 BMatC= 4.61D-11 BMatP= 1.20D-09
 IDIUse=1 WtCom= 1.00D+00 WtEn= 0.00D+00
 Coeff-Com: -0.319D-05 0.151D-04 0.104D-04 0.422D-03-0.104D-02-0.226D-02
 Coeff-Com:  0.241D-01-0.372D-01-0.218D+00 0.123D+01
 Coeff:     -0.319D-05 0.151D-04 0.104D-04 0.422D-03-0.104D-02-0.226D-02
 Coeff:      0.241D-01-0.372D-01-0.218D+00 0.123D+01
 Gap=     0.311 Goal=   None    Shift=    0.000
 RMSDP=1.46D-07 MaxDP=4.91D-06 DE=-3.30D-09 OVMax= 6.98D-06

 Cycle  11  Pass 1  IDiag  1:
 E= -370.744423349238     Delta-E=       -0.000000000139 Rises=F Damp=F
 DIIS: error= 1.63D-07 at cycle  11 NSaved=  11.
 NSaved=11 IEnMin=11 EnMin= -370.744423349238     IErMin=11 ErrMin= 1.63D-07
 ErrMax= 1.63D-07  0.00D+00 EMaxC= 1.00D-01 BMatC= 2.02D-12 BMatP= 4.61D-11
 IDIUse=1 WtCom= 1.00D+00 WtEn= 0.00D+00
 Coeff-Com: -0.403D-06-0.300D-05 0.735D-05 0.133D-03 0.568D-05-0.144D-02
 Coeff-Com:  0.259D-02 0.910D-02-0.581D-02-0.261D+00 0.126D+01
 Coeff:     -0.403D-06-0.300D-05 0.735D-05 0.133D-03 0.568D-05-0.144D-02
 Coeff:      0.259D-02 0.910D-02-0.581D-02-0.261D+00 0.126D+01
 Gap=     0.311 Goal=   None    Shift=    0.000
 RMSDP=2.65D-08 MaxDP=7.27D-07 DE=-1.39D-10 OVMax= 1.39D-06

 Cycle  12  Pass 1  IDiag  1:
 E= -370.744423349245     Delta-E=       -0.000000000007 Rises=F Damp=F
 DIIS: error= 4.14D-08 at cycle  12 NSaved=  12.
 NSaved=12 IEnMin=12 EnMin= -370.744423349245     IErMin=12 ErrMin= 4.14D-08
 ErrMax= 4.14D-08  0.00D+00 EMaxC= 1.00D-01 BMatC= 1.32D-13 BMatP= 2.02D-12
 IDIUse=1 WtCom= 1.00D+00 WtEn= 0.00D+00
 Coeff-Com:  0.276D-06-0.406D-06 0.571D-06-0.456D-04 0.467D-04 0.306D-03
 Coeff-Com: -0.177D-02 0.145D-02 0.151D-01-0.654D-01-0.667D-01 0.112D+01
 Coeff:      0.276D-06-0.406D-06 0.571D-06-0.456D-04 0.467D-04 0.306D-03
 Coeff:     -0.177D-02 0.145D-02 0.151D-01-0.654D-01-0.667D-01 0.112D+01
 Gap=     0.311 Goal=   None    Shift=    0.000
 RMSDP=7.64D-09 MaxDP=2.47D-07 DE=-7.28D-12 OVMax= 3.19D-07

 SCF Done:  E(RHF) =  -370.744423349     A.U. after   12 cycles
            NFock= 12  Conv=0.76D-08     -V/T= 2.9876
 KE= 1.865280725210D+02 PE=-9.085359273124D+02 EE= 3.036485831978D+02
 Leave Link  502 at Tue Oct 26 13:22:33 2021, MaxMem= 16106127360 cpu:              32.1 elap:               2.1
 (Enter /sw/contrib/gaussian/g16/B01/g16/l801.exe)
 ExpMin= 2.53D-02 ExpMax= 1.53D+04 ExpMxC= 5.22D+02 IAcc=3 IRadAn=         5 AccDes= 0.00D+00
 HarFok:  IExCor=  205 AccDes= 0.00D+00 IRadAn=         5 IDoV=-2 UseB2=F ITyADJ=14
 ICtDFT= 12500011 ScaDFX=  1.000000  1.000000  1.000000  1.000000
 Defaulting to unpruned grid for atomic number  53.
 Largest valence mixing into a core orbital is  1.31D-04
 Largest core mixing into a valence orbital is  2.44D-05
 Range of M.O.s used for correlation:     6   147
 NBasis=   147 NAE=    18 NBE=    18 NFC=     5 NFV=     0
 NROrb=    142 NOA=    13 NOB=    13 NVA=   129 NVB=   129

 **** Warning!!: The largest alpha MO coefficient is  0.17826883D+02

 Leave Link  801 at Tue Oct 26 13:22:33 2021, MaxMem= 16106127360 cpu:               2.5 elap:               0.1
 (Enter /sw/contrib/gaussian/g16/B01/g16/l906.exe)
 Frozen-core derivative calculation, NFC=   5 NFV=   0.
 FulOut=F Deriv=T AODrv=F NAtomX=     4
   MMem=         225  MDisk=          13 MDiskD=          13
  W3Min=      449820 MinDsk=      818995 NBas6D=         170
 NBas2D=       14925    NTT=       14535    LW2=    26219120
    MDV= 16105851477 MDiskM=      473642 NBas2p=       14925
 Fully in-core method, ICMem=   303093605.
 IMap=   1   2   3   4   5   6   7   8   9  10  11  12  13  14  15  16  17  18
 JobTyp=1 Pass  1 fully in-core, NPsUse= 28.
 Compute canonical integrals.
 FoFCou: FMM=F IPFlag=           0 FMFlag=           0 FMFlg1=           0
         NFxFlg=           0 DoJE=F BraDBF=F KetDBF=F FulRan=T
         wScrn=  0.000000 ICntrl=       600 IOpCl=  1 I1Cent=           0 NGrid=           0
         NMat0=    1 NMatS0=  14925 NMatT0=    0 NMatD0=    1 NMtDS0=    0 NMtDT0=    0
 Symmetry not used in FoFCou.
 Spin components of T(2) and E(2):
     alpha-alpha T2 =       0.2410363238D-01 E2=     -0.7102858115D-01
     alpha-beta  T2 =       0.1261437775D+00 E2=     -0.3778702076D+00
     beta-beta   T2 =       0.2410363238D-01 E2=     -0.7102858115D-01
 The integrals were generated   1 times.
 ANorm=    0.1083674786D+01
 E2 =    -0.5199273699D+00 EUMP2 =    -0.37126435071918D+03
 Leave Link  906 at Tue Oct 26 13:22:36 2021, MaxMem= 16106127360 cpu:              82.3 elap:               3.0
 (Enter /sw/contrib/gaussian/g16/B01/g16/l1002.exe)
 Minotr:  Closed shell wavefunction.
          Computing MP2/KS-MP2 derivatives.
          Using Z-Vector for PSCF gradient.
          Skipping F1 and S1 gradient terms here.
          Frozen-core window.
          Direct CPHF calculation.
          Differentiating once with respect to electric field.
                with respect to dipole field.
          Electric field/nuclear overlap derivatives assumed to be zero.
          Requested convergence is 1.0D-10 RMS, and 1.0D-09 maximum.
          NewPWx=F KeepS1=T KeepF1=T KeepIn=T MapXYZ=F SortEE=F KeepMc=T.
 Keep R1 ints in memory in canonical form, NReq=117072019.
 FoFCou: FMM=F IPFlag=           0 FMFlag=           0 FMFlg1=           0
         NFxFlg=           0 DoJE=F BraDBF=F KetDBF=F FulRan=T
         wScrn=  0.000000 ICntrl=       600 IOpCl=  0 I1Cent=           0 NGrid=           0
         NMat0=    1 NMatS0=  10878 NMatT0=    0 NMatD0=    1 NMtDS0=    0 NMtDT0=    0
 Symmetry not used in FoFCou.
 Two-electron integral symmetry not used.
          MDV=   16106127360 using IRadAn=       5.
          Solving linear equations separately, MaxMat=       0.
          There are     1 degrees of freedom in the 1st order CPHF.  IDoFFX=0 NUNeed=     1.
 LinEq1:  Iter=  0 NonCon=     1 RMS=3.74D-03 Max=8.18D-02 NDo=     1
 AX will form     1 AO Fock derivatives at one time.
 LinEq1:  Iter=  1 NonCon=     1 RMS=6.71D-04 Max=9.05D-03 NDo=     1
 LinEq1:  Iter=  2 NonCon=     1 RMS=2.49D-04 Max=3.20D-03 NDo=     1
 LinEq1:  Iter=  3 NonCon=     1 RMS=9.44D-05 Max=1.06D-03 NDo=     1
 LinEq1:  Iter=  4 NonCon=     1 RMS=5.36D-05 Max=8.72D-04 NDo=     1
 LinEq1:  Iter=  5 NonCon=     1 RMS=9.90D-06 Max=1.21D-04 NDo=     1
 LinEq1:  Iter=  6 NonCon=     1 RMS=1.99D-06 Max=1.88D-05 NDo=     1
 LinEq1:  Iter=  7 NonCon=     1 RMS=4.53D-07 Max=6.60D-06 NDo=     1
 LinEq1:  Iter=  8 NonCon=     1 RMS=1.27D-07 Max=1.48D-06 NDo=     1
 LinEq1:  Iter=  9 NonCon=     1 RMS=3.00D-08 Max=4.18D-07 NDo=     1
 LinEq1:  Iter= 10 NonCon=     1 RMS=6.26D-09 Max=7.56D-08 NDo=     1
 LinEq1:  Iter= 11 NonCon=     1 RMS=1.07D-09 Max=1.22D-08 NDo=     1
 LinEq1:  Iter= 12 NonCon=     1 RMS=2.84D-10 Max=3.65D-09 NDo=     1
 LinEq1:  Iter= 13 NonCon=     0 RMS=8.55D-11 Max=8.58D-10 NDo=     1
 Linear equations converged to 1.000D-10 1.000D-09 after    13 iterations.
 End of Minotr F.D. properties file   721 does not exist.
 End of Minotr F.D. properties file   722 does not exist.
 End of Minotr F.D. properties file   788 does not exist.
 Leave Link 1002 at Tue Oct 26 13:22:39 2021, MaxMem= 16106127360 cpu:              33.0 elap:               2.4
 (Enter /sw/contrib/gaussian/g16/B01/g16/l601.exe)
 Copying SCF densities to generalized density rwf, IOpCl= 0 IROHF=0.

 **********************************************************************

            Population analysis using the MP2 Density.

 **********************************************************************

 Alpha  occ. eigenvalues --  -20.35347  -7.49686  -5.32352  -5.32160  -5.32155
 Alpha  occ. eigenvalues --   -2.05135  -2.05032  -2.05026  -2.04817  -2.04817
 Alpha  occ. eigenvalues --   -1.07590  -0.66160  -0.42678  -0.34027  -0.27771
 Alpha  occ. eigenvalues --   -0.17181  -0.16825  -0.16775
 Alpha virt. eigenvalues --    0.14364   0.16884   0.22793   0.24043   0.24317
 Alpha virt. eigenvalues --    0.28058   0.30018   0.30706   0.31496   0.34294
 Alpha virt. eigenvalues --    0.36169   0.36288   0.36511   0.39067   0.39515
 Alpha virt. eigenvalues --    0.43740   0.45064   0.47142   0.49276   0.55358
 Alpha virt. eigenvalues --    0.57663   0.61563   0.66446   0.71283   0.75566
 Alpha virt. eigenvalues --    0.75642   0.76073   0.77695   0.77772   0.78692
 Alpha virt. eigenvalues --    0.81500   0.82823   0.84571   0.86068   0.86330
 Alpha virt. eigenvalues --    0.86334   0.87401   0.91333   0.91996   0.93691
 Alpha virt. eigenvalues --    0.95810   0.98769   1.04436   1.07581   1.09105
 Alpha virt. eigenvalues --    1.12363   1.13632   1.13709   1.18150   1.20224
 Alpha virt. eigenvalues --    1.22058   1.23813   1.27128   1.37159   1.37435
 Alpha virt. eigenvalues --    1.48140   1.49620   1.51400   1.58779   1.66159
 Alpha virt. eigenvalues --    1.72446   1.72646   1.72853   1.73541   1.74465
 Alpha virt. eigenvalues --    1.74612   1.77831   1.82234   1.86734   1.90919
 Alpha virt. eigenvalues --    1.98985   2.03254   2.03303   2.03767   2.06958
 Alpha virt. eigenvalues --    2.11347   2.16124   2.33333   2.43507   2.49365
 Alpha virt. eigenvalues --    2.56503   2.57212   2.61589   2.61836   2.72793
 Alpha virt. eigenvalues --    2.77367   2.87335   2.90014   2.98212   3.01024
 Alpha virt. eigenvalues --    3.22652   3.38041   3.38296   3.57578   3.88913
 Alpha virt. eigenvalues --    4.13435   4.15281   4.29563   4.31108   4.32761
 Alpha virt. eigenvalues --    4.39615   4.44908   4.53673   4.57171   4.59080
 Alpha virt. eigenvalues --    4.63434   4.78914   4.79829   5.04619   5.15403
 Alpha virt. eigenvalues --    5.40513   5.53328   5.57475   6.10749   6.52016
 Alpha virt. eigenvalues --    6.91157   6.99845   7.05580   7.15235   7.43186
 Alpha virt. eigenvalues --    7.46403   7.53337   7.53833   7.55798   7.75699
 Alpha virt. eigenvalues --    7.91368   8.47521  14.52516  59.19060
          Condensed to atoms (all electrons):
               1          2          3          4
     1  O    8.378885   0.188381  -0.109243   0.189537
     2  H    0.188381   0.622996  -0.003421   0.036919
     3  I   -0.109243  -0.003421  25.749679  -0.001013
     4  H    0.189537   0.036919  -0.001013   0.646119
 Mulliken charges:
               1
     1  O   -0.647560
     2  H    0.155125
     3  I   -0.636002
     4  H    0.128438
 Sum of Mulliken charges =  -1.00000
 Mulliken charges with hydrogens summed into heavy atoms:
               1
     1  O   -0.363998
     3  I   -0.636002
 Electronic spatial extent (au):  <R**2>=           1229.4799
 Charge=             -1.0000 electrons
 Dipole moment (field-independent basis, Debye):
    X=              3.3360    Y=             10.4559    Z=              0.0000  Tot=             10.9752
 Quadrupole moment (field-independent basis, Debye-Ang):
   XX=            -40.4549   YY=            -79.8078   ZZ=            -41.4446
   XY=             -7.6793   XZ=             -0.0000   YZ=             -0.0000
 Traceless Quadrupole moment (field-independent basis, Debye-Ang):
   XX=             13.4475   YY=            -25.9053   ZZ=             12.4578
   XY=             -7.6793   XZ=             -0.0000   YZ=             -0.0000
 Octapole moment (field-independent basis, Debye-Ang**2):
  XXX=             70.9365  YYY=            469.5929  ZZZ=              0.0000  XYY=             49.7642
  XXY=            117.7151  XXZ=              0.0000  XZZ=             22.6615  YZZ=            112.1169
  YYZ=              0.0000  XYZ=              0.0000
 Hexadecapole moment (field-independent basis, Debye-Ang**3):
 XXXX=           -171.3182 YYYY=          -2799.5055 ZZZZ=            -71.5380 XXXY=           -243.9638
 XXXZ=             -0.0000 YYYX=           -327.6195 YYYZ=             -0.0000 ZZZX=             -0.0000
 ZZZY=             -0.0000 XXYY=           -441.8448 XXZZ=            -40.6923 YYZZ=           -407.1074
 XXYZ=             -0.0000 YYXZ=             -0.0000 ZZXY=            -80.1083
 N-N= 4.761484824442D+01 E-N=-9.079689056830D+02  KE= 1.867644509416D+02
 No NMR shielding tensors so no spin-rotation constants.
 Leave Link  601 at Tue Oct 26 13:22:39 2021, MaxMem= 16106127360 cpu:               4.1 elap:               0.2
 (Enter /sw/contrib/gaussian/g16/B01/g16/l607.exe)
 ******************************Gaussian NBO Version 3.1******************************
             N A T U R A L   A T O M I C   O R B I T A L   A N D
          N A T U R A L   B O N D   O R B I T A L   A N A L Y S I S
 ******************************Gaussian NBO Version 3.1******************************
       /RESON  / : Allow strongly delocalized NBO set

 Analyzing the MP2 density

 Job title: title                                                           

 Storage needed:     65577 in NPA,     86948 in NBO (********** available)
 GSVD:  LWork=         -15 too small for GESVD, short by       42345 words or       42345 for optimal perf.


 NATURAL POPULATIONS:  Natural atomic orbital occupancies 
                                                          
   NAO  Atom  No  lang   Type(AO)    Occupancy
 --------------------------------------------
     1    O    1  S      Cor( 1S)     1.99972
     2    O    1  S      Val( 2S)     1.80326
     3    O    1  S      Ryd( 3S)     0.00787
     4    O    1  S      Ryd( 4S)     0.00036
     5    O    1  S      Ryd( 5S)     0.00019
     6    O    1  px     Val( 2p)     1.51752
     7    O    1  px     Ryd( 3p)     0.01336
     8    O    1  px     Ryd( 4p)     0.00058
     9    O    1  px     Ryd( 5p)     0.00014
    10    O    1  py     Val( 2p)     1.68128
    11    O    1  py     Ryd( 3p)     0.01463
    12    O    1  py     Ryd( 4p)     0.00057
    13    O    1  py     Ryd( 5p)     0.00013
    14    O    1  pz     Val( 2p)     1.95078
    15    O    1  pz     Ryd( 3p)     0.02515
    16    O    1  pz     Ryd( 4p)     0.00057
    17    O    1  pz     Ryd( 5p)     0.00000
    18    O    1  dxy    Ryd( 3d)     0.00819
    19    O    1  dxy    Ryd( 4d)     0.00051
    20    O    1  dxy    Ryd( 5d)     0.00009
    21    O    1  dxz    Ryd( 3d)     0.00887
    22    O    1  dxz    Ryd( 4d)     0.00053
    23    O    1  dxz    Ryd( 5d)     0.00008
    24    O    1  dyz    Ryd( 3d)     0.00679
    25    O    1  dyz    Ryd( 4d)     0.00059
    26    O    1  dyz    Ryd( 5d)     0.00008
    27    O    1  dx2y2  Ryd( 3d)     0.01136
    28    O    1  dx2y2  Ryd( 4d)     0.00047
    29    O    1  dx2y2  Ryd( 5d)     0.00011
    30    O    1  dz2    Ryd( 3d)     0.00781
    31    O    1  dz2    Ryd( 4d)     0.00059
    32    O    1  dz2    Ryd( 5d)     0.00011
    33    O    1  f(0)   Ryd( 4f)     0.00061
    34    O    1  f(0)   Ryd( 5f)     0.00011
    35    O    1  f(C1)  Ryd( 4f)     0.00056
    36    O    1  f(C1)  Ryd( 5f)     0.00010
    37    O    1  f(S1)  Ryd( 4f)     0.00061
    38    O    1  f(S1)  Ryd( 5f)     0.00012
    39    O    1  f(C2)  Ryd( 4f)     0.00049
    40    O    1  f(C2)  Ryd( 5f)     0.00010
    41    O    1  f(S2)  Ryd( 4f)     0.00047
    42    O    1  f(S2)  Ryd( 5f)     0.00008
    43    O    1  f(C3)  Ryd( 4f)     0.00047
    44    O    1  f(C3)  Ryd( 5f)     0.00013
    45    O    1  f(S3)  Ryd( 4f)     0.00048
    46    O    1  f(S3)  Ryd( 5f)     0.00012

    47    H    2  S      Val( 1S)     0.56203
    48    H    2  S      Ryd( 2S)     0.00253
    49    H    2  S      Ryd( 3S)     0.00021
    50    H    2  S      Ryd( 4S)     0.00009
    51    H    2  px     Ryd( 2p)     0.00238
    52    H    2  px     Ryd( 3p)     0.00081
    53    H    2  px     Ryd( 4p)     0.00014
    54    H    2  py     Ryd( 2p)     0.00255
    55    H    2  py     Ryd( 3p)     0.00026
    56    H    2  py     Ryd( 4p)     0.00014
    57    H    2  pz     Ryd( 2p)     0.00488
    58    H    2  pz     Ryd( 3p)     0.00020
    59    H    2  pz     Ryd( 4p)     0.00005
    60    H    2  dxy    Ryd( 3d)     0.00007
    61    H    2  dxy    Ryd( 4d)     0.00005
    62    H    2  dxz    Ryd( 3d)     0.00008
    63    H    2  dxz    Ryd( 4d)     0.00007
    64    H    2  dyz    Ryd( 3d)     0.00012
    65    H    2  dyz    Ryd( 4d)     0.00005
    66    H    2  dx2y2  Ryd( 3d)     0.00011
    67    H    2  dx2y2  Ryd( 4d)     0.00006
    68    H    2  dz2    Ryd( 3d)     0.00013
    69    H    2  dz2    Ryd( 4d)     0.00007

    70    I    3  S      Cor( 4S)     1.99950
    71    I    3  S      Val( 5S)     1.95005
    72    I    3  S      Ryd( 6S)     0.00159
    73    I    3  S      Ryd( 7S)     0.00046
    74    I    3  S      Ryd( 8S)     0.00010
    75    I    3  S      Ryd( 9S)     0.00001
    76    I    3  px     Cor( 4p)     1.99993
    77    I    3  px     Val( 5p)     1.94135
    78    I    3  px     Ryd( 6p)     0.01009
    79    I    3  px     Ryd( 7p)     0.00071
    80    I    3  px     Ryd( 8p)     0.00008
    81    I    3  py     Cor( 4p)     1.99964
    82    I    3  py     Val( 5p)     1.71824
    83    I    3  py     Ryd( 6p)     0.00869
    84    I    3  py     Ryd( 7p)     0.00068
    85    I    3  py     Ryd( 8p)     0.00019
    86    I    3  pz     Cor( 4p)     1.99994
    87    I    3  pz     Val( 5p)     1.95195
    88    I    3  pz     Ryd( 6p)     0.01012
    89    I    3  pz     Ryd( 7p)     0.00069
    90    I    3  pz     Ryd( 8p)     0.00006
    91    I    3  dxy    Cor( 4d)     1.99668
    92    I    3  dxy    Ryd( 5d)     0.01947
    93    I    3  dxy    Ryd( 6d)     0.00122
    94    I    3  dxy    Ryd( 7d)     0.00022
    95    I    3  dxz    Cor( 4d)     1.99679
    96    I    3  dxz    Ryd( 5d)     0.01966
    97    I    3  dxz    Ryd( 6d)     0.00157
    98    I    3  dxz    Ryd( 7d)     0.00014
    99    I    3  dyz    Cor( 4d)     1.99674
   100    I    3  dyz    Ryd( 5d)     0.01941
   101    I    3  dyz    Ryd( 6d)     0.00121
   102    I    3  dyz    Ryd( 7d)     0.00022
   103    I    3  dx2y2  Cor( 4d)     1.99648
   104    I    3  dx2y2  Ryd( 5d)     0.01978
   105    I    3  dx2y2  Ryd( 6d)     0.00143
   106    I    3  dx2y2  Ryd( 7d)     0.00018
   107    I    3  dz2    Cor( 4d)     1.99667
   108    I    3  dz2    Ryd( 5d)     0.01977
   109    I    3  dz2    Ryd( 6d)     0.00154
   110    I    3  dz2    Ryd( 7d)     0.00015
   111    I    3  f(0)   Ryd( 4f)     0.00268
   112    I    3  f(0)   Ryd( 5f)     0.00041
   113    I    3  f(C1)  Ryd( 4f)     0.00273
   114    I    3  f(C1)  Ryd( 5f)     0.00041
   115    I    3  f(S1)  Ryd( 4f)     0.00282
   116    I    3  f(S1)  Ryd( 5f)     0.00043
   117    I    3  f(C2)  Ryd( 4f)     0.00265
   118    I    3  f(C2)  Ryd( 5f)     0.00041
   119    I    3  f(S2)  Ryd( 4f)     0.00271
   120    I    3  f(S2)  Ryd( 5f)     0.00041
   121    I    3  f(C3)  Ryd( 4f)     0.00267
   122    I    3  f(C3)  Ryd( 5f)     0.00041
   123    I    3  f(S3)  Ryd( 4f)     0.00278
   124    I    3  f(S3)  Ryd( 5f)     0.00043

   125    H    4  S      Val( 1S)     0.62748
   126    H    4  S      Ryd( 2S)     0.00574
   127    H    4  S      Ryd( 3S)     0.00052
   128    H    4  S      Ryd( 4S)     0.00023
   129    H    4  px     Ryd( 2p)     0.00423
   130    H    4  px     Ryd( 3p)     0.00041
   131    H    4  px     Ryd( 4p)     0.00006
   132    H    4  py     Ryd( 2p)     0.00412
   133    H    4  py     Ryd( 3p)     0.00130
   134    H    4  py     Ryd( 4p)     0.00016
   135    H    4  pz     Ryd( 2p)     0.00446
   136    H    4  pz     Ryd( 3p)     0.00032
   137    H    4  pz     Ryd( 4p)     0.00005
   138    H    4  dxy    Ryd( 3d)     0.00039
   139    H    4  dxy    Ryd( 4d)     0.00008
   140    H    4  dxz    Ryd( 3d)     0.00023
   141    H    4  dxz    Ryd( 4d)     0.00004
   142    H    4  dyz    Ryd( 3d)     0.00041
   143    H    4  dyz    Ryd( 4d)     0.00008
   144    H    4  dx2y2  Ryd( 3d)     0.00025
   145    H    4  dx2y2  Ryd( 4d)     0.00012
   146    H    4  dz2    Ryd( 3d)     0.00024
   147    H    4  dz2    Ryd( 4d)     0.00007

 [ 28 electrons found in the effective core potential]

 WARNING:  5 low occupancy (<1.9990e) core orbitals found on  I    3


 Summary of Natural Population Analysis:                  
                                                          
                                       Natural Population 
                Natural  -----------------------------------------------
    Atom  No    Charge         Core      Valence    Rydberg      Total
 -----------------------------------------------------------------------
      O    1   -1.06676      1.99972     6.95284    0.11421     9.06676
      H    2    0.42293      0.00000     0.56203    0.01504     0.57707
      I    3   -0.70534     45.98238     7.56159    0.16137    53.70534
      H    4    0.34902      0.00000     0.62748    0.02350     0.65098
 =======================================================================
   * Total *   -1.00015     47.98210    15.70394    0.31412    64.00015

                                 Natural Population      
 --------------------------------------------------------
   Effective Core            28.00000
   Core                      19.98210 ( 99.9105% of  20)
   Valence                   15.70394 ( 98.1496% of  16)
   Natural Minimal Basis     63.68603 ( 99.5094% of  64)
   Natural Rydberg Basis      0.31412 (  0.4908% of  64)
 --------------------------------------------------------

    Atom  No          Natural Electron Configuration
 ----------------------------------------------------------------------------
      O    1      [core]2S( 1.80)2p( 5.15)3S( 0.01)3p( 0.05)3d( 0.04)
      H    2            1S( 0.56)2p( 0.01)
      I    3      [core]5S( 1.95)5p( 5.61)4f( 0.02)5d( 0.10)6p( 0.03)6d( 0.01)
      H    4            1S( 0.63)2S( 0.01)2p( 0.01)


 NATURAL BOND ORBITAL ANALYSIS:
 Warning:  a bond orbital has occupanc of -0.00001
 Warning:  a bond orbital has occupanc of -0.00028

                       Occupancies       Lewis Structure    Low   High
           Occ.    -------------------  -----------------   occ   occ
  Cycle   Thresh.   Lewis   Non-Lewis     CR  BD  3C  LP    (L)   (NL)   Dev
 =============================================================================
   1(1)    1.90    63.38011   0.61989     10   2   0   6     1      1    0.36
 Warning:  a bond orbital has occupanc of -0.00001
 Warning:  a bond orbital has occupanc of -0.00028
   2(2)    1.90    63.32617   0.67383     10   2   0   6     1      1    0.43
 Warning:  a bond orbital has occupanc of -0.00001
 Warning:  a bond orbital has occupanc of -0.00028
   3(3)    1.90    63.38011   0.61989     10   2   0   6     1      1    0.36
 Warning:  a bond orbital has occupanc of -0.00001
 Warning:  a bond orbital has occupanc of -0.00028
   4(1)    1.80    63.38011   0.61989     10   2   0   6     1      1    0.36
 Warning:  a bond orbital has occupanc of -0.00001
 Warning:  a bond orbital has occupanc of -0.00028
   5(2)    1.80    63.32617   0.67383     10   2   0   6     1      1    0.43
 Warning:  a bond orbital has occupanc of -0.00001
 Warning:  a bond orbital has occupanc of -0.00028
   6(3)    1.80    63.38011   0.61989     10   2   0   6     1      1    0.36
 Warning:  a bond orbital has occupanc of -0.00001
 Warning:  a bond orbital has occupanc of -0.00028
   7(1)    1.70    63.38011   0.61989     10   2   0   6     1      1    0.36
 Warning:  a bond orbital has occupanc of -0.00001
 Warning:  a bond orbital has occupanc of -0.00028
   8(2)    1.70    63.32617   0.67383     10   2   0   6     1      1    0.43
 Warning:  a bond orbital has occupanc of -0.00001
 Warning:  a bond orbital has occupanc of -0.00028
   9(3)    1.70    63.38011   0.61989     10   2   0   6     1      1    0.36
 Warning:  a bond orbital has occupanc of -0.00001
 Warning:  a bond orbital has occupanc of -0.00028
  10(1)    1.60    63.05953   0.94047     10   1   0   7     0      1    0.43
 Warning:  a bond orbital has occupanc of -0.00001
 Warning:  a bond orbital has occupanc of -0.00028
  11(2)    1.60    63.05953   0.94047     10   1   0   7     0      1    0.43
 Warning:  a bond orbital has occupanc of -0.00001
 Warning:  a bond orbital has occupanc of -0.00028
  12(1)    1.50    63.05953   0.94047     10   1   0   7     0      1    0.43
 Warning:  a bond orbital has occupanc of -0.00001
 Warning:  a bond orbital has occupanc of -0.00028
  13(2)    1.50    63.05953   0.94047     10   1   0   7     0      1    0.43
 Warning:  a bond orbital has occupanc of -0.00001
 Warning:  a bond orbital has occupanc of -0.00028
  14(1)    1.90    63.38011   0.61989     10   2   0   6     1      1    0.36
 -----------------------------------------------------------------------------

 Structure accepted: RESONANCE keyword permits strongly delocalized structure

 WARNING:  5 low occupancy (<1.9990e) core orbitals found on  I    3

 --------------------------------------------------------
   Effective Core           28.00000
   Core                     19.98209 ( 99.910% of  20)
   Valence Lewis            15.39802 ( 96.238% of  16)
  ==================       ============================
   Total Lewis              63.38011 ( 99.031% of  64)
  -----------------------------------------------------
   Valence non-Lewis         0.32955 (  0.515% of  64)
   Rydberg non-Lewis         0.29034 (  0.454% of  64)
  ==================       ============================
   Total non-Lewis           0.61989 (  0.969% of  64)
 --------------------------------------------------------


       (Occupancy)   Bond orbital/ Coefficients/ Hybrids
 ---------------------------------------------------------------------------------
     1. (1.96196) BD ( 1) O   1 - H   2  
                ( 72.16%)   0.8494* O   1 s( 21.67%)p 3.59( 77.84%)d 0.02(  0.48%)
                                                  f 0.00(  0.01%)
                                            0.0003  0.4654 -0.0099 -0.0032 -0.0013
                                            0.8810 -0.0421 -0.0096 -0.0069  0.0171
                                           -0.0041  0.0020 -0.0017  0.0000  0.0000
                                            0.0000  0.0000 -0.0126  0.0041 -0.0024
                                            0.0000  0.0000  0.0000  0.0000  0.0000
                                            0.0000  0.0588 -0.0060  0.0038 -0.0334
                                            0.0010  0.0001  0.0000  0.0000 -0.0096
                                            0.0004 -0.0005  0.0001  0.0000  0.0000
                                            0.0000  0.0000  0.0060  0.0031  0.0003
                                           -0.0001
                ( 27.84%)   0.5277* H   2 s( 99.82%)p 0.00(  0.18%)d 0.00(  0.00%)
                                            0.9991  0.0055  0.0002 -0.0003  0.0239
                                           -0.0342 -0.0040 -0.0068  0.0000  0.0006
                                            0.0000  0.0000  0.0000  0.0000  0.0023
                                            0.0000  0.0000  0.0000  0.0000  0.0028
                                            0.0032 -0.0028 -0.0014
     2. (1.94789) BD ( 1) O   1 - H   4  
                ( 80.48%)   0.8971* O   1 s( 14.16%)p 6.04( 85.61%)d 0.02(  0.22%)
                                                  f 0.00(  0.01%)
                                           -0.0002 -0.3763 -0.0052 -0.0004 -0.0008
                                            0.1792 -0.0133 -0.0013 -0.0017  0.9076
                                            0.0075 -0.0016 -0.0034  0.0000  0.0000
                                            0.0000  0.0000  0.0196 -0.0030  0.0011
                                            0.0000  0.0000  0.0000  0.0000  0.0000
                                            0.0000  0.0353 -0.0055  0.0004  0.0222
                                           -0.0037 -0.0007  0.0000  0.0000 -0.0011
                                           -0.0002 -0.0079  0.0026  0.0000  0.0000
                                            0.0000  0.0000 -0.0024  0.0004 -0.0001
                                            0.0011
                ( 19.52%)   0.4419* H   4 s( 99.83%)p 0.00(  0.16%)d 0.00(  0.01%)
                                           -0.9987 -0.0254  0.0137  0.0041 -0.0222
                                           -0.0045 -0.0021  0.0054 -0.0298 -0.0112
                                            0.0000  0.0000  0.0000  0.0001 -0.0025
                                            0.0000  0.0000  0.0000  0.0000  0.0054
                                            0.0067  0.0046  0.0043
     3. (1.99972) CR ( 1) O   1           s(100.00%)p 0.00(  0.00%)
                                            1.0000 -0.0004  0.0000  0.0000  0.0000
                                           -0.0001  0.0000  0.0000  0.0000  0.0001
                                            0.0000 -0.0000 -0.0000  0.0000  0.0000
                                            0.0000  0.0000  0.0000 -0.0000  0.0000
                                            0.0000  0.0000  0.0000  0.0000  0.0000
                                            0.0000 -0.0000  0.0000 -0.0000  0.0000
                                           -0.0000 -0.0000  0.0000  0.0000  0.0000
                                            0.0000 -0.0000  0.0000  0.0000  0.0000
                                            0.0000  0.0000 -0.0000 -0.0000 -0.0000
                                            0.0000
     4. (1.99950) CR ( 1) I   3           s(100.00%)p 0.00(  0.00%)
                                            1.0000 -0.0004 -0.0000 -0.0000  0.0000
                                            0.0000  0.0000  0.0000 -0.0000 -0.0000
                                            0.0000  0.0000  0.0001 -0.0000  0.0000
                                            0.0000  0.0000  0.0000  0.0000  0.0000
                                            0.0000  0.0000  0.0000 -0.0000 -0.0000
                                            0.0000  0.0000  0.0000  0.0000  0.0000
                                            0.0000  0.0000  0.0000 -0.0000 -0.0000
                                            0.0000  0.0000 -0.0000 -0.0000  0.0000
                                            0.0000  0.0000  0.0000 -0.0000  0.0000
                                           -0.0000  0.0000  0.0000  0.0000  0.0000
                                            0.0000 -0.0000  0.0000 -0.0000  0.0000
     5. (1.99993) CR ( 2) I   3           s(  0.00%)p 1.00(100.00%)
                                            0.0000  0.0001  0.0000 -0.0000  0.0000
                                           -0.0000  1.0000 -0.0006 -0.0000 -0.0000
                                            0.0000  0.0000  0.0001  0.0000 -0.0000
                                            0.0000  0.0000  0.0000  0.0000  0.0000
                                            0.0000  0.0000 -0.0000  0.0000  0.0000
                                            0.0000  0.0000  0.0000  0.0000  0.0000
                                            0.0000  0.0000  0.0000  0.0000 -0.0000
                                           -0.0000  0.0000  0.0000  0.0000  0.0000
                                            0.0000  0.0000  0.0000  0.0000  0.0000
                                           -0.0000 -0.0000  0.0000  0.0000  0.0000
                                            0.0000  0.0000  0.0000 -0.0000 -0.0000
     6. (1.99964) CR ( 3) I   3           s(  0.00%)p 1.00(100.00%)
                                            0.0000  0.0003  0.0000  0.0000 -0.0000
                                           -0.0000  0.0000  0.0001  0.0000  0.0000
                                           -0.0000  1.0000 -0.0001  0.0000  0.0000
                                           -0.0000  0.0000  0.0000  0.0000  0.0000
                                            0.0000 -0.0000  0.0000 -0.0000 -0.0000
                                            0.0000  0.0000  0.0000  0.0000  0.0000
                                            0.0000  0.0000  0.0000  0.0000  0.0000
                                            0.0000 -0.0000  0.0000  0.0000 -0.0000
                                           -0.0000  0.0000  0.0000 -0.0000 -0.0000
                                            0.0000 -0.0000  0.0000  0.0000  0.0000
                                            0.0000 -0.0000 -0.0000  0.0000  0.0000
     7. (1.99994) CR ( 4) I   3           s(  0.00%)p 1.00(100.00%)
                                            0.0000  0.0000  0.0000  0.0000  0.0000
                                            0.0000  0.0000  0.0000  0.0000  0.0000
                                            0.0000  0.0000  0.0000  0.0000  0.0000
                                            0.0000  1.0000 -0.0006 -0.0000 -0.0000
                                            0.0000  0.0000  0.0000  0.0000  0.0000
                                            0.0000 -0.0000 -0.0000  0.0000  0.0000
                                           -0.0000  0.0000  0.0000  0.0000  0.0000
                                            0.0000  0.0000  0.0000  0.0000  0.0000
                                            0.0000  0.0000  0.0000  0.0000  0.0000
                                            0.0000  0.0000  0.0000  0.0000 -0.0000
                                           -0.0000  0.0000  0.0000  0.0000  0.0000
     8. (1.99668) CR ( 5) I   3           s(  0.00%)p 0.00(  0.00%)d 1.00(100.00%)
                                            0.0000  0.0000  0.0000  0.0000 -0.0000
                                           -0.0000  0.0000  0.0000  0.0000  0.0000
                                           -0.0000 -0.0000 -0.0000  0.0000  0.0000
                                           -0.0000  0.0000  0.0000  0.0000  0.0000
                                            0.0000  1.0000  0.0000 -0.0000 -0.0000
                                            0.0000  0.0000  0.0000  0.0000  0.0000
                                            0.0000  0.0000  0.0000  0.0000  0.0000
                                            0.0000 -0.0000  0.0000  0.0000 -0.0000
                                           -0.0000  0.0000  0.0000 -0.0000 -0.0000
                                            0.0000  0.0000  0.0000  0.0000  0.0000
                                            0.0000 -0.0000 -0.0000  0.0000  0.0000
     9. (1.99679) CR ( 6) I   3           s(  0.00%)p 0.00(  0.00%)d 1.00(100.00%)
                                            0.0000  0.0000  0.0000  0.0000  0.0000
                                            0.0000  0.0000  0.0000  0.0000  0.0000
                                            0.0000  0.0000  0.0000  0.0000  0.0000
                                            0.0000  0.0000  0.0000  0.0000  0.0000
                                           -0.0000  0.0000  0.0000  0.0000  0.0000
                                            1.0000  0.0000  0.0000 -0.0000 -0.0000
                                            0.0000 -0.0000 -0.0000  0.0000  0.0000
                                            0.0000  0.0000  0.0000  0.0000  0.0000
                                            0.0000 -0.0000 -0.0000  0.0000  0.0000
                                            0.0000  0.0000 -0.0000 -0.0000  0.0000
                                            0.0000  0.0000  0.0000  0.0000  0.0000
    10. (1.99674) CR ( 7) I   3           s(  0.00%)p 0.00(  0.00%)d 1.00(100.00%)
                                            0.0000  0.0000  0.0000  0.0000  0.0000
                                            0.0000  0.0000  0.0000  0.0000  0.0000
                                            0.0000  0.0000  0.0000  0.0000  0.0000
                                            0.0000  0.0000  0.0000  0.0000  0.0000
                                           -0.0000  0.0000  0.0000  0.0000  0.0000
                                           -0.0000  0.0000  0.0000 -0.0000  1.0000
                                            0.0000 -0.0000 -0.0000  0.0000  0.0000
                                            0.0000  0.0000  0.0000  0.0000  0.0000
                                            0.0000 -0.0000 -0.0000  0.0000  0.0000
                                            0.0000  0.0000 -0.0000 -0.0000  0.0000
                                            0.0000  0.0000  0.0000  0.0000  0.0000
    11. (1.99648) CR ( 8) I   3           s(  0.00%)p 0.00(  0.00%)d 1.00(100.00%)
                                            0.0000  0.0001  0.0000  0.0000 -0.0000
                                           -0.0000 -0.0000 -0.0000 -0.0000 -0.0000
                                            0.0000 -0.0000 -0.0000  0.0000 -0.0000
                                           -0.0000 -0.0000 -0.0000 -0.0000 -0.0000
                                           -0.0000 -0.0000 -0.0000  0.0000  0.0000
                                           -0.0000 -0.0000 -0.0000 -0.0000 -0.0000
                                           -0.0000 -0.0000 -0.0000 -1.0000  0.0000
                                           -0.0000 -0.0000  0.0000  0.0000 -0.0000
                                            0.0000 -0.0000 -0.0000  0.0000  0.0000
                                            0.0000 -0.0000 -0.0000 -0.0000 -0.0000
                                           -0.0000  0.0000  0.0000  0.0000 -0.0000
    12. (1.99667) CR ( 9) I   3           s(  0.00%)p 0.00(  0.00%)d 1.00(100.00%)
                                           -0.0000 -0.0001 -0.0000 -0.0000  0.0000
                                            0.0000  0.0000  0.0000 -0.0000 -0.0000
                                            0.0000  0.0000  0.0000 -0.0000  0.0000
                                            0.0000  0.0000  0.0000  0.0000  0.0000
                                            0.0000  0.0000  0.0000 -0.0000  0.0000
                                            0.0000  0.0000  0.0000  0.0000  0.0000
                                            0.0000  0.0000  0.0000 -0.0000 -0.0000
                                            0.0000  0.0000  1.0000 -0.0000  0.0000
                                            0.0000  0.0000  0.0000 -0.0000  0.0000
                                           -0.0000  0.0000  0.0000  0.0000  0.0000
                                            0.0000 -0.0000  0.0000 -0.0000 -0.0000
    13. (1.96815) LP ( 1) O   1           s( 64.11%)p 0.56( 35.82%)d 0.00(  0.07%)
                                                  f 0.00(  0.00%)
                                            0.0003  0.8007  0.0008  0.0010 -0.0002
                                           -0.4299 -0.0002 -0.0026  0.0017  0.4163
                                            0.0041  0.0026  0.0019  0.0000  0.0000
                                            0.0000  0.0000  0.0225 -0.0034 -0.0005
                                            0.0000  0.0000  0.0000  0.0000  0.0000
                                            0.0000 -0.0054  0.0011 -0.0006  0.0101
                                           -0.0020  0.0017  0.0000  0.0000  0.0027
                                           -0.0009 -0.0013  0.0002  0.0000  0.0000
                                            0.0000  0.0000  0.0003 -0.0014  0.0020
                                           -0.0003
    14. (1.95536) LP ( 2) O   1           s(  0.00%)p 1.00( 99.82%)d 0.00(  0.17%)
                                                  f 0.00(  0.01%)
                                            0.0000  0.0000  0.0000  0.0000  0.0000
                                            0.0000  0.0000  0.0000  0.0000  0.0000
                                            0.0000  0.0000  0.0000  0.9988  0.0227
                                            0.0048  0.0063  0.0000  0.0000  0.0000
                                            0.0374 -0.0035 -0.0016 -0.0165  0.0024
                                            0.0011  0.0000  0.0000  0.0000  0.0000
                                            0.0000  0.0000 -0.0083  0.0028  0.0000
                                            0.0000  0.0000  0.0000  0.0020  0.0008
                                            0.0014 -0.0006  0.0000  0.0000  0.0000
                                            0.0000
    15. (1.97681) LP ( 1) I   3           s( 90.91%)p 0.10(  9.09%)d 0.00(  0.00%)
                                                  f 0.00(  0.00%)
                                            0.0005  0.9534  0.0003  0.0013 -0.0006
                                           -0.0002 -0.0001 -0.0616  0.0008  0.0000
                                           -0.0001 -0.0003 -0.2952  0.0031 -0.0000
                                           -0.0002  0.0000  0.0000  0.0000  0.0000
                                            0.0000 -0.0000 -0.0012  0.0002  0.0001
                                            0.0000  0.0000  0.0000  0.0000  0.0000
                                            0.0000  0.0000  0.0000  0.0001  0.0028
                                           -0.0001 -0.0002  0.0001  0.0017 -0.0001
                                           -0.0001  0.0000  0.0000  0.0001 -0.0000
                                            0.0006 -0.0000  0.0000  0.0000  0.0000
                                            0.0000  0.0004 -0.0001  0.0006 -0.0000
    16. (1.95214) LP ( 2) I   3           s(  0.00%)p 1.00( 99.99%)d 0.00(  0.00%)
                                                  f 0.00(  0.00%)
                                            0.0000  0.0000  0.0000  0.0000  0.0000
                                            0.0000  0.0000  0.0000  0.0000  0.0000
                                            0.0000  0.0000  0.0000  0.0000  0.0000
                                            0.0000  0.0006  1.0000  0.0041  0.0020
                                           -0.0002  0.0000  0.0000  0.0000  0.0000
                                           -0.0000  0.0020  0.0005 -0.0000 -0.0000
                                            0.0038 -0.0017 -0.0050  0.0000  0.0000
                                            0.0000  0.0000  0.0000  0.0000  0.0000
                                            0.0000 -0.0032 -0.0016  0.0000  0.0000
                                            0.0000  0.0000 -0.0034 -0.0014  0.0017
                                            0.0010  0.0000  0.0000  0.0000  0.0000
    17. (1.95193) LP ( 3) I   3           s(  0.00%)p 1.00( 99.99%)d 0.00(  0.01%)
                                                  f 0.00(  0.00%)
                                           -0.0000 -0.0006 -0.0001  0.0015 -0.0012
                                           -0.0000  0.0006  0.9785  0.0051  0.0025
                                           -0.0008 -0.0001 -0.2061 -0.0005  0.0001
                                           -0.0004  0.0000  0.0000  0.0000  0.0000
                                            0.0000 -0.0000  0.0042 -0.0015 -0.0045
                                            0.0000  0.0000  0.0000  0.0000  0.0000
                                            0.0000  0.0000  0.0000 -0.0000  0.0037
                                            0.0003 -0.0010  0.0000 -0.0005 -0.0005
                                           -0.0007  0.0000  0.0000 -0.0014 -0.0008
                                            0.0003  0.0000  0.0000  0.0000  0.0000
                                            0.0000 -0.0036 -0.0013  0.0030  0.0015
    18. (1.68378) LP ( 4) I   3           s(  9.09%)p 9.98( 90.77%)d 0.01(  0.12%)
                                                  f 0.00(  0.02%)
                                            0.0000  0.3015 -0.0012 -0.0049  0.0023
                                            0.0007 -0.0000  0.1966 -0.0020 -0.0013
                                            0.0004  0.0000  0.9322 -0.0098 -0.0054
                                            0.0010  0.0000  0.0000  0.0000  0.0000
                                            0.0000  0.0000  0.0119  0.0008 -0.0011
                                            0.0000  0.0000  0.0000  0.0000  0.0000
                                            0.0000  0.0000  0.0000 -0.0000 -0.0263
                                           -0.0023  0.0028 -0.0000 -0.0173 -0.0018
                                            0.0012  0.0000  0.0000 -0.0019 -0.0006
                                           -0.0091 -0.0029  0.0000  0.0000  0.0000
                                            0.0000 -0.0066 -0.0015 -0.0094 -0.0024
    19. (0.02441) RY*( 1) O   1           s(  0.00%)p 1.00( 98.87%)d 0.01(  1.10%)
                                                  f 0.00(  0.03%)
                                            0.0000  0.0000  0.0000  0.0000  0.0000
                                            0.0000  0.0000  0.0000  0.0000  0.0000
                                            0.0000  0.0000  0.0000 -0.0266  0.9934
                                           -0.0251 -0.0235  0.0000  0.0000  0.0000
                                            0.0823 -0.0179  0.0069 -0.0585  0.0187
                                           -0.0105  0.0000  0.0000  0.0000  0.0000
                                            0.0000  0.0000 -0.0111  0.0120  0.0000
                                            0.0000  0.0000  0.0000 -0.0027  0.0016
                                            0.0002 -0.0017  0.0000  0.0000  0.0000
                                            0.0000
    20. (0.01850) RY*( 2) O   1           s( 18.06%)p 4.41( 79.63%)d 0.12(  2.25%)
                                                  f 0.00(  0.06%)
                                           -0.0000 -0.0054  0.4247  0.0058 -0.0122
                                           -0.0077 -0.4815  0.0053  0.0184 -0.0148
                                            0.7507 -0.0097 -0.0130  0.0000  0.0000
                                            0.0000  0.0000  0.1447 -0.0278  0.0116
                                            0.0000  0.0000  0.0000  0.0000  0.0000
                                            0.0000 -0.0110  0.0040  0.0009  0.0196
                                           -0.0118  0.0055  0.0000  0.0000  0.0022
                                           -0.0025  0.0007  0.0034  0.0000  0.0000
                                            0.0000  0.0000  0.0177 -0.0104  0.0109
                                           -0.0041
    21. (0.01006) RY*( 3) O   1           s( 10.41%)p 8.22( 85.58%)d 0.36(  3.76%)
                                                  f 0.02(  0.24%)
                                            0.0000 -0.0109  0.3205 -0.0180  0.0310
                                           -0.0360 -0.6949  0.0176  0.0307 -0.0034
                                           -0.6062 -0.0143 -0.0517 -0.0000 -0.0000
                                           -0.0000 -0.0000 -0.1193 -0.0160  0.0068
                                           -0.0000 -0.0000 -0.0000 -0.0000 -0.0000
                                           -0.0000  0.1364  0.0568 -0.0224  0.0203
                                            0.0182 -0.0073 -0.0000 -0.0000 -0.0065
                                            0.0026  0.0172 -0.0177 -0.0000 -0.0000
                                           -0.0000 -0.0000  0.0310 -0.0256  0.0064
                                           -0.0107
    22. (0.00664) RY*( 4) O   1           s( 24.96%)p 0.29(  7.17%)d 2.69( 67.13%)
                                                  f 0.03(  0.74%)
                                           -0.0000  0.0151  0.4994  0.0040 -0.0023
                                            0.0346  0.2603 -0.0060 -0.0035  0.0337
                                            0.0074 -0.0177 -0.0347 -0.0000 -0.0000
                                           -0.0000 -0.0000 -0.6797 -0.0173  0.0006
                                           -0.0000 -0.0000 -0.0000 -0.0000 -0.0000
                                           -0.0000 -0.4288 -0.0001 -0.0040  0.1554
                                            0.0290 -0.0128 -0.0000 -0.0000  0.0106
                                            0.0007  0.0387 -0.0271 -0.0000 -0.0000
                                           -0.0000 -0.0000 -0.0626  0.0290 -0.0143
                                           -0.0089
    23. (0.00639) RY*( 5) O   1           s(  0.00%)p 1.00(  0.02%)d99.99( 98.90%)
                                                  f48.31(  1.08%)
                                            0.0000  0.0000  0.0000  0.0000  0.0000
                                            0.0000  0.0000  0.0000  0.0000  0.0000
                                            0.0000  0.0000  0.0000 -0.0075  0.0015
                                           -0.0127 -0.0019  0.0000  0.0000  0.0000
                                            0.5619  0.0375 -0.0111  0.8182  0.0478
                                           -0.0028  0.0000  0.0000  0.0000  0.0000
                                            0.0000  0.0000  0.0063 -0.0116  0.0000
                                            0.0000  0.0000  0.0000  0.0877 -0.0538
                                            0.0069  0.0029  0.0000  0.0000  0.0000
                                            0.0000
    24. (0.00603) RY*( 6) O   1           s(  0.00%)p 1.00(  1.16%)d84.44( 97.86%)
                                                  f 0.84(  0.98%)
                                            0.0000  0.0000  0.0000  0.0000  0.0000
                                            0.0000  0.0000  0.0000  0.0000  0.0000
                                            0.0000  0.0000  0.0000 -0.0378 -0.0989
                                            0.0173  0.0095  0.0000  0.0000  0.0000
                                            0.8094  0.0771 -0.0302 -0.5603 -0.0508
                                            0.0112  0.0000  0.0000  0.0000  0.0000
                                            0.0000  0.0000 -0.0714  0.0390  0.0000
                                            0.0000  0.0000  0.0000  0.0375 -0.0145
                                           -0.0361  0.0160  0.0000  0.0000  0.0000
                                            0.0000
    25. (0.00589) RY*( 7) O   1           s(  5.03%)p 0.89(  4.46%)d17.86( 89.86%)
                                                  f 0.13(  0.65%)
                                           -0.0000  0.0137  0.2235 -0.0129  0.0008
                                            0.0327  0.1814 -0.0198 -0.0003 -0.0300
                                           -0.0954  0.0080 -0.0145  0.0000  0.0000
                                            0.0000  0.0000  0.3439  0.0186 -0.0016
                                            0.0000  0.0000  0.0000  0.0000  0.0000
                                            0.0000  0.1398  0.0195 -0.0041  0.8665
                                            0.0928 -0.0256  0.0000  0.0000  0.0546
                                           -0.0281 -0.0436  0.0247  0.0000  0.0000
                                            0.0000  0.0000  0.0082 -0.0035  0.0107
                                           -0.0007
    26. (0.00552) RY*( 8) O   1           s( 10.64%)p 0.68(  7.21%)d 7.51( 79.89%)
                                                  f 0.21(  2.27%)
                                           -0.0000  0.0004  0.3260  0.0090 -0.0063
                                            0.0459  0.1238 -0.0203  0.0006  0.0141
                                           -0.2254 -0.0113 -0.0559 -0.0000 -0.0000
                                           -0.0000 -0.0000  0.6030  0.0196  0.0042
                                           -0.0000 -0.0000 -0.0000 -0.0000 -0.0000
                                           -0.0000 -0.5969  0.0017 -0.0037 -0.2799
                                           -0.0148  0.0032 -0.0000 -0.0000  0.0312
                                           -0.0217  0.0460 -0.0389 -0.0000 -0.0000
                                           -0.0000 -0.0000  0.0162 -0.0236  0.1114
                                           -0.0661
    27. (0.00248) RY*( 9) O   1           s( 28.64%)p 0.58( 16.62%)d 1.87( 53.63%)
                                                  f 0.04(  1.11%)
                                            0.0000 -0.0051  0.5332 -0.0445 -0.0111
                                           -0.0255  0.4017  0.0149 -0.0016 -0.0043
                                           -0.0428  0.0152 -0.0431  0.0000  0.0000
                                            0.0000  0.0000  0.0646  0.0100 -0.0093
                                            0.0000  0.0000  0.0000  0.0000  0.0000
                                            0.0000  0.6188  0.1404  0.0465 -0.3409
                                           -0.1032 -0.0166  0.0000  0.0000 -0.0347
                                            0.0488  0.0102 -0.0068  0.0000  0.0000
                                            0.0000  0.0000  0.0569 -0.0633 -0.0109
                                            0.0006
    28. (0.00062) RY*(10) O   1           s( 18.09%)p 4.06( 73.53%)d 0.38(  6.83%)
                                                  f 0.09(  1.54%)
                                            0.0000 -0.0048  0.0191  0.4038 -0.1321
                                           -0.0030 -0.0255 -0.1638 -0.0556  0.0021
                                           -0.0055  0.8393  0.0140  0.0000  0.0000
                                            0.0000  0.0000 -0.0158  0.2453 -0.0599
                                            0.0000  0.0000  0.0000  0.0000  0.0000
                                            0.0000  0.0061  0.0244  0.0161 -0.0025
                                            0.0341  0.0478  0.0000  0.0000  0.0184
                                            0.0037  0.1204 -0.0130  0.0000  0.0000
                                            0.0000  0.0000 -0.0119  0.0007  0.0104
                                            0.0127
    29. (0.00057) RY*(11) O   1           s(  0.00%)p 1.00( 31.97%)d 1.96( 62.59%)
                                                  f 0.17(  5.44%)
                                            0.0000  0.0000  0.0000  0.0000  0.0000
                                            0.0000  0.0000  0.0000  0.0000  0.0000
                                            0.0000  0.0000  0.0000  0.0025  0.0400
                                            0.5583 -0.0798  0.0000  0.0000  0.0000
                                           -0.0419  0.3232 -0.0196  0.0454 -0.7187
                                            0.0260  0.0000  0.0000  0.0000  0.0000
                                            0.0000  0.0000  0.1072 -0.0176  0.0000
                                            0.0000  0.0000  0.0000  0.1492 -0.0077
                                            0.1422  0.0013  0.0000  0.0000  0.0000
                                            0.0000
    30. (0.00056) RY*(12) O   1           s(  6.00%)p 0.14(  0.84%)d14.22( 85.34%)
                                                  f 1.30(  7.83%)
                                           -0.0000  0.0010  0.0020  0.2401 -0.0482
                                            0.0020 -0.0060 -0.0204 -0.0262 -0.0072
                                           -0.0313 -0.0491 -0.0615 -0.0000 -0.0000
                                           -0.0000 -0.0000 -0.0258 -0.1763 -0.0384
                                           -0.0000 -0.0000 -0.0000 -0.0000 -0.0000
                                           -0.0000  0.0062 -0.3461  0.0320  0.1008
                                           -0.8240  0.1006 -0.0000 -0.0000  0.1400
                                            0.0007  0.0329  0.0016 -0.0000 -0.0000
                                           -0.0000 -0.0000  0.1933 -0.0134  0.1413
                                           -0.0087
    31. (0.00054) RY*(13) O   1           s(  0.00%)p 1.00( 64.47%)d 0.51( 32.78%)
                                                  f 0.04(  2.75%)
                                            0.0000  0.0000  0.0000  0.0000  0.0000
                                            0.0000  0.0000  0.0000  0.0000  0.0000
                                            0.0000  0.0000  0.0000 -0.0046  0.0023
                                            0.7814 -0.1848  0.0000  0.0000  0.0000
                                            0.0038 -0.0264  0.0009 -0.0169  0.5715
                                            0.0098  0.0000  0.0000  0.0000  0.0000
[...]
                                            0.0000  0.0000  0.0000 -0.0501  0.0017
                                            0.0000  0.0000  0.0000  0.0000  0.0237
                                            0.0092  0.0050  0.0070
   125. (0.00456) RY*( 2) H   4           s(  0.00%)p 1.00( 98.17%)d 0.02(  1.83%)
                                            0.0000  0.0000  0.0000  0.0000  0.0000
                                            0.0000  0.0000  0.0000  0.0000  0.0000
                                            0.9881  0.0681 -0.0270  0.0000  0.0000
                                           -0.0189  0.0144 -0.1167  0.0640  0.0000
                                            0.0000  0.0000  0.0000
   126. (0.00402) RY*( 3) H   4           s(  2.45%)p39.13( 95.99%)d 0.64(  1.56%)
                                           -0.0192 -0.0471 -0.0926  0.1156  0.6083
                                            0.0015 -0.0372 -0.7635  0.0667 -0.0336
                                           -0.0000 -0.0000 -0.0000 -0.0983  0.0201
                                           -0.0000 -0.0000 -0.0000 -0.0000 -0.0581
                                            0.0112 -0.0434  0.0110
   127. (0.00348) RY*( 4) H   4           s( 26.87%)p 2.68( 71.90%)d 0.05(  1.23%)
                                           -0.0038  0.5073 -0.0305  0.1019 -0.6510
                                           -0.0020  0.0029 -0.5360  0.0865 -0.0220
                                           -0.0000 -0.0000 -0.0000  0.1069 -0.0174
                                           -0.0000 -0.0000 -0.0000 -0.0000 -0.0059
                                           -0.0120 -0.0111 -0.0153
   128. (0.00213) RY*( 5) H   4           s( 27.34%)p 2.56( 70.01%)d 0.10(  2.65%)
                                            0.0240  0.1806  0.4837  0.0789  0.0813
                                           -0.1890 -0.0032 -0.0578 -0.8078 -0.0429
                                           -0.0000 -0.0000 -0.0000  0.0330  0.0561
                                           -0.0000 -0.0000 -0.0000 -0.0000 -0.0746
                                           -0.0934 -0.0718 -0.0526
   129. (0.00039) RY*( 6) H   4           s(  0.88%)p91.15( 80.60%)d20.94( 18.51%)
                                            0.0004 -0.0413  0.0622 -0.0572  0.0637
                                           -0.8445  0.1649 -0.0171  0.2142 -0.1240
                                           -0.0000 -0.0000 -0.0000  0.3635 -0.0729
                                           -0.0000 -0.0000 -0.0000 -0.0000  0.1951
                                            0.0197  0.0960  0.0053
   130. (0.00038) RY*( 7) H   4           s(  0.00%)p 1.00(  6.16%)d15.23( 93.84%)
                                            0.0000  0.0000  0.0000  0.0000  0.0000
                                            0.0000  0.0000  0.0000  0.0000  0.0000
                                            0.1197 -0.0304  0.2153  0.0000  0.0000
                                            0.1464  0.0349  0.9555  0.0532  0.0000
                                            0.0000  0.0000  0.0000
   131. (0.00033) RY*( 8) H   4           s(  0.97%)p21.02( 20.35%)d81.26( 78.68%)
                                           -0.0006 -0.0065 -0.0645  0.0740  0.1271
                                            0.4016  0.1230 -0.0109 -0.1021 -0.0200
                                            0.0000  0.0000  0.0000  0.7661  0.0733
                                            0.0000  0.0000  0.0000  0.0000  0.4098
                                            0.0011 -0.1597  0.0313
   132. (0.00031) RY*( 9) H   4           s(  0.00%)p 1.00( 98.71%)d 0.01(  1.29%)
                                            0.0000  0.0000  0.0000  0.0000  0.0000
                                            0.0000  0.0000  0.0000  0.0000  0.0000
                                           -0.0688  0.9890 -0.0646  0.0000  0.0000
                                            0.0771  0.0140  0.0383  0.0729  0.0000
                                            0.0000  0.0000  0.0000
   133. (0.00024) RY*(10) H   4           s(  0.00%)p 1.00(  0.64%)d99.99( 99.36%)
                                            0.0000  0.0000  0.0000  0.0000  0.0000
                                            0.0000  0.0000  0.0000  0.0000  0.0000
                                            0.0093 -0.0687 -0.0398  0.0000  0.0000
                                            0.9576 -0.2425 -0.1328  0.0089  0.0000
                                            0.0000  0.0000  0.0000
   134. (0.00023) RY*(11) H   4           s(  0.15%)p99.99( 17.38%)d99.99( 82.47%)
                                           -0.0093 -0.0202  0.0046  0.0316  0.0531
                                            0.0471  0.1294 -0.0023  0.0353  0.3883
                                           -0.0000 -0.0000 -0.0000  0.4008  0.0278
                                           -0.0000 -0.0000 -0.0000 -0.0000 -0.6477
                                           -0.0448  0.4288 -0.2407
   135. (0.00022) RY*(12) H   4           s(  4.18%)p 6.10( 25.50%)d16.83( 70.32%)
                                           -0.0134 -0.0411  0.1680 -0.1081 -0.0206
                                           -0.1044  0.1155 -0.0029  0.1980  0.4372
                                           -0.0000 -0.0000 -0.0000  0.0357  0.1032
                                           -0.0000 -0.0000 -0.0000 -0.0000 -0.2006
                                           -0.2040 -0.7803  0.0234
   136. (0.00013) RY*(13) H   4           s( 85.15%)p 0.09(  7.44%)d 0.09(  7.41%)
                                            0.0005 -0.0364 -0.1058  0.9159 -0.0120
                                           -0.1097  0.0458  0.1376  0.0335  0.2002
                                            0.0000  0.0000  0.0000 -0.1134  0.0733
                                            0.0000  0.0000  0.0000  0.0000  0.1435
                                           -0.1705  0.0040 -0.0790
   137. (0.00010) RY*(14) H   4           s( 70.01%)p 0.34( 23.95%)d 0.09(  6.04%)
   138. (0.00007) RY*(15) H   4           s(  0.00%)p 1.00( 10.21%)d 8.79( 89.79%)
   139. (0.00005) RY*(16) H   4           s(  1.56%)p34.22( 53.23%)d29.07( 45.21%)
   140. (0.00006) RY*(17) H   4           s(  1.87%)p 5.87( 10.99%)d46.50( 87.13%)
   141. (0.00003) RY*(18) H   4           s(  0.01%)p 1.00( 87.51%)d 0.14( 12.49%)
   142. (0.00002) RY*(19) H   4           s(  0.00%)p 1.00(  0.78%)d99.99( 99.22%)
   143. (0.00003) RY*(20) H   4           s(  6.38%)p 0.87(  5.53%)d13.80( 88.09%)
   144. (0.00003) RY*(21) H   4           s(  0.00%)p 1.00( 85.33%)d 0.17( 14.67%)
   145. (0.00003) RY*(22) H   4           s(  1.61%)p 0.32(  0.51%)d60.76( 97.88%)
   146. (0.02328) BD*( 1) O   1 - H   2  
                ( 27.84%)   0.5277* O   1 s( 21.67%)p 3.59( 77.84%)d 0.02(  0.48%)
                                                  f 0.00(  0.01%)
                                           -0.0003 -0.4654  0.0099  0.0032  0.0013
                                           -0.8810  0.0421  0.0096  0.0069 -0.0171
                                            0.0041 -0.0020  0.0017 -0.0000 -0.0000
                                           -0.0000 -0.0000  0.0126 -0.0041  0.0024
                                           -0.0000 -0.0000 -0.0000 -0.0000 -0.0000
                                           -0.0000 -0.0588  0.0060 -0.0038  0.0334
                                           -0.0010 -0.0001 -0.0000 -0.0000  0.0096
                                           -0.0004  0.0005 -0.0001 -0.0000 -0.0000
                                           -0.0000 -0.0000 -0.0060 -0.0031 -0.0003
                                            0.0001
                ( 72.16%)  -0.8494* H   2 s( 99.82%)p 0.00(  0.18%)d 0.00(  0.00%)
                                           -0.9991 -0.0055 -0.0002  0.0003 -0.0239
                                            0.0342  0.0040  0.0068 -0.0000 -0.0006
                                           -0.0000 -0.0000 -0.0000 -0.0000 -0.0023
                                           -0.0000 -0.0000 -0.0000 -0.0000 -0.0028
                                           -0.0032  0.0028  0.0014
   147. (0.30627) BD*( 1) O   1 - H   4  
                ( 19.52%)   0.4419* O   1 s( 14.16%)p 6.04( 85.61%)d 0.02(  0.22%)
                                                  f 0.00(  0.01%)
                                            0.0002  0.3763  0.0052  0.0004  0.0008
                                           -0.1792  0.0133  0.0013  0.0017 -0.9076
                                           -0.0075  0.0016  0.0034 -0.0000 -0.0000
                                           -0.0000 -0.0000 -0.0196  0.0030 -0.0011
                                           -0.0000 -0.0000 -0.0000 -0.0000 -0.0000
                                           -0.0000 -0.0353  0.0055 -0.0004 -0.0222
                                            0.0037  0.0007 -0.0000 -0.0000  0.0011
                                            0.0002  0.0079 -0.0026 -0.0000 -0.0000
                                           -0.0000 -0.0000  0.0024 -0.0004  0.0001
                                           -0.0011
                ( 80.48%)  -0.8971* H   4 s( 99.83%)p 0.00(  0.16%)d 0.00(  0.01%)
                                            0.9987  0.0254 -0.0137 -0.0041  0.0222
                                            0.0045  0.0021 -0.0054  0.0298  0.0112
                                           -0.0000 -0.0000 -0.0000 -0.0001  0.0025
                                           -0.0000 -0.0000 -0.0000 -0.0000 -0.0054
                                           -0.0067 -0.0046 -0.0043


 NHO Directionality and "Bond Bending" (deviations from line of nuclear centers)

         [Thresholds for printing:  angular deviation  >  1.0 degree]
                                    hybrid p-character > 25.0%
                                    orbital occupancy  >  0.10e

                                Line of Centers        Hybrid 1              Hybrid 2
                                ---------------  -------------------   ------------------
                NBO               Theta   Phi    Theta   Phi    Dev    Theta   Phi    Dev
 ========================================================================================
     2. BD (   1) O   1 - H   4    90.0  258.1    90.0  259.9   1.7      --     --    --
    13. LP (   1) O   1             --     --     90.0  135.4   --       --     --    --
    14. LP (   2) O   1             --     --      0.0    0.0   --       --     --    --
    16. LP (   2) I   3             --     --      0.0    0.0   --       --     --    --
    17. LP (   3) I   3             --     --     90.0  348.1   --       --     --    --
    18. LP (   4) I   3             --     --     90.0   78.1   --       --     --    --
   147. BD*(   1) O   1 - H   4    90.0  258.1    90.0  259.9   1.7      --     --    --


 Natural Bond Orbitals (Summary):

           NBO                  Occupancy  
 -----------------------------------------------
 Molecular unit  1  (H2O)
     1. BD (   1) O   1 - H   2          1.96196
     2. BD (   1) O   1 - H   4          1.94789
     3. CR (   1) O   1                  1.99972
    13. LP (   1) O   1                  1.96815
    14. LP (   2) O   1                  1.95536
    19. RY*(   1) O   1                  0.02441
    20. RY*(   2) O   1                  0.01850
    21. RY*(   3) O   1                  0.01006
    22. RY*(   4) O   1                  0.00664
    23. RY*(   5) O   1                  0.00639
    24. RY*(   6) O   1                  0.00603
    25. RY*(   7) O   1                  0.00589
    26. RY*(   8) O   1                  0.00552
    27. RY*(   9) O   1                  0.00248
    28. RY*(  10) O   1                  0.00062
    29. RY*(  11) O   1                  0.00057
    30. RY*(  12) O   1                  0.00056
    31. RY*(  13) O   1                  0.00054
    32. RY*(  14) O   1                  0.00047
    33. RY*(  15) O   1                  0.00047
    34. RY*(  16) O   1                  0.00046
    35. RY*(  17) O   1                  0.00046
    36. RY*(  18) O   1                  0.00047
    37. RY*(  19) O   1                  0.00045
    38. RY*(  20) O   1                  0.00041
    39. RY*(  21) O   1                  0.00042
    40. RY*(  22) O   1                  0.00042
    41. RY*(  23) O   1                  0.00035
    42. RY*(  24) O   1                  0.00032
    43. RY*(  25) O   1                  0.00023
    44. RY*(  26) O   1                  0.00015
    45. RY*(  27) O   1                  0.00009
    46. RY*(  28) O   1                  0.00008
    47. RY*(  29) O   1                  0.00009
    48. RY*(  30) O   1                  0.00008
    49. RY*(  31) O   1                  0.00008
    50. RY*(  32) O   1                  0.00008
    51. RY*(  33) O   1                  0.00008
    52. RY*(  34) O   1                  0.00007
    53. RY*(  35) O   1                  0.00005
    54. RY*(  36) O   1                  0.00006
    55. RY*(  37) O   1                  0.00006
    56. RY*(  38) O   1                  0.00002
    57. RY*(  39) O   1                  0.00003
    58. RY*(  40) O   1                 -0.00001
    59. RY*(  41) O   1                 -0.00028
    60. RY*(   1) H   2                  0.00496
    61. RY*(   2) H   2                  0.00285
    62. RY*(   3) H   2                  0.00273
    63. RY*(   4) H   2                  0.00175
    64. RY*(   5) H   2                  0.00031
    65. RY*(   6) H   2                  0.00020
    66. RY*(   7) H   2                  0.00020
    67. RY*(   8) H   2                  0.00015
    68. RY*(   9) H   2                  0.00013
    69. RY*(  10) H   2                  0.00012
    70. RY*(  11) H   2                  0.00011
    71. RY*(  12) H   2                  0.00011
    72. RY*(  13) H   2                  0.00007
    73. RY*(  14) H   2                  0.00007
    74. RY*(  15) H   2                  0.00005
    75. RY*(  16) H   2                  0.00005
    76. RY*(  17) H   2                  0.00004
    77. RY*(  18) H   2                  0.00004
    78. RY*(  19) H   2                  0.00002
    79. RY*(  20) H   2                  0.00001
    80. RY*(  21) H   2                  0.00002
    81. RY*(  22) H   2                  0.00002
   124. RY*(   1) H   4                  0.00736
   125. RY*(   2) H   4                  0.00456
   126. RY*(   3) H   4                  0.00402
   127. RY*(   4) H   4                  0.00348
   128. RY*(   5) H   4                  0.00213
   129. RY*(   6) H   4                  0.00039
   130. RY*(   7) H   4                  0.00038
   131. RY*(   8) H   4                  0.00033
   132. RY*(   9) H   4                  0.00031
   133. RY*(  10) H   4                  0.00024
   134. RY*(  11) H   4                  0.00023
   135. RY*(  12) H   4                  0.00022
   136. RY*(  13) H   4                  0.00013
   137. RY*(  14) H   4                  0.00010
   138. RY*(  15) H   4                  0.00007
   139. RY*(  16) H   4                  0.00005
   140. RY*(  17) H   4                  0.00006
   141. RY*(  18) H   4                  0.00003
   142. RY*(  19) H   4                  0.00002
   143. RY*(  20) H   4                  0.00003
   144. RY*(  21) H   4                  0.00003
   145. RY*(  22) H   4                  0.00003
   146. BD*(   1) O   1 - H   2          0.02328
   147. BD*(   1) O   1 - H   4          0.30627
       -------------------------------
              Total Lewis    9.83308  ( 95.5163%)
        Valence non-Lewis    0.32955  (  3.2011%)
        Rydberg non-Lewis    0.13204  (  1.2826%)
       -------------------------------
            Total unit  1   10.29466  (100.0000%)
           Charge unit  1   -0.29466

 Molecular unit  2  (I)
     4. CR (   1) I   3                  1.99950
     5. CR (   2) I   3                  1.99993
     6. CR (   3) I   3                  1.99964
     7. CR (   4) I   3                  1.99994
     8. CR (   5) I   3                  1.99668
     9. CR (   6) I   3                  1.99679
    10. CR (   7) I   3                  1.99674
    11. CR (   8) I   3                  1.99648
    12. CR (   9) I   3                  1.99667
    15. LP (   1) I   3                  1.97681
    16. LP (   2) I   3                  1.95214
    17. LP (   3) I   3                  1.95193
    18. LP (   4) I   3                  1.68378
    82. RY*(   1) I   3                  0.01966
    83. RY*(   2) I   3                  0.01966
    84. RY*(   3) I   3                  0.01940
    85. RY*(   4) I   3                  0.01932
    86. RY*(   5) I   3                  0.01884
    87. RY*(   6) I   3                  0.01012
    88. RY*(   7) I   3                  0.01008
    89. RY*(   8) I   3                  0.00799
    90. RY*(   9) I   3                  0.00274
    91. RY*(  10) I   3                  0.00274
    92. RY*(  11) I   3                  0.00272
    93. RY*(  12) I   3                  0.00272
    94. RY*(  13) I   3                  0.00270
    95. RY*(  14) I   3                  0.00263
    96. RY*(  15) I   3                  0.00263
    97. RY*(  16) I   3                  0.00210
    98. RY*(  17) I   3                  0.00159
    99. RY*(  18) I   3                  0.00159
   100. RY*(  19) I   3                  0.00120
   101. RY*(  20) I   3                  0.00117
   102. RY*(  21) I   3                  0.00098
   103. RY*(  22) I   3                  0.00068
   104. RY*(  23) I   3                  0.00069
   105. RY*(  24) I   3                  0.00056
   106. RY*(  25) I   3                  0.00040
   107. RY*(  26) I   3                  0.00041
   108. RY*(  27) I   3                  0.00041
   109. RY*(  28) I   3                  0.00040
   110. RY*(  29) I   3                  0.00040
   111. RY*(  30) I   3                  0.00034
   112. RY*(  31) I   3                  0.00035
   113. RY*(  32) I   3                  0.00027
   114. RY*(  33) I   3                  0.00013
   115. RY*(  34) I   3                  0.00013
   116. RY*(  35) I   3                  0.00011
   117. RY*(  36) I   3                  0.00012
   118. RY*(  37) I   3                  0.00009
   119. RY*(  38) I   3                  0.00006
   120. RY*(  39) I   3                  0.00007
   121. RY*(  40) I   3                  0.00005
   122. RY*(  41) I   3                  0.00005
   123. RY*(  42) I   3                  0.00001
       -------------------------------
              Total Lewis   53.54703  ( 99.7052%)
        Valence non-Lewis    0.00000  (  0.0000%)
        Rydberg non-Lewis    0.15831  (  0.2948%)
       -------------------------------
            Total unit  2   53.70534  (100.0000%)
           Charge unit  2   -0.70534
 Leave Link  607 at Tue Oct 26 13:22:42 2021, MaxMem= 16106127360 cpu:              74.7 elap:               2.7
 (Enter /sw/contrib/gaussian/g16/B01/g16/l9999.exe)
 1\1\GINC-N2097\SP\RMP2-FC\Gen\H2I1O1(1-)\CGAVINH\26-Oct-2021\0\\#p pop
 =NBO SP NoSymm mp2/gen Pseudo=read density=current\\title\\-1,1\O\X,1,
 10.\H,1,0.96090774,2,90.\I,1,3.50850138,2,90.,3,101.85832019,0\H,1,1.4
 ,2,90.,3,101.85832019,0\\Version=ES64L-G16RevB.01\HF=-370.7444233\MP2=
 -371.2643507\RMSD=7.641e-09\Dipole=0.3756501,-0.5950135,0.\Quadrupole=
 9.9979068,-19.2599846,9.2620778,-5.7094047,0.,0.\PG=CS [SG(H2I1O1)]\\@


  THE LARGE PRINT GIVETH,
  AND THE SMALL PRINT TAKETH AWAY.

                     -- TOM WAITS
 Job cpu time:       0 days  0 hours  4 minutes 13.0 seconds.
 Elapsed time:       0 days  0 hours  0 minutes 11.6 seconds.
 File lengths (MBytes):  RWF=     11 Int=      0 D2E=      0 Chk=      8 Scr=      1
 Normal termination of Gaussian 16 at Tue Oct 26 13:22:42 2021.
