title                                                                   
SP        RMP2-FC                                                     Gen                 
Number of atoms                            I                4
Info1-9                                    I   N=           9
         144         135           0           0           0         110
           1           2           1
Charge                                     I               -1
Multiplicity                               I                1
Number of electrons                        I               36
Number of alpha electrons                  I               18
Number of beta electrons                   I               18
Number of basis functions                  I              191
Number of independent functions            I              147
Number of point charges in /Mol/           I                0
Number of translation vectors              I                0
Atomic numbers                             I   N=           4
           8           1          53           1
Nuclear charges                            R   N=           4
  8.00000000E+00  1.00000000E+00  2.50000000E+01  1.00000000E+00
Current cartesian coordinates              R   N=          12
  0.00000000E+00  0.00000000E+00  0.00000000E+00  1.81585239E+00  0.00000000E+00
  0.00000000E+00 -1.36243524E+00 -6.48861632E+00  0.00000000E+00 -5.04820858E-01
 -2.40421619E+00  0.00000000E+00
Force Field                                I                0
Int Atom Types                             I   N=           4
           0           0           0           0
MM charges                                 R   N=           4
  0.00000000E+00  0.00000000E+00  0.00000000E+00  0.00000000E+00
Integer atomic weights                     I   N=           4
          16           2         127           1
Real atomic weights                        R   N=           4
  1.59949146E+01  2.01410179E+00  1.26900400E+02  1.00782504E+00
Atom fragment info                         I   N=           4
           0           0           0           0
Atom residue num                           I   N=           4
           0           0           0           0
Nuclear spins                              I   N=           4
           0           2           5           1
Nuclear ZEff                               R   N=           4
 -5.60000000E+00 -1.00000000E+00 -5.83000000E+03 -1.00000000E+00
Nuclear ZNuc                               R   N=           4
  8.00000000E+00  1.00000000E+00  5.30000000E+01  1.00000000E+00
Nuclear QMom                               R   N=           4
  0.00000000E+00  2.86000000E-01 -7.10000000E+01  0.00000000E+00
Nuclear GFac                               R   N=           4
  0.00000000E+00  8.57438000E-01  2.81328000E+00  2.79284600E+00
MicOpt                                     I   N=           4
          -1          -1          -1          -1
Number of contracted shells                I               65
Number of primitive shells                 I              119
Pure/Cartesian d shells                    I                0
Pure/Cartesian f shells                    I                0
Highest angular momentum                   I                3
Largest degree of contraction              I                9
Shell types                                I   N=          65
           0           0           0           0           0           1
           1           1           1          -2          -2          -2
          -3          -3           0           0           0           0
           0           0           0           1           1           1
           1           1           1          -2          -2          -2
          -2           0           0           0           0           0
           0           1           1           1           1           1
          -2          -2          -2          -2          -3          -3
           0           0           0           0           0           0
           0           1           1           1           1           1
           1          -2          -2          -2          -2
Number of primitives per shell             I   N=          65
           7           6           1           1           1           3
           1           1           1           1           1           1
           1           1           3           1           1           1
           1           1           1           1           1           1
           1           1           1           1           1           1
           1           9           8           1           1           1
           1           8           8           1           1           1
           9           1           1           1           1           1
           3           1           1           1           1           1
           1           1           1           1           1           1
           1           1           1           1           1
Shell to atom map                          I   N=          65
           1           1           1           1           1           1
           1           1           1           1           1           1
           1           1           2           2           2           2
           2           2           2           2           2           2
           2           2           2           2           2           2
           2           3           3           3           3           3
           3           3           3           3           3           3
           3           3           3           3           3           3
           4           4           4           4           4           4
           4           4           4           4           4           4
           4           4           4           4           4
Primitive exponents                        R   N=         119
  1.53300000E+04  2.29900000E+03  5.22400000E+02  1.47300000E+02  4.75500000E+01
  1.67600000E+01  6.20700000E+00  5.22400000E+02  1.47300000E+02  4.75500000E+01
  1.67600000E+01  6.20700000E+00  6.88200000E-01  1.75200000E+00  2.38400000E-01
  7.37600000E-02  3.44600000E+01  7.74900000E+00  2.28000000E+00  7.15600000E-01
  2.14000000E-01  5.97400000E-02  2.31400000E+00  6.45000000E-01  2.14000000E-01
  1.42800000E+00  5.00000000E-01  3.38700000E+01  5.09500000E+00  1.15900000E+00
  3.25800000E-01  1.02700000E-01  2.52600000E-02  3.25800000E-01  1.02700000E-01
  2.52600000E-02  1.40700000E+00  3.88000000E-01  1.02000000E-01  1.40700000E+00
  3.88000000E-01  1.02000000E-01  1.05700000E+00  2.47000000E-01  1.05700000E+00
  2.47000000E-01  5.54650000E+03  8.38214000E+02  1.82187000E+02  3.12123000E+01
  1.95314000E+01  8.24099000E+00  2.19455000E+00  1.10911000E+00  8.10610000E-02
  5.54650000E+03  8.38214000E+02  3.12123000E+01  1.95314000E+01  8.24099000E+00
  2.19455000E+00  1.10911000E+00  8.10610000E-02  3.74641000E-01  1.77080000E-01
  1.00100000E-01  4.12000000E-02  1.88988000E+02  2.12868000E+01  1.00396000E+01
  3.45180000E+00  1.97456000E+00  1.02420000E+00  4.49437000E-01  7.34810000E-02
  1.88988000E+02  1.00396000E+01  3.45180000E+00  1.97456000E+00  1.02420000E+00
  4.49437000E-01  1.86648000E-01  7.34810000E-02  5.98100000E-01  9.61800000E-02
  3.59000000E-02  1.32662000E+02  3.76054000E+01  1.03891000E+01  6.49017000E+00
  3.45451000E+00  1.84413000E+00  9.62478000E-01  4.72853000E-01  1.93200000E-01
  4.72853000E-01  1.93200000E-01  7.82000000E-02  4.06400000E-01  1.84800000E-01
  3.38700000E+01  5.09500000E+00  1.15900000E+00  3.25800000E-01  1.02700000E-01
  2.52600000E-02  3.25800000E-01  1.02700000E-01  2.52600000E-02  1.40700000E+00
  3.88000000E-01  1.02000000E-01  1.40700000E+00  3.88000000E-01  1.02000000E-01
  1.05700000E+00  2.47000000E-01  1.05700000E+00  2.47000000E-01
Contraction coefficients                   R   N=         119
  5.19808943E-04  4.02025621E-03  2.07128267E-02  8.10105536E-02  2.35962985E-01
  4.42653446E-01  3.57064423E-01 -4.42115008E-05 -1.22591041E-03 -1.05517725E-02
 -6.74452633E-02 -1.71198607E-01  1.07329856E+00  1.00000000E+00  1.00000000E+00
  1.00000000E+00  4.11634896E-02  2.57762836E-01  8.02419274E-01  1.00000000E+00
  1.00000000E+00  1.00000000E+00  1.00000000E+00  1.00000000E+00  1.00000000E+00
  1.00000000E+00  1.00000000E+00  2.54948632E-02  1.90362766E-01  8.52162022E-01
  1.00000000E+00  1.00000000E+00  1.00000000E+00  1.00000000E+00  1.00000000E+00
  1.00000000E+00  1.00000000E+00  1.00000000E+00  1.00000000E+00  1.00000000E+00
  1.00000000E+00  1.00000000E+00  1.00000000E+00  1.00000000E+00  1.00000000E+00
  1.00000000E+00  1.58603022E-04  1.00211458E-03  2.83966410E-03 -4.40310212E-02
  2.38198152E-01 -7.63568980E-01  8.96516870E-01  4.68371203E-01  2.16251781E-03
 -2.17177846E-05 -2.59237305E-04 -1.50376554E-02  2.42214079E-02  6.99888661E-02
 -5.50491335E-01 -5.69654432E-01  3.76065139E-01  1.00000000E+00  1.00000000E+00
  1.00000000E+00  1.00000000E+00  5.85232173E-04  3.69335916E-02 -2.35399435E-01
  3.41625365E-01  5.34991615E-01  2.65244797E-01  2.54463150E-02  3.82802808E-04
 -6.76097015E-05  8.33123161E-03 -4.66496478E-02 -5.27406452E-02 -2.91398344E-02
  3.65650039E-01  5.48502805E-01  2.34644635E-01  1.00000000E+00  1.00000000E+00
  1.00000000E+00  5.72000072E-04  4.40200055E-03 -4.09220051E-02  9.96610125E-02
  3.22663040E-01  4.00343050E-01  2.68306034E-01  8.48470106E-02  7.63200096E-03
  1.00000000E+00  1.00000000E+00  1.00000000E+00  1.00000000E+00  1.00000000E+00
  2.54948632E-02  1.90362766E-01  8.52162022E-01  1.00000000E+00  1.00000000E+00
  1.00000000E+00  1.00000000E+00  1.00000000E+00  1.00000000E+00  1.00000000E+00
  1.00000000E+00  1.00000000E+00  1.00000000E+00  1.00000000E+00  1.00000000E+00
  1.00000000E+00  1.00000000E+00  1.00000000E+00  1.00000000E+00
Coordinates of each shell                  R   N=         195
  0.00000000E+00  0.00000000E+00  0.00000000E+00  0.00000000E+00  0.00000000E+00
  0.00000000E+00  0.00000000E+00  0.00000000E+00  0.00000000E+00  0.00000000E+00
  0.00000000E+00  0.00000000E+00  0.00000000E+00  0.00000000E+00  0.00000000E+00
  0.00000000E+00  0.00000000E+00  0.00000000E+00  0.00000000E+00  0.00000000E+00
  0.00000000E+00  0.00000000E+00  0.00000000E+00  0.00000000E+00  0.00000000E+00
  0.00000000E+00  0.00000000E+00  0.00000000E+00  0.00000000E+00  0.00000000E+00
  0.00000000E+00  0.00000000E+00  0.00000000E+00  0.00000000E+00  0.00000000E+00
  0.00000000E+00  0.00000000E+00  0.00000000E+00  0.00000000E+00  0.00000000E+00
  0.00000000E+00  0.00000000E+00  1.81585239E+00  0.00000000E+00  0.00000000E+00
  1.81585239E+00  0.00000000E+00  0.00000000E+00  1.81585239E+00  0.00000000E+00
  0.00000000E+00  1.81585239E+00  0.00000000E+00  0.00000000E+00  1.81585239E+00
  0.00000000E+00  0.00000000E+00  1.81585239E+00  0.00000000E+00  0.00000000E+00
  1.81585239E+00  0.00000000E+00  0.00000000E+00  1.81585239E+00  0.00000000E+00
  0.00000000E+00  1.81585239E+00  0.00000000E+00  0.00000000E+00  1.81585239E+00
  0.00000000E+00  0.00000000E+00  1.81585239E+00  0.00000000E+00  0.00000000E+00
  1.81585239E+00  0.00000000E+00  0.00000000E+00  1.81585239E+00  0.00000000E+00
  0.00000000E+00  1.81585239E+00  0.00000000E+00  0.00000000E+00  1.81585239E+00
  0.00000000E+00  0.00000000E+00  1.81585239E+00  0.00000000E+00  0.00000000E+00
  1.81585239E+00  0.00000000E+00  0.00000000E+00 -1.36243524E+00 -6.48861632E+00
  0.00000000E+00 -1.36243524E+00 -6.48861632E+00  0.00000000E+00 -1.36243524E+00
 -6.48861632E+00  0.00000000E+00 -1.36243524E+00 -6.48861632E+00  0.00000000E+00
 -1.36243524E+00 -6.48861632E+00  0.00000000E+00 -1.36243524E+00 -6.48861632E+00
  0.00000000E+00 -1.36243524E+00 -6.48861632E+00  0.00000000E+00 -1.36243524E+00
 -6.48861632E+00  0.00000000E+00 -1.36243524E+00 -6.48861632E+00  0.00000000E+00
 -1.36243524E+00 -6.48861632E+00  0.00000000E+00 -1.36243524E+00 -6.48861632E+00
  0.00000000E+00 -1.36243524E+00 -6.48861632E+00  0.00000000E+00 -1.36243524E+00
 -6.48861632E+00  0.00000000E+00 -1.36243524E+00 -6.48861632E+00  0.00000000E+00
 -1.36243524E+00 -6.48861632E+00  0.00000000E+00 -1.36243524E+00 -6.48861632E+00
  0.00000000E+00 -1.36243524E+00 -6.48861632E+00  0.00000000E+00 -5.04820858E-01
 -2.40421619E+00  0.00000000E+00 -5.04820858E-01 -2.40421619E+00  0.00000000E+00
 -5.04820858E-01 -2.40421619E+00  0.00000000E+00 -5.04820858E-01 -2.40421619E+00
  0.00000000E+00 -5.04820858E-01 -2.40421619E+00  0.00000000E+00 -5.04820858E-01
 -2.40421619E+00  0.00000000E+00 -5.04820858E-01 -2.40421619E+00  0.00000000E+00
 -5.04820858E-01 -2.40421619E+00  0.00000000E+00 -5.04820858E-01 -2.40421619E+00
  0.00000000E+00 -5.04820858E-01 -2.40421619E+00  0.00000000E+00 -5.04820858E-01
 -2.40421619E+00  0.00000000E+00 -5.04820858E-01 -2.40421619E+00  0.00000000E+00
 -5.04820858E-01 -2.40421619E+00  0.00000000E+00 -5.04820858E-01 -2.40421619E+00
  0.00000000E+00 -5.04820858E-01 -2.40421619E+00  0.00000000E+00 -5.04820858E-01
 -2.40421619E+00  0.00000000E+00 -5.04820858E-01 -2.40421619E+00  0.00000000E+00
Constraint Structure                       R   N=          12
  0.00000000E+00  0.00000000E+00  0.00000000E+00  1.81585239E+00  0.00000000E+00
  0.00000000E+00 -1.36243524E+00 -6.48861632E+00  0.00000000E+00 -5.04820858E-01
 -2.40421619E+00  0.00000000E+00
Num ILSW                                   I              100
ILSW                                       I   N=         100
           0           0           0           0           2           0
           0           0           0           0           0          -1
           0           0           0           0           0           0
           0           0           0           0           0           0
           1           1           0           0           0           0
           0           0      100000           0          -1           0
           0           0           0           0           0           0
           0           0           0           1           0           0
           0           0           1           0           0           0
           0           0           4          41           0           0
           0           0           0           0           0           0
           0           0           0           4           0           0
           0           0           0           0           0           0
           0           0           0           0           0           0
           0           0           0           0           0           0
           0           0           0           0           0           0
           0           0           0           0
Num RLSW                                   I               41
RLSW                                       R   N=          41
  1.00000000E+00  1.00000000E+00  1.00000000E+00  1.00000000E+00  1.00000000E+00
  0.00000000E+00  0.00000000E+00  1.00000000E+00  0.00000000E+00  0.00000000E+00
  0.00000000E+00  0.00000000E+00  1.00000000E+00  0.00000000E+00  0.00000000E+00
  0.00000000E+00  0.00000000E+00  1.00000000E+00  0.00000000E+00  0.00000000E+00
  0.00000000E+00  0.00000000E+00  1.00000000E+00  0.00000000E+00  0.00000000E+00
  0.00000000E+00  0.00000000E+00  1.00000000E+00  0.00000000E+00  0.00000000E+00
  0.00000000E+00  0.00000000E+00  1.00000000E+00  0.00000000E+00  0.00000000E+00
  0.00000000E+00  0.00000000E+00  0.00000000E+00  1.00000000E+00  1.00000000E+00
  0.00000000E+00
ECP-MxAtEC                                 I           250000
ECP-MaxLECP                                I               10
ECP-MaxAtL                                 I          2250000
ECP-MxTECP                                 I         11250000
ECP-LenNCZ                                 I               16
ECP-KFirst                                 I   N=          40
           0           0           1           0           0           0
           2           0           0           0           5           0
           0           0           9           0           0           0
          13           0           0           0           0           0
           0           0           0           0           0           0
           0           0           0           0           0           0
           0           0           0           0
ECP-KLast                                  I   N=          40
           0           0           1           0           0           0
           4           0           0           0           8           0
           0           0          12           0           0           0
          16           0           0           0           0           0
           0           0           0           0           0           0
           0           0           0           0           0           0
           0           0           0           0
ECP-LMax                                   I   N=           4
           0           0           4           0
ECP-LPSkip                                 I   N=           4
           1           1           0           1
ECP-RNFroz                                 R   N=           4
  0.00000000E+00  0.00000000E+00  2.80000000E+01  0.00000000E+00
ECP-NLP                                    I   N=          16
           2           2           2           2           2           2
           2           2           2           2           2           2
           2           2           2           2
ECP-CLP1                                   R   N=          16
  0.00000000E+00  4.99896490E+01  2.81006556E+02  6.14167390E+01  6.74162390E+01
  1.34807696E+02  1.45665480E+01  2.89684220E+01  3.55387560E+01  5.33397590E+01
  9.71646600E+00  1.49775000E+01 -2.01766180E+01 -2.60880770E+01 -2.20434000E-01
 -2.21646000E-01
ECP-CLP2                                   R   N=          16
  0.00000000E+00  0.00000000E+00  0.00000000E+00  0.00000000E+00  0.00000000E+00
  0.00000000E+00  0.00000000E+00  0.00000000E+00  0.00000000E+00  0.00000000E+00
  0.00000000E+00  0.00000000E+00  0.00000000E+00  0.00000000E+00  0.00000000E+00
  0.00000000E+00
ECP-ZLP                                    R   N=          16
  1.00000000E+00  4.00333760E+01  1.73005760E+01  8.85172000E+00  1.57201410E+01
  1.52082220E+01  8.29418600E+00  7.75394900E+00  1.38177510E+01  1.35878050E+01
  6.94763000E+00  6.96009900E+00  1.85229500E+01  1.82510350E+01  7.55790100E+00
  7.59740400E+00
MxBond                                     I                1
NBond                                      I   N=           4
           1           1           0           0
IBond                                      I   N=           4
           2           1           0           0
RBond                                      R   N=           4
  1.00000000E+00  1.00000000E+00  0.00000000E+00  0.00000000E+00
Virial Ratio                               R      2.987464668899130E+00
SCF Energy                                 R     -3.707627488748095E+02
MP2 Energy                                 R     -3.712775878586576E+02
Total Energy                               R     -3.712775878586576E+02
Post-SCF wavefunction norm                 R      1.081788915325123E+00
RMS Density                                R      4.270632695518347E-09
Job Status                                 I                1
Nuclear derivative order                   I                0
External E-field                           R   N=          35
  0.00000000E+00  0.00000000E+00  0.00000000E+00  0.00000000E+00  0.00000000E+00
  0.00000000E+00  0.00000000E+00  0.00000000E+00  0.00000000E+00  0.00000000E+00
  0.00000000E+00  0.00000000E+00  0.00000000E+00  0.00000000E+00  0.00000000E+00
  0.00000000E+00  0.00000000E+00  0.00000000E+00  0.00000000E+00  0.00000000E+00
  0.00000000E+00  0.00000000E+00  0.00000000E+00  0.00000000E+00  0.00000000E+00
  0.00000000E+00  0.00000000E+00  0.00000000E+00  0.00000000E+00  0.00000000E+00
  0.00000000E+00  0.00000000E+00  0.00000000E+00  0.00000000E+00  0.00000000E+00
IOpCl                                      I                0
IROHF                                      I                0
Alpha Orbital Energies                     R   N=         147
 -2.03736788E+01 -7.48658091E+00 -5.31284468E+00 -5.31152986E+00 -5.31147521E+00
 -2.04053736E+00 -2.03982874E+00 -2.03976767E+00 -2.03833893E+00 -2.03833849E+00
 -1.10157249E+00 -6.50437190E-01 -4.52345483E-01 -3.62379106E-01 -2.99128701E-01
 -1.65290615E-01 -1.59607275E-01 -1.59148487E-01  1.39911154E-01  1.69826234E-01
  2.30056599E-01  2.42605904E-01  2.46311543E-01  2.77414023E-01  2.98214826E-01
  3.01905224E-01  3.14027110E-01  3.42176945E-01  3.64124262E-01  3.66349025E-01
  3.69009793E-01  3.92565685E-01  3.98014178E-01  4.31483384E-01  4.44785175E-01
  4.76763957E-01  4.97419290E-01  5.51741050E-01  5.75857915E-01  6.06430294E-01
  6.68523464E-01  7.15813423E-01  7.62800514E-01  7.63515322E-01  7.70664819E-01
  7.84164601E-01  7.85064173E-01  7.92043094E-01  8.15406385E-01  8.28617973E-01
  8.49918869E-01  8.62046774E-01  8.64324229E-01  8.69499166E-01  8.72263588E-01
  9.03785709E-01  9.10287362E-01  9.32802646E-01  9.53695377E-01  9.73417434E-01
  1.03798403E+00  1.06328959E+00  1.08272347E+00  1.11826283E+00  1.12681606E+00
  1.12844484E+00  1.16948994E+00  1.18354445E+00  1.20733431E+00  1.21980357E+00
  1.28685542E+00  1.36721867E+00  1.37533623E+00  1.46336082E+00  1.49172914E+00
  1.51288417E+00  1.60977351E+00  1.63167806E+00  1.72255843E+00  1.73207541E+00
  1.73560676E+00  1.73774016E+00  1.74971582E+00  1.75659568E+00  1.79467778E+00
  1.83016556E+00  1.85816444E+00  1.90529671E+00  2.00184872E+00  2.04105433E+00
  2.04457737E+00  2.04752526E+00  2.08226035E+00  2.11320639E+00  2.15082745E+00
  2.32765491E+00  2.43075121E+00  2.47602241E+00  2.55734326E+00  2.57772448E+00
  2.60681023E+00  2.62151686E+00  2.72193761E+00  2.77108993E+00  2.89502588E+00
  2.91570010E+00  2.98015920E+00  3.01066468E+00  3.25914396E+00  3.34963217E+00
  3.35024387E+00  3.52003525E+00  3.87656957E+00  4.14020008E+00  4.17776942E+00
  4.26711095E+00  4.28044191E+00  4.33887176E+00  4.39821322E+00  4.47793706E+00
  4.53859103E+00  4.59837666E+00  4.61782501E+00  4.73503369E+00  4.76903897E+00
  4.86530610E+00  5.01063467E+00  5.17304119E+00  5.41135384E+00  5.55823899E+00
  5.57450670E+00  6.26898130E+00  6.57768902E+00  6.89743337E+00  6.98247629E+00
  7.05159026E+00  7.25644061E+00  7.42048516E+00  7.45931644E+00  7.53136584E+00
  7.54595417E+00  7.61520199E+00  7.77773298E+00  8.01397229E+00  8.42151592E+00
  1.44671732E+01  5.92016746E+01
Alpha MO coefficients                      R   N=       28077
  9.76853856E-01 -8.98601951E-03  4.33770468E-02  9.80936592E-04  7.98433259E-04
  1.31467793E-03 -9.45436421E-04 -5.90965950E-16 -1.17231757E-03  9.70586629E-04
  6.87715143E-16 -8.14944533E-05  1.12819520E-04 -1.57146765E-15  1.21623114E-06
 -3.13986853E-04 -3.95288798E-16 -2.39761451E-05 -5.99722772E-17 -9.62492136E-16
  6.88889898E-05  5.17924938E-06  5.18860606E-04  9.49501905E-16  1.07418223E-15
 -1.51452194E-04 -2.25179190E-04  6.04145117E-05  1.79290524E-16  5.21094291E-16
  2.10604057E-04 -1.96988538E-04 -4.48936416E-16  1.20855378E-05 -1.75797666E-05
  6.59581360E-16  6.41592813E-17 -1.36395154E-05 -1.01810974E-05  2.88362503E-17
  4.76010667E-05 -6.78050802E-05  3.57179654E-16 -8.21701748E-17 -1.88292616E-04
 -1.13972653E-04  5.24142424E-04  7.27465000E-04  1.04992862E-04 -1.58188554E-05
  7.27465000E-04  1.04992862E-04 -1.58188553E-05 -1.19762531E-04 -4.49040189E-06
 -1.17258328E-17 -5.42509947E-04  9.47054716E-05  1.01828875E-16 -1.34971962E-04
  9.37208210E-05  3.72463752E-16 -1.19762531E-04 -4.49040189E-06 -4.42456323E-16
 -5.42509947E-04  9.47054716E-05 -8.64775395E-16 -1.34971962E-04  9.37208210E-05
  3.95958856E-17  2.24152490E-05  4.41677478E-16  7.34890444E-17 -4.44901012E-05
  5.70169038E-07 -1.13774578E-04 -1.56834479E-16  1.59976522E-16  2.29142147E-04
 -6.64105913E-05  2.24152490E-05  2.29227664E-16 -3.12137134E-16 -4.44901012E-05
  5.70169039E-07 -1.13774578E-04  1.21959382E-16 -2.25578135E-16  2.29142147E-04
 -6.64105913E-05  1.26967396E-06  3.37854258E-06  1.27757703E-04  8.06469976E-04
 -3.35015201E-03 -9.37771216E-04 -2.05294811E-05 -1.05176181E-04  6.96477421E-17
 -1.16353977E-04 -6.21124154E-04  7.84638951E-16  5.51210983E-05  2.72200971E-04
 -4.37296535E-16 -5.17935484E-04 -2.11947105E-03 -3.50205186E-16 -5.22739247E-05
 -2.37577403E-04 -1.02336986E-16  2.51546599E-06 -2.05047941E-18 -1.10587326E-16
  1.70097897E-06 -2.81863146E-06 -2.62032421E-05 -3.21357420E-17 -1.59773268E-17
 -2.93642013E-05  2.52108226E-05  3.26695934E-04  1.11249045E-16  4.42793816E-16
  4.83142727E-04 -2.52580744E-04  2.80748308E-04 -5.62802325E-17 -3.28438150E-16
  4.57915974E-04 -2.40358310E-04 -1.16364706E-16  6.59504914E-06  3.02282952E-05
 -1.53611962E-16  1.14083859E-16  1.30479546E-05  2.79267590E-05 -7.49518105E-17
  2.29662173E-05  8.13197089E-05 -3.99421485E-17  1.10302361E-16  9.90970953E-05
  8.02840211E-05 -1.08377309E-04  4.59664198E-04  1.25702670E-03  1.63191124E-04
  4.59664198E-04  1.25702670E-03  1.63191124E-04  1.11566202E-05  6.10290804E-05
 -5.43804545E-17  6.98874044E-05  4.80410347E-04  4.02873722E-16 -2.49926178E-04
 -1.59365831E-03  4.74032746E-16  1.11566202E-05  6.10290804E-05 -5.43804545E-17
  6.98874044E-05  4.80410347E-04  4.02873722E-16 -2.49926178E-04 -1.59365831E-03
  2.68716682E-16 -6.48328543E-05  3.23168866E-17  9.12165217E-17 -1.09873302E-04
  4.16199908E-05 -2.33190924E-04  4.40550637E-17  6.34762914E-16 -3.63077317E-04
  1.32826353E-04 -6.48328543E-05  3.88491732E-17  8.78211589E-17 -1.09873302E-04
  4.16199908E-05 -2.33190924E-04  4.04862332E-17  7.03557895E-16 -3.63077317E-04
  1.32826353E-04  5.03658108E-06  1.18130511E-05 -4.14941808E-06  7.46743056E-05
  7.24215573E-05  2.92644310E-06  1.04237841E-05  4.41772100E-16 -1.30972434E-05
 -2.30337586E-05 -1.07586148E-15  5.66439416E-05  7.01522767E-05  8.92727448E-15
  5.60547563E-05 -3.25104059E-05  1.52199700E-15 -4.42498440E-07 -4.32568383E-16
  6.02809094E-17 -5.95117290E-07 -3.78437082E-07  1.49165067E-06  4.74762823E-16
 -2.18024790E-16 -1.53811739E-06  4.91675564E-06  1.47134969E-05  5.07587709E-15
  1.03556217E-15  6.05490876E-05 -1.73055365E-05  2.39230410E-16  1.33701481E-06
  2.72457689E-06 -1.47917079E-16 -4.21823137E-16  6.09580237E-07  1.96949200E-06
 -8.49858707E-16 -4.37819643E-06 -1.15519049E-05  1.13625844E-15  3.31958781E-16
 -3.15158839E-06 -4.86741910E-06 -2.64439331E-07 -1.60388612E-05 -4.04627599E-05
 -6.10104441E-05 -1.60388612E-05 -4.04627599E-05 -6.10104441E-05 -5.95074906E-07
  5.32332824E-07  3.70517330E-16 -3.04438640E-06 -8.18326988E-06 -2.30517190E-15
  2.90282557E-06  4.86346537E-07 -2.66006974E-15 -5.95074905E-07  5.32332824E-07
  9.75077385E-17 -3.04438640E-06 -8.18326988E-06 -3.44344988E-15  2.90282557E-06
  4.86346538E-07 -2.64287317E-15 -4.73620547E-07  1.31572485E-16  3.43867330E-16
  4.75505739E-07  1.16802490E-06 -3.61041767E-06  1.85153749E-15 -3.84806815E-16
  3.40507644E-06 -7.00595839E-07 -4.73620547E-07 -2.67247390E-17 -2.88427839E-16
  4.75505739E-07  1.16802490E-06 -3.61041767E-06  1.67756982E-15 -5.59750709E-16
  3.40507644E-06 -7.00595839E-07  9.83169154E-01 -2.61705654E-03  2.28994305E-02
 -5.95685501E-03  1.83933748E-03 -8.22395888E-04  1.58540921E-04  5.22041041E-04
 -1.51399611E-15 -1.38517825E-05 -4.64888532E-05 -4.41584069E-15  3.35334483E-05
  1.23781380E-04  2.77616011E-15  3.02389524E-05  1.41829228E-04  3.20001361E-15
 -1.55801604E-05 -1.25866972E-04 -8.53055963E-17 -1.25788121E-04 -3.62612948E-16
  1.21311623E-16 -1.79561218E-04  9.08570833E-05 -1.23268779E-05  4.62231913E-16
 -3.33948632E-16 -1.76761193E-05  9.22730438E-06 -3.51742658E-06 -4.44550906E-16
  2.34500124E-16 -1.12847598E-05  2.20827625E-07 -4.81235928E-06  3.16424659E-16
  3.56367461E-16  4.82864984E-07  7.05863171E-06  1.79018568E-16  7.87968190E-07
  2.30716785E-06  2.56570833E-16 -6.06441775E-17  1.40929658E-06  5.26742924E-07
 -3.97644572E-16 -2.37242837E-06 -9.50112932E-06 -2.55188047E-16  3.06572077E-16
 -6.14819069E-06 -7.08310043E-06  1.68006376E-05  6.71939144E-05 -1.20627462E-04
  1.74421083E-04  6.71939144E-05 -1.20627462E-04  1.74421083E-04 -8.17792964E-07
 -3.04509093E-06 -5.04113210E-17 -1.52044765E-06 -1.11442434E-05  2.15613004E-16
 -8.37536696E-06  1.14551670E-05 -2.86744050E-16 -8.17792964E-07 -3.04509093E-06
 -5.04113210E-17 -1.52044765E-06 -1.11442434E-05  2.15613004E-16 -8.37536696E-06
  1.14551670E-05 -5.80478854E-16  1.28978390E-07  6.85620210E-17  1.63988539E-17
  1.01100716E-06  7.00434934E-08  2.06270560E-05 -3.27505305E-16  8.70007366E-17
  2.94907769E-05 -1.68099902E-05  1.28978390E-07  4.94743454E-17  8.17353278E-18
  1.01100716E-06  7.00434934E-08  2.06270560E-05 -3.19460632E-16 -1.49448663E-16
  2.94907769E-05 -1.68099902E-05  6.14112076E-06 -4.93846280E-06 -6.93088816E-06
  1.03831647E-04  1.14333358E-04  3.45043280E-06  1.90048000E-05  7.97861583E-16
 -1.84438023E-06  5.87642166E-07 -1.56841056E-15  4.70216291E-05 -2.24201927E-05
 -1.57848263E-14  1.68144020E-05 -3.35623737E-05 -2.69021650E-15  8.80646016E-07
  1.08356359E-16 -1.57136507E-16  8.10933520E-07 -5.24665704E-07 -4.22604349E-06
 -2.20897612E-15  1.02916418E-15 -1.24916850E-06  4.97535979E-06 -2.23062600E-05
 -4.43935277E-15  3.86333064E-15 -2.11489435E-06  1.62535083E-05 -8.43141541E-17
  4.76388786E-07 -4.01973116E-07 -8.94071120E-16  1.33069706E-16 -6.29246422E-07
 -4.31086525E-07  3.09942526E-15 -2.36092066E-06  2.78307070E-06 -6.03084186E-16
 -3.27474271E-16  5.80185813E-06  7.46320838E-06  2.26596622E-07 -2.57894173E-05
 -6.00642503E-05 -1.27976444E-05 -2.57894173E-05 -6.00642503E-05 -1.27976444E-05
  2.17638334E-07 -3.95875534E-07  5.67509317E-16  4.98564271E-06 -4.49321242E-06
  4.96757289E-15  1.47856401E-05 -1.51486937E-06  2.92053331E-15  2.17638332E-07
 -3.95875533E-07 -1.11070113E-16  4.98564271E-06 -4.49321242E-06  3.40505146E-15