 Entering Gaussian System, Link 0=g09
 Input=ihod_rOH_150_sp.gjf
 Output=ihod_rOH_150_sp.log
 Initial command:
 /usr/local/gaussian/g09/l1.exe "/scratch/Gau-3443.inp" -scrdir="/scratch/"
 Entering Link 1 = /usr/local/gaussian/g09/l1.exe PID=      3444.
  
 Copyright (c) 1988,1990,1992,1993,1995,1998,2003,2009,2015,
            Gaussian, Inc.  All Rights Reserved.
  
 This is part of the Gaussian(R) 09 program.  It is based on
 the Gaussian(R) 03 system (copyright 2003, Gaussian, Inc.),
 the Gaussian(R) 98 system (copyright 1998, Gaussian, Inc.),
 the Gaussian(R) 94 system (copyright 1995, Gaussian, Inc.),
 the Gaussian 92(TM) system (copyright 1992, Gaussian, Inc.),
 the Gaussian 90(TM) system (copyright 1990, Gaussian, Inc.),
 the Gaussian 88(TM) system (copyright 1988, Gaussian, Inc.),
 the Gaussian 86(TM) system (copyright 1986, Carnegie Mellon
 University), and the Gaussian 82(TM) system (copyright 1983,
 Carnegie Mellon University). Gaussian is a federally registered
 trademark of Gaussian, Inc.
  
 This software contains proprietary and confidential information,
 including trade secrets, belonging to Gaussian, Inc.
  
 This software is provided under written license and may be
 used, copied, transmitted, or stored only in accord with that
 written license.
  
 The following legend is applicable only to US Government
 contracts under FAR:
  
                    RESTRICTED RIGHTS LEGEND
  
 Use, reproduction and disclosure by the US Government is
 subject to restrictions as set forth in subparagraphs (a)
 and (c) of the Commercial Computer Software - Restricted
 Rights clause in FAR 52.227-19.
  
 Gaussian, Inc.
 340 Quinnipiac St., Bldg. 40, Wallingford CT 06492
  
  
 ---------------------------------------------------------------
 Warning -- This program may not be used in any manner that
 competes with the business of Gaussian, Inc. or will provide
 assistance to any competitor of Gaussian, Inc.  The licensee
 of this program is prohibited from giving any competitor of
 Gaussian, Inc. access to this program.  By using this program,
 the user acknowledges that Gaussian, Inc. is engaged in the
 business of creating and licensing software in the field of
 computational chemistry and represents and warrants to the
 licensee that it is not a competitor of Gaussian, Inc. and that
 it will not use this program in any manner prohibited above.
 ---------------------------------------------------------------
  

 Cite this work as:
 Gaussian 09, Revision E.01,
 M. J. Frisch, G. W. Trucks, H. B. Schlegel, G. E. Scuseria, 
 M. A. Robb, J. R. Cheeseman, G. Scalmani, V. Barone, B. Mennucci, 
 G. A. Petersson, H. Nakatsuji, M. Caricato, X. Li, H. P. Hratchian, 
 A. F. Izmaylov, J. Bloino, G. Zheng, J. L. Sonnenberg, M. Hada, 
 M. Ehara, K. Toyota, R. Fukuda, J. Hasegawa, M. Ishida, T. Nakajima, 
 Y. Honda, O. Kitao, H. Nakai, T. Vreven, J. A. Montgomery, Jr., 
 J. E. Peralta, F. Ogliaro, M. Bearpark, J. J. Heyd, E. Brothers, 
 K. N. Kudin, V. N. Staroverov, T. Keith, R. Kobayashi, J. Normand, 
 K. Raghavachari, A. Rendell, J. C. Burant, S. S. Iyengar, J. Tomasi, 
 M. Cossi, N. Rega, J. M. Millam, M. Klene, J. E. Knox, J. B. Cross, 
 V. Bakken, C. Adamo, J. Jaramillo, R. Gomperts, R. E. Stratmann, 
 O. Yazyev, A. J. Austin, R. Cammi, C. Pomelli, J. W. Ochterski, 
 R. L. Martin, K. Morokuma, V. G. Zakrzewski, G. A. Voth, 
 P. Salvador, J. J. Dannenberg, S. Dapprich, A. D. Daniels, 
 O. Farkas, J. B. Foresman, J. V. Ortiz, J. Cioslowski, 
 and D. J. Fox, Gaussian, Inc., Wallingford CT, 2013.
 
 ******************************************
 Gaussian 09:  ES64L-G09RevE.01 30-Nov-2015
                12-Oct-2021 
 ******************************************
 %nproc=12
 Will use up to   12 processors via shared memory.
 %mem=8000MB
 %chk=/home/netid.washington.edu/cgavinh/mccoy_hocl/rOH_s_oop_0/ihod/ihod_rOH_150
 _sp.chk
 --------------------------------------------------------
 #p pop=NBO SP NoSymm mp2/gen Pseudo=read density=current
 --------------------------------------------------------
 1/30=1,38=1/1;
 2/12=2,15=1,17=6,18=5,40=1/2;
 3/5=7,11=9,16=1,17=8,25=1,30=1,71=1/1,2,3;
 4//1;
 5/5=2,38=5/2;
 8/6=4,10=1/1;
 9/15=1,16=-3/6;
 10/5=1,13=10,31=1/2;
 6/7=2,8=2,9=2,10=2,22=-1,40=1/1,7;
 99/5=1,9=1/99;
 Leave Link    1 at Tue Oct 12 16:25:27 2021, MaxMem=  1048576000 cpu:         0.2
 (Enter /usr/local/gaussian/g09/l101.exe)
 -----
 title
 -----
 Symbolic Z-matrix:
 Charge = -1 Multiplicity = 1
 O
 X                    1     10. 
 H(iso=2)             1    r1       2     90. 
 I                    1    r2       2     90.      3    a1       0
 H                    1    r3       2    oop      3    a1       0
       Variables:
  r1                    0.96091                  
  r2                    3.5085                   
  r3                    1.5                      
  a1                  101.85831                  
  OOP                  90.                       
 
 NAtoms=      4 NQM=        4 NQMF=       0 NMMI=      0 NMMIF=      0
                NMic=       0 NMicF=      0.
                    Isotopes and Nuclear Properties:
 (Nuclear quadrupole moments (NQMom) in fm**2, nuclear magnetic moments (NMagM)
  in nuclear magnetons)

  Atom         1           2           3           4
 IAtWgt=          16           2         127           1
 AtmWgt=  15.9949146   2.0141018 126.9004000   1.0078250
 NucSpn=           0           2           5           1
 AtZEff=   0.0000000   0.0000000   0.0000000   0.0000000
 NQMom=    0.0000000   0.2860000 -71.0000000   0.0000000
 NMagM=    0.0000000   0.8574380   2.8132800   2.7928460
 AtZNuc=   8.0000000   1.0000000  53.0000000   1.0000000
 Leave Link  101 at Tue Oct 12 16:25:27 2021, MaxMem=  1048576000 cpu:         0.4
 (Enter /usr/local/gaussian/g09/l202.exe)
                          Input orientation:                          
 ---------------------------------------------------------------------
 Center     Atomic      Atomic             Coordinates (Angstroms)
 Number     Number       Type             X           Y           Z
 ---------------------------------------------------------------------
      1          8           0        0.000000    0.000000    0.000000
      2          1           0        0.960908    0.000000    0.000000
      3         53           0       -0.720970   -3.433628    0.000000
      4          1           0       -0.308238   -1.467988    0.000000
 ---------------------------------------------------------------------
                    Distance matrix (angstroms):
                    1          2          3          4
     1  O    0.000000
     2  H    0.960908   0.000000
     3  I    3.508504   3.823416   0.000000
     4  H    1.500000   1.940546   2.008504   0.000000
 Symmetry turned off by external request.
 Stoichiometry    H2IO(1-)
 Framework group  CS[SG(H2IO)]
 Deg. of freedom     5
 Full point group                 CS      NOp   2
 Rotational constants (GHZ):    323.1249222      2.5355994      2.5158572
 Leave Link  202 at Tue Oct 12 16:25:27 2021, MaxMem=  1048576000 cpu:         0.0
 (Enter /usr/local/gaussian/g09/l301.exe)
 General basis read from cards:  (5D, 7F)
 Centers:       2      4      1      2      4
 aug-cc-pVTZ
 ****
 Centers:       3
 S 11 1.00
     Exponent=  5.5465000000D+03 Coefficients=  1.5600000000D-04
     Exponent=  8.3821400000D+02 Coefficients=  9.8600000000D-04
     Exponent=  1.8218700000D+02 Coefficients=  2.7920000000D-03
     Exponent=  3.1212300000D+01 Coefficients= -4.3251000000D-02
     Exponent=  1.9531400000D+01 Coefficients=  2.3413400000D-01
     Exponent=  8.2409900000D+00 Coefficients= -7.5094300000D-01
     Exponent=  2.1945500000D+00 Coefficients=  8.8296800000D-01
     Exponent=  1.1091100000D+00 Coefficients=  4.6206100000D-01
     Exponent=  3.7464100000D-01 Coefficients=  2.2286000000D-02
     Exponent=  1.7708000000D-01 Coefficients= -4.3530000000D-03
     Exponent=  8.1061000000D-02 Coefficients=  1.1020000000D-03
 S 11 1.00
     Exponent=  5.5465000000D+03 Coefficients= -7.3000000000D-05
     Exponent=  8.3821400000D+02 Coefficients= -5.0800000000D-04
     Exponent=  1.8218700000D+02 Coefficients= -1.1580000000D-03
     Exponent=  3.1212300000D+01 Coefficients=  1.2193000000D-02
     Exponent=  1.9531400000D+01 Coefficients= -8.7854000000D-02
     Exponent=  8.2409900000D+00 Coefficients=  3.3820000000D-01
     Exponent=  2.1945500000D+00 Coefficients= -5.7655000000D-01
     Exponent=  1.1091100000D+00 Coefficients= -4.0929800000D-01
     Exponent=  3.7464100000D-01 Coefficients=  5.6745900000D-01
     Exponent=  1.7708000000D-01 Coefficients=  6.1248900000D-01
     Exponent=  8.1061000000D-02 Coefficients=  1.4323100000D-01
 S 1 1.00
     Exponent=  3.7464100000D-01 Coefficients=  1.0000000000D+00
 S 1 1.00
     Exponent=  1.7708000000D-01 Coefficients=  1.0000000000D+00
 S 1 1.00
     Exponent=  1.0010000000D-01 Coefficients=  1.0000000000D+00
 S 1 1.00
     Exponent=  4.1200000000D-02 Coefficients=  1.0000000000D+00
 P 9 1.00
     Exponent=  1.8898800000D+02 Coefficients=  5.8500000000D-04
     Exponent=  2.1286800000D+01 Coefficients=  3.6923000000D-02
     Exponent=  1.0039600000D+01 Coefficients= -2.3532400000D-01
     Exponent=  3.4518000000D+00 Coefficients=  3.4148300000D-01
     Exponent=  1.9745600000D+00 Coefficients=  5.3478800000D-01
     Exponent=  1.0242000000D+00 Coefficients=  2.6514100000D-01
     Exponent=  4.4943700000D-01 Coefficients=  2.5787000000D-02
     Exponent=  1.8664800000D-01 Coefficients=  5.2200000000D-04
     Exponent=  7.3481000000D-02 Coefficients=  6.0600000000D-04
 P 9 1.00
     Exponent=  1.8898800000D+02 Coefficients= -2.5600000000D-04
     Exponent=  2.1286800000D+01 Coefficients= -1.1682000000D-02
     Exponent=  1.0039600000D+01 Coefficients=  8.3192000000D-02
     Exponent=  3.4518000000D+00 Coefficients= -1.5697000000D-01
     Exponent=  1.9745600000D+00 Coefficients= -2.2451800000D-01
     Exponent=  1.0242000000D+00 Coefficients= -1.1445100000D-01
     Exponent=  4.4943700000D-01 Coefficients=  3.7535600000D-01
     Exponent=  1.8664800000D-01 Coefficients=  5.7513600000D-01
     Exponent=  7.3481000000D-02 Coefficients=  2.4591700000D-01
 P 1 1.00
     Exponent=  5.9810000000D-01 Coefficients=  1.0000000000D+00
 P 1 1.00
     Exponent=  9.6180000000D-02 Coefficients=  1.0000000000D+00
 P 1 1.00
     Exponent=  3.5900000000D-02 Coefficients=  1.0000000000D+00
 D 9 1.00
     Exponent=  1.3266200000D+02 Coefficients=  5.7200000000D-04
     Exponent=  3.7605400000D+01 Coefficients=  4.4020000000D-03
     Exponent=  1.0389100000D+01 Coefficients= -4.0922000000D-02
     Exponent=  6.4901700000D+00 Coefficients=  9.9661000000D-02
     Exponent=  3.4545100000D+00 Coefficients=  3.2266300000D-01
     Exponent=  1.8441300000D+00 Coefficients=  4.0034300000D-01
     Exponent=  9.6247800000D-01 Coefficients=  2.6830600000D-01
     Exponent=  4.7285300000D-01 Coefficients=  8.4847000000D-02
     Exponent=  1.9320000000D-01 Coefficients=  7.6320000000D-03
 D 1 1.00
     Exponent=  4.7285300000D-01 Coefficients=  1.0000000000D+00
 D 1 1.00
     Exponent=  1.9320000000D-01 Coefficients=  1.0000000000D+00
 D 1 1.00
     Exponent=  7.8200000000D-02 Coefficients=  1.0000000000D+00
 F 1 1.00
     Exponent=  4.0640000000D-01 Coefficients=  1.0000000000D+00
 F 1 1.00
     Exponent=  1.8480000000D-01 Coefficients=  1.0000000000D+00
 ****
 ======================================================================================================
                                       Pseudopotential Parameters
 ======================================================================================================
  Center     Atomic      Valence      Angular      Power
  Number     Number     Electrons     Momentum     of R      Exponent        Coefficient   SO-Coeffient
 ======================================================================================================
    1          8
                                   No pseudopotential on this center.
    2          1
                                   No pseudopotential on this center.
    3         53           25
                                      G and up 
                                                     2        1.0000000        0.00000000    0.00000000
                                      S - G
                                                     2       40.0333760       49.98964900    0.00000000
                                                     2       17.3005760      281.00655600    0.00000000
                                                     2        8.8517200       61.41673900    0.00000000
                                      P - G
                                                     2       15.7201410       67.41623900    0.00000000
                                                     2       15.2082220      134.80769600    0.00000000
                                                     2        8.2941860       14.56654800    0.00000000
                                                     2        7.7539490       28.96842200    0.00000000
                                      D - G
                                                     2       13.8177510       35.53875600    0.00000000
                                                     2       13.5878050       53.33975900    0.00000000
                                                     2        6.9476300        9.71646600    0.00000000
                                                     2        6.9600990       14.97750000    0.00000000
                                      F - G
                                                     2       18.5229500      -20.17661800    0.00000000
                                                     2       18.2510350      -26.08807700    0.00000000
                                                     2        7.5579010       -0.22043400    0.00000000
                                                     2        7.5974040       -0.22164600    0.00000000
    4          1
                                   No pseudopotential on this center.
 ======================================================================================================
 Ernie: Thresh=  0.10000D-02 Tol=  0.10000D-05 Strict=F.
 Ernie:  16 primitive shells out of 135 were deleted.
   191 basis functions,   344 primitive gaussians,   218 cartesian basis functions
    18 alpha electrons       18 beta electrons
       nuclear repulsion energy        47.7128423208 Hartrees.
 IExCor=    0 DFT=F Ex=HF Corr=None ExCW=0 ScaHFX=  1.000000
 ScaDFX=  1.000000  1.000000  1.000000  1.000000 ScalE2=  1.000000  1.000000
 IRadAn=      0 IRanWt=     -1 IRanGd=            0 ICorTp=0 IEmpDi=  4
 NAtoms=    4 NActive=    4 NUniq=    4 SFac= 1.00D+00 NAtFMM=   60 NAOKFM=F Big=F
 Integral buffers will be    131072 words long.
 Raffenetti 1 integral format.
 Two-electron integral symmetry is turned off.
 Leave Link  301 at Tue Oct 12 16:25:27 2021, MaxMem=  1048576000 cpu:         0.6
 (Enter /usr/local/gaussian/g09/l302.exe)
 NPDir=0 NMtPBC=     1 NCelOv=     1 NCel=       1 NClECP=     1 NCelD=      1
         NCelK=      1 NCelE2=     1 NClLst=     1 CellRange=     0.0.
 One-electron integrals computed using PRISM.
   1 Symmetry operations used in ECPInt.
 ECPInt:  NShTT=    2145 NPrTT=    7341 LenC2=    2146 LenP2D=    6694.
 LDataN:  DoStor=T MaxTD1= 7 Len=  274
 NBasis=   191 RedAO= T EigKep=  2.44D-04  NBF=   191
 NBsUse=   147 1.00D-06 EigRej=  8.49D-16 NBFU=   147
 Leave Link  302 at Tue Oct 12 16:25:28 2021, MaxMem=  1048576000 cpu:         2.7
 (Enter /usr/local/gaussian/g09/l303.exe)
 DipDrv:  MaxL=1.
 Leave Link  303 at Tue Oct 12 16:25:28 2021, MaxMem=  1048576000 cpu:         0.2
 (Enter /usr/local/gaussian/g09/l401.exe)
 ExpMin= 2.53D-02 ExpMax= 1.53D+04 ExpMxC= 5.22D+02 IAcc=3 IRadAn=         5 AccDes= 0.00D+00
 Harris functional with IExCor=  205 and IRadAn=       5 diagonalized for initial guess.
 HarFok:  IExCor=  205 AccDes= 0.00D+00 IRadAn=         5 IDoV= 1 UseB2=F ITyADJ=14
 ICtDFT=  3500011 ScaDFX=  1.000000  1.000000  1.000000  1.000000
 Defaulting to unpruned grid for atomic number  53.
 Defaulting to unpruned grid for atomic number  53.
 Defaulting to unpruned grid for atomic number  53.
 Defaulting to unpruned grid for atomic number  53.
 Defaulting to unpruned grid for atomic number  53.
 Defaulting to unpruned grid for atomic number  53.
 Defaulting to unpruned grid for atomic number  53.
 Defaulting to unpruned grid for atomic number  53.
 Defaulting to unpruned grid for atomic number  53.
 Defaulting to unpruned grid for atomic number  53.
 Defaulting to unpruned grid for atomic number  53.
 Defaulting to unpruned grid for atomic number  53.
 FoFCou: FMM=F IPFlag=           0 FMFlag=      100000 FMFlg1=           0
         NFxFlg=           0 DoJE=T BraDBF=F KetDBF=T FulRan=T
         wScrn=  0.000000 ICntrl=     500 IOpCl=  0 I1Cent=   200000004 NGrid=           0
         NMat0=    1 NMatS0=      1 NMatT0=    0 NMatD0=    1 NMtDS0=    0 NMtDT0=    0
 Symmetry not used in FoFCou.
 Harris En= -372.646035670863    
 JPrj=0 DoOrth=F DoCkMO=F.
 Leave Link  401 at Tue Oct 12 16:25:28 2021, MaxMem=  1048576000 cpu:         2.7
 (Enter /usr/local/gaussian/g09/l502.exe)
 Closed shell SCF:
 Using DIIS extrapolation, IDIIS=  1040.
 Two-electron integral symmetry not used.
 Keep R1 ints in memory in canonical form, NReq=176646765.
 IVT=      165054 IEndB=      165054 NGot=  1048576000 MDV=   880297331
 LenX=   880297331 LenY=   880249366
 Requested convergence on RMS density matrix=1.00D-08 within 128 cycles.
 Requested convergence on MAX density matrix=1.00D-06.
 Requested convergence on             energy=1.00D-06.
 No special actions if energy rises.
 FoFCou: FMM=F IPFlag=           0 FMFlag=           0 FMFlg1=           0
         NFxFlg=           0 DoJE=F BraDBF=F KetDBF=F FulRan=T
         wScrn=  0.000000 ICntrl=     600 IOpCl=  0 I1Cent=           0 NGrid=           0
         NMat0=    1 NMatS0=  18336 NMatT0=    0 NMatD0=    1 NMtDS0=    0 NMtDT0=    0
 Symmetry not used in FoFCou.

 Cycle   1  Pass 1  IDiag  1:
 E= -370.506651821986    
 DIIS: error= 3.88D-02 at cycle   1 NSaved=   1.
 NSaved= 1 IEnMin= 1 EnMin= -370.506651821986     IErMin= 1 ErrMin= 3.88D-02
 ErrMax= 3.88D-02  0.00D+00 EMaxC= 1.00D-01 BMatC= 4.51D-01 BMatP= 4.51D-01
 IDIUse=3 WtCom= 6.12D-01 WtEn= 3.88D-01
 Coeff-Com:  0.100D+01
 Coeff-En:   0.100D+01
 Coeff:      0.100D+01
 Gap=     0.551 Goal=   None    Shift=    0.000
 GapD=    0.551 DampG=2.000 DampE=0.500 DampFc=1.0000 IDamp=-1.
 RMSDP=4.69D-03 MaxDP=1.77D-01              OVMax= 2.58D-01

 Cycle   2  Pass 1  IDiag  1:
 E= -370.589343300127     Delta-E=       -0.082691478141 Rises=F Damp=F
 DIIS: error= 4.30D-02 at cycle   2 NSaved=   2.
 NSaved= 2 IEnMin= 2 EnMin= -370.589343300127     IErMin= 1 ErrMin= 3.88D-02
 ErrMax= 4.30D-02  0.00D+00 EMaxC= 1.00D-01 BMatC= 1.92D-01 BMatP= 4.51D-01
 IDIUse=3 WtCom= 5.70D-01 WtEn= 4.30D-01
 Coeff-Com:  0.377D+00 0.623D+00
 Coeff-En:   0.349D+00 0.651D+00
 Coeff:      0.365D+00 0.635D+00
 Gap=     0.435 Goal=   None    Shift=    0.000
 RMSDP=2.18D-03 MaxDP=8.77D-02 DE=-8.27D-02 OVMax= 1.29D-01

 Cycle   3  Pass 1  IDiag  1:
 E= -370.721157892304     Delta-E=       -0.131814592177 Rises=F Damp=F
 DIIS: error= 9.47D-03 at cycle   3 NSaved=   3.
 NSaved= 3 IEnMin= 3 EnMin= -370.721157892304     IErMin= 3 ErrMin= 9.47D-03
 ErrMax= 9.47D-03  0.00D+00 EMaxC= 1.00D-01 BMatC= 1.13D-02 BMatP= 1.92D-01
 IDIUse=3 WtCom= 9.05D-01 WtEn= 9.47D-02
 Coeff-Com:  0.736D-02 0.189D+00 0.803D+00
 Coeff-En:   0.000D+00 0.000D+00 0.100D+01
 Coeff:      0.666D-02 0.171D+00 0.822D+00
 Gap=     0.325 Goal=   None    Shift=    0.000
 RMSDP=5.63D-04 MaxDP=2.43D-02 DE=-1.32D-01 OVMax= 3.38D-02

 Cycle   4  Pass 1  IDiag  1:
 E= -370.729231650145     Delta-E=       -0.008073757842 Rises=F Damp=F
 DIIS: error= 1.53D-03 at cycle   4 NSaved=   4.
 NSaved= 4 IEnMin= 4 EnMin= -370.729231650145     IErMin= 4 ErrMin= 1.53D-03
 ErrMax= 1.53D-03  0.00D+00 EMaxC= 1.00D-01 BMatC= 2.60D-04 BMatP= 1.13D-02
 IDIUse=3 WtCom= 9.85D-01 WtEn= 1.53D-02
 Coeff-Com: -0.143D-01-0.487D-02 0.132D+00 0.887D+00
 Coeff-En:   0.000D+00 0.000D+00 0.000D+00 0.100D+01
 Coeff:     -0.140D-01-0.480D-02 0.130D+00 0.888D+00
 Gap=     0.325 Goal=   None    Shift=    0.000
 RMSDP=1.38D-04 MaxDP=1.09D-02 DE=-8.07D-03 OVMax= 5.95D-03

 Cycle   5  Pass 1  IDiag  1:
 E= -370.729502790239     Delta-E=       -0.000271140093 Rises=F Damp=F
 DIIS: error= 2.77D-04 at cycle   5 NSaved=   5.
 NSaved= 5 IEnMin= 5 EnMin= -370.729502790239     IErMin= 5 ErrMin= 2.77D-04
 ErrMax= 2.77D-04  0.00D+00 EMaxC= 1.00D-01 BMatC= 1.48D-05 BMatP= 2.60D-04
 IDIUse=3 WtCom= 9.97D-01 WtEn= 2.77D-03
 Coeff-Com:  0.295D-02-0.127D-01-0.715D-01-0.105D+00 0.119D+01
 Coeff-En:   0.000D+00 0.000D+00 0.000D+00 0.000D+00 0.100D+01
 Coeff:      0.294D-02-0.126D-01-0.713D-01-0.105D+00 0.119D+01
 Gap=     0.324 Goal=   None    Shift=    0.000
 RMSDP=7.48D-05 MaxDP=3.30D-03 DE=-2.71D-04 OVMax= 3.71D-03

 Cycle   6  Pass 1  IDiag  1:
 E= -370.729547626978     Delta-E=       -0.000044836739 Rises=F Damp=F
 DIIS: error= 1.59D-04 at cycle   6 NSaved=   6.
 NSaved= 6 IEnMin= 6 EnMin= -370.729547626978     IErMin= 6 ErrMin= 1.59D-04
 ErrMax= 1.59D-04  0.00D+00 EMaxC= 1.00D-01 BMatC= 1.64D-06 BMatP= 1.48D-05
 IDIUse=3 WtCom= 9.98D-01 WtEn= 1.59D-03
 Coeff-Com: -0.265D-04 0.393D-02 0.134D-01-0.578D-01-0.306D+00 0.135D+01
 Coeff-En:   0.000D+00 0.000D+00 0.000D+00 0.000D+00 0.000D+00 0.100D+01
 Coeff:     -0.265D-04 0.392D-02 0.134D-01-0.577D-01-0.306D+00 0.135D+01
 Gap=     0.324 Goal=   None    Shift=    0.000
 RMSDP=3.00D-05 MaxDP=1.99D-03 DE=-4.48D-05 OVMax= 1.96D-03

 Cycle   7  Pass 1  IDiag  1:
 E= -370.729554748007     Delta-E=       -0.000007121030 Rises=F Damp=F
 DIIS: error= 3.79D-05 at cycle   7 NSaved=   7.
 NSaved= 7 IEnMin= 7 EnMin= -370.729554748007     IErMin= 7 ErrMin= 3.79D-05
 ErrMax= 3.79D-05  0.00D+00 EMaxC= 1.00D-01 BMatC= 1.63D-07 BMatP= 1.64D-06
 IDIUse=1 WtCom= 1.00D+00 WtEn= 0.00D+00
 Coeff-Com: -0.324D-03 0.521D-03 0.499D-02 0.248D-01-0.817D-01-0.227D+00
 Coeff-Com:  0.128D+01
 Coeff:     -0.324D-03 0.521D-03 0.499D-02 0.248D-01-0.817D-01-0.227D+00
 Coeff:      0.128D+01
 Gap=     0.324 Goal=   None    Shift=    0.000
 RMSDP=8.36D-06 MaxDP=3.67D-04 DE=-7.12D-06 OVMax= 6.21D-04

 Cycle   8  Pass 1  IDiag  1:
 E= -370.729555503410     Delta-E=       -0.000000755403 Rises=F Damp=F
 DIIS: error= 1.25D-05 at cycle   8 NSaved=   8.
 NSaved= 8 IEnMin= 8 EnMin= -370.729555503410     IErMin= 8 ErrMin= 1.25D-05
 ErrMax= 1.25D-05  0.00D+00 EMaxC= 1.00D-01 BMatC= 1.87D-08 BMatP= 1.63D-07
 IDIUse=1 WtCom= 1.00D+00 WtEn= 0.00D+00
 Coeff-Com:  0.806D-05-0.489D-03-0.108D-02 0.917D-02 0.286D-01-0.170D+00
 Coeff-Com:  0.990D-01 0.103D+01
 Coeff:      0.806D-05-0.489D-03-0.108D-02 0.917D-02 0.286D-01-0.170D+00
 Coeff:      0.990D-01 0.103D+01
 Gap=     0.324 Goal=   None    Shift=    0.000
 RMSDP=1.94D-06 MaxDP=5.60D-05 DE=-7.55D-07 OVMax= 1.74D-04

 Cycle   9  Pass 1  IDiag  1:
 E= -370.729555561287     Delta-E=       -0.000000057877 Rises=F Damp=F
 DIIS: error= 4.43D-06 at cycle   9 NSaved=   9.
 NSaved= 9 IEnMin= 9 EnMin= -370.729555561287     IErMin= 9 ErrMin= 4.43D-06
 ErrMax= 4.43D-06  0.00D+00 EMaxC= 1.00D-01 BMatC= 2.12D-09 BMatP= 1.87D-08
 IDIUse=1 WtCom= 1.00D+00 WtEn= 0.00D+00
 Coeff-Com:  0.173D-04 0.298D-04 0.144D-04-0.463D-02 0.914D-03 0.593D-01
 Coeff-Com: -0.157D+00-0.190D+00 0.129D+01
 Coeff:      0.173D-04 0.298D-04 0.144D-04-0.463D-02 0.914D-03 0.593D-01
 Coeff:     -0.157D+00-0.190D+00 0.129D+01
 Gap=     0.324 Goal=   None    Shift=    0.000
 RMSDP=8.14D-07 MaxDP=2.74D-05 DE=-5.79D-08 OVMax= 4.58D-05

 Cycle  10  Pass 1  IDiag  1:
 E= -370.729555567129     Delta-E=       -0.000000005841 Rises=F Damp=F
 DIIS: error= 8.83D-07 at cycle  10 NSaved=  10.
 NSaved=10 IEnMin=10 EnMin= -370.729555567129     IErMin=10 ErrMin= 8.83D-07
 ErrMax= 8.83D-07  0.00D+00 EMaxC= 1.00D-01 BMatC= 7.49D-11 BMatP= 2.12D-09
 IDIUse=1 WtCom= 1.00D+00 WtEn= 0.00D+00
 Coeff-Com: -0.360D-05 0.168D-04-0.566D-06 0.478D-03-0.121D-02-0.329D-02
 Coeff-Com:  0.274D-01-0.164D-01-0.277D+00 0.127D+01
 Coeff:     -0.360D-05 0.168D-04-0.566D-06 0.478D-03-0.121D-02-0.329D-02
 Coeff:      0.274D-01-0.164D-01-0.277D+00 0.127D+01
 Gap=     0.324 Goal=   None    Shift=    0.000
 RMSDP=1.63D-07 MaxDP=5.55D-06 DE=-5.84D-09 OVMax= 9.52D-06

 Cycle  11  Pass 1  IDiag  1:
 E= -370.729555567371     Delta-E=       -0.000000000243 Rises=F Damp=F
 DIIS: error= 1.45D-07 at cycle  11 NSaved=  11.
 NSaved=11 IEnMin=11 EnMin= -370.729555567371     IErMin=11 ErrMin= 1.45D-07
 ErrMax= 1.45D-07  0.00D+00 EMaxC= 1.00D-01 BMatC= 3.62D-12 BMatP= 7.49D-11
 IDIUse=1 WtCom= 1.00D+00 WtEn= 0.00D+00
 Coeff-Com: -0.239D-06-0.272D-05 0.122D-04 0.114D-03 0.569D-05-0.146D-02
 Coeff-Com:  0.152D-02 0.860D-02 0.696D-02-0.298D+00 0.128D+01
 Coeff:     -0.239D-06-0.272D-05 0.122D-04 0.114D-03 0.569D-05-0.146D-02
 Coeff:      0.152D-02 0.860D-02 0.696D-02-0.298D+00 0.128D+01
 Gap=     0.324 Goal=   None    Shift=    0.000
 RMSDP=3.00D-08 MaxDP=7.82D-07 DE=-2.43D-10 OVMax= 1.90D-06

 Cycle  12  Pass 1  IDiag  1:
 E= -370.729555567382     Delta-E=       -0.000000000011 Rises=F Damp=F
 DIIS: error= 4.12D-08 at cycle  12 NSaved=  12.
 NSaved=12 IEnMin=12 EnMin= -370.729555567382     IErMin=12 ErrMin= 4.12D-08
 ErrMax= 4.12D-08  0.00D+00 EMaxC= 1.00D-01 BMatC= 2.36D-13 BMatP= 3.62D-12
 IDIUse=1 WtCom= 1.00D+00 WtEn= 0.00D+00
 Coeff-Com:  0.259D-06-0.623D-06 0.229D-05-0.414D-04 0.505D-04 0.288D-03
 Coeff-Com: -0.176D-02 0.507D-03 0.182D-01-0.794D-01-0.184D-01 0.108D+01
 Coeff:      0.259D-06-0.623D-06 0.229D-05-0.414D-04 0.505D-04 0.288D-03
 Coeff:     -0.176D-02 0.507D-03 0.182D-01-0.794D-01-0.184D-01 0.108D+01
 Gap=     0.324 Goal=   None    Shift=    0.000
 RMSDP=9.89D-09 MaxDP=3.90D-07 DE=-1.07D-11 OVMax= 4.03D-07

 SCF Done:  E(RHF) =  -370.729555567     A.U. after   12 cycles
            NFock= 12  Conv=0.99D-08     -V/T= 2.9875
 KE= 1.865276781387D+02 PE=-9.086420091874D+02 EE= 3.036719331605D+02
 Leave Link  502 at Tue Oct 12 16:25:32 2021, MaxMem=  1048576000 cpu:        19.5
 (Enter /usr/local/gaussian/g09/l801.exe)
 ExpMin= 2.53D-02 ExpMax= 1.53D+04 ExpMxC= 5.22D+02 IAcc=3 IRadAn=         5 AccDes= 0.00D+00
 HarFok:  IExCor=  205 AccDes= 0.00D+00 IRadAn=         5 IDoV=-2 UseB2=F ITyADJ=14
 ICtDFT= 12500011 ScaDFX=  1.000000  1.000000  1.000000  1.000000
 Defaulting to unpruned grid for atomic number  53.
 Defaulting to unpruned grid for atomic number  53.
 Defaulting to unpruned grid for atomic number  53.
 Defaulting to unpruned grid for atomic number  53.
 Defaulting to unpruned grid for atomic number  53.
 Defaulting to unpruned grid for atomic number  53.
 Defaulting to unpruned grid for atomic number  53.
 Defaulting to unpruned grid for atomic number  53.
 Defaulting to unpruned grid for atomic number  53.
 Defaulting to unpruned grid for atomic number  53.
 Defaulting to unpruned grid for atomic number  53.
 Defaulting to unpruned grid for atomic number  53.
 Largest valence mixing into a core orbital is  1.31D-04
 Largest core mixing into a valence orbital is  2.45D-05
 Range of M.O.s used for correlation:     6   147
 NBasis=   191 NAE=    18 NBE=    18 NFC=     5 NFV=     0
 NROrb=    142 NOA=    13 NOB=    13 NVA=   129 NVB=   129

 **** Warning!!: The largest alpha MO coefficient is  0.18577289D+02

 Leave Link  801 at Tue Oct 12 16:25:32 2021, MaxMem=  1048576000 cpu:         0.8
 (Enter /usr/local/gaussian/g09/l906.exe)
 Frozen-core derivative calculation, NFC=   5 NFV=   0.
 FulOut=F Deriv=T AODrv=F NAtomX=     4
   MMem=         196  MDisk=          13 MDiskD=          13
  W3Min=      576828 MinDsk=     1313419 NBas6D=         218
 NBas2D=       24339    NTT=       23871    LW2=    26219120
    MDV=  1048236542 MDiskM=       23996 NBas2p=       24339
 Fully in-core method, ICMem=   672878533.
 IMap=   1   2   3   4   5   6   7   8   9  10  11  12  13  14  15  16  17  18
 JobTyp=1 Pass  1 fully in-core, NPsUse= 12.
 Compute canonical integrals.
 FoFCou: FMM=F IPFlag=           0 FMFlag=           0 FMFlg1=           0
         NFxFlg=           0 DoJE=F BraDBF=F KetDBF=F FulRan=T
         wScrn=  0.000000 ICntrl=     600 IOpCl=  1 I1Cent=           0 NGrid=           0
         NMat0=    1 NMatS0=  24339 NMatT0=    0 NMatD0=    1 NMtDS0=    0 NMtDT0=    0
 Symmetry not used in FoFCou.
 Spin components of T(2) and E(2):
     alpha-alpha T2 =       0.2450025615D-01 E2=     -0.7162606521D-01
     alpha-beta  T2 =       0.1283131524D+00 E2=     -0.3805438669D+00
     beta-beta   T2 =       0.2450025615D-01 E2=     -0.7162606521D-01
 The integrals were generated   1 times.
 ANorm=    0.1085040859D+01
 E2 =    -0.5237959973D+00 EUMP2 =    -0.37125335156470D+03
 Leave Link  906 at Tue Oct 12 16:25:40 2021, MaxMem=  1048576000 cpu:       101.3
 (Enter /usr/local/gaussian/g09/l1002.exe)
 Minotr:  Closed shell wavefunction.
          Computing MP2/KS-MP2 derivatives.
          Using Z-Vector for PSCF gradient.
          Skipping F1 and S1 gradient terms here.
          Frozen-core window.
          Direct CPHF calculation.
          Differentiating once with respect to electric field.
                with respect to dipole field.
          Electric field/nuclear overlap derivatives assumed to be zero.
          Requested convergence is 1.0D-10 RMS, and 1.0D-09 maximum.
          NewPWx=F KeepS1=T KeepF1=T KeepIn=T MapXYZ=F SortEE=F KeepMc=T.
          MDV=    1048575822 using IRadAn=       0.
 Keep R1 ints in memory in canonical form, NReq=176526549.
 FoFCou: FMM=F IPFlag=           0 FMFlag=           0 FMFlg1=           0
         NFxFlg=           0 DoJE=F BraDBF=F KetDBF=F FulRan=T
         wScrn=  0.000000 ICntrl=     600 IOpCl=  0 I1Cent=           0 NGrid=           0
         NMat0=    1 NMatS0=  18336 NMatT0=    0 NMatD0=    1 NMtDS0=    0 NMtDT0=    0
 Symmetry not used in FoFCou.
          Solving linear equations separately, MaxMat=       0.
          There are     1 degrees of freedom in the 1st order CPHF.  IDoFFX=0 NUNeed=     1.
 LinEq1:  Iter=  0 NonCon=     1 RMS=4.09D-03 Max=9.01D-02 NDo=     1
 AX will form     1 AO Fock derivatives at one time.
 LinEq1:  Iter=  1 NonCon=     1 RMS=7.49D-04 Max=1.15D-02 NDo=     1
 LinEq1:  Iter=  2 NonCon=     1 RMS=3.04D-04 Max=4.48D-03 NDo=     1
 LinEq1:  Iter=  3 NonCon=     1 RMS=1.21D-04 Max=1.47D-03 NDo=     1
 LinEq1:  Iter=  4 NonCon=     1 RMS=5.89D-05 Max=9.59D-04 NDo=     1
 LinEq1:  Iter=  5 NonCon=     1 RMS=9.60D-06 Max=1.12D-04 NDo=     1
 LinEq1:  Iter=  6 NonCon=     1 RMS=2.08D-06 Max=2.09D-05 NDo=     1
 LinEq1:  Iter=  7 NonCon=     1 RMS=6.00D-07 Max=9.69D-06 NDo=     1
 LinEq1:  Iter=  8 NonCon=     1 RMS=1.75D-07 Max=2.06D-06 NDo=     1
 LinEq1:  Iter=  9 NonCon=     1 RMS=3.90D-08 Max=6.36D-07 NDo=     1
 LinEq1:  Iter= 10 NonCon=     1 RMS=7.55D-09 Max=9.72D-08 NDo=     1
 LinEq1:  Iter= 11 NonCon=     1 RMS=1.30D-09 Max=1.38D-08 NDo=     1
 LinEq1:  Iter= 12 NonCon=     1 RMS=3.25D-10 Max=4.12D-09 NDo=     1
 LinEq1:  Iter= 13 NonCon=     1 RMS=9.76D-11 Max=1.05D-09 NDo=     1
 LinEq1:  Iter= 14 NonCon=     0 RMS=1.63D-11 Max=1.24D-10 NDo=     1
 Linear equations converged to 1.000D-10 1.000D-09 after    14 iterations.
 End of Minotr F.D. properties file   721 does not exist.
 End of Minotr F.D. properties file   722 does not exist.
 End of Minotr F.D. properties file   788 does not exist.
 Leave Link 1002 at Tue Oct 12 16:25:45 2021, MaxMem=  1048576000 cpu:        18.8
 (Enter /usr/local/gaussian/g09/l601.exe)
 Copying SCF densities to generalized density rwf, IOpCl= 0 IROHF=0.

 **********************************************************************

            Population analysis using the MP2 density.

 **********************************************************************

 Alpha  occ. eigenvalues --  -20.32956  -7.50887  -5.33601  -5.33339  -5.33334
 Alpha  occ. eigenvalues --   -2.06402  -2.06260  -2.06254  -2.05967  -2.05967
 Alpha  occ. eigenvalues --   -1.04964  -0.67488  -0.40151  -0.32305  -0.25396
 Alpha  occ. eigenvalues --   -0.17849  -0.17769  -0.17634
 Alpha virt. eigenvalues --    0.14784   0.16720   0.22503   0.23766   0.23959
 Alpha virt. eigenvalues --    0.28353   0.30240   0.31216   0.31594   0.34372
 Alpha virt. eigenvalues --    0.35783   0.35858   0.36217   0.38863   0.39563
 Alpha virt. eigenvalues --    0.44432   0.45799   0.46351   0.49423   0.55447
 Alpha virt. eigenvalues --    0.57644   0.62641   0.65824   0.70371   0.74746
 Alpha virt. eigenvalues --    0.74824   0.75847   0.76865   0.76965   0.78055
 Alpha virt. eigenvalues --    0.81543   0.82840   0.84074   0.85563   0.85591
 Alpha virt. eigenvalues --    0.86027   0.88168   0.92425   0.93154   0.94469
 Alpha virt. eigenvalues --    0.95634   1.00664   1.04623   1.09030   1.10112
 Alpha virt. eigenvalues --    1.12672   1.14589   1.14872   1.19103   1.22023
 Alpha virt. eigenvalues --    1.24062   1.25182   1.25889   1.37377   1.37698
 Alpha virt. eigenvalues --    1.50332   1.50372   1.51877   1.57116   1.68172
 Alpha virt. eigenvalues --    1.71632   1.71700   1.72089   1.72538   1.73427
 Alpha virt. eigenvalues --    1.75592   1.75882   1.82542   1.88299   1.91148
 Alpha virt. eigenvalues --    1.97677   2.01908   2.02352   2.02753   2.05755
 Alpha virt. eigenvalues --    2.11439   2.17309   2.34530   2.43305   2.51321
 Alpha virt. eigenvalues --    2.56753   2.57443   2.61644   2.63319   2.73434
 Alpha virt. eigenvalues --    2.78829   2.85980   2.87391   2.98323   3.02211
 Alpha virt. eigenvalues --    3.18894   3.41785   3.41835   3.61979   3.90892
 Alpha virt. eigenvalues --    4.13038   4.13873   4.31264   4.31956   4.39522
 Alpha virt. eigenvalues --    4.39529   4.43608   4.50997   4.54129   4.58962
 Alpha virt. eigenvalues --    4.60031   4.72406   4.83421   5.07876   5.19182
 Alpha virt. eigenvalues --    5.40404   5.52031   5.59556   5.91145   6.50887
 Alpha virt. eigenvalues --    6.92747   7.01600   7.07505   7.09655   7.43641
 Alpha virt. eigenvalues --    7.47502   7.51860   7.54545   7.55732   7.75846
 Alpha virt. eigenvalues --    7.84818   8.46816  14.49822  59.17794
          Condensed to atoms (all electrons):
               1          2          3          4
     1  O    8.432929   0.200444  -0.126006   0.194190
     2  H    0.200444   0.629277  -0.004367   0.029950
     3  I   -0.126006  -0.004367  25.670980  -0.005457
     4  H    0.194190   0.029950  -0.005457   0.689307
 Mulliken charges:
               1
     1  O   -0.701557
     2  H    0.144696
     3  I   -0.535150
     4  H    0.092011
 Sum of Mulliken charges =  -1.00000
 Mulliken charges with hydrogens summed into heavy atoms:
               1
     1  O   -0.464850
     3  I   -0.535150
 Electronic spatial extent (au):  <R**2>=           1227.1987
 Charge=             -1.0000 electrons
 Dipole moment (field-independent basis, Debye):
    X=              3.0685    Y=              9.3877    Z=              0.0000  Tot=              9.8764
 Quadrupole moment (field-independent basis, Debye-Ang):
   XX=            -40.1051   YY=            -75.8713   ZZ=            -41.2678
   XY=             -6.9431   XZ=             -0.0000   YZ=             -0.0000
 Traceless Quadrupole moment (field-independent basis, Debye-Ang):
   XX=             12.3096   YY=            -23.4566   ZZ=             11.1469
   XY=             -6.9431   XZ=             -0.0000   YZ=             -0.0000
 Octapole moment (field-independent basis, Debye-Ang**2):
  XXX=             69.7925  YYY=            451.5888  ZZZ=              0.0000  XYY=             46.7027
  XXY=            115.6981  XXZ=              0.0000  XZZ=             22.3303  YZZ=            110.6556
  YYZ=              0.0000  XYZ=              0.0000
 Hexadecapole moment (field-independent basis, Debye-Ang**3):
 XXXX=           -168.5053 YYYY=          -2717.0345 ZZZZ=            -70.2239 XXXY=           -240.6584
 XXXZ=             -0.0000 YYYX=           -314.2676 YYYZ=             -0.0000 ZZZX=             -0.0000
 ZZZY=             -0.0000 XXYY=           -434.2059 XXZZ=            -40.0127 YYZZ=           -401.8107
 XXYZ=             -0.0000 YYXZ=             -0.0000 ZZXY=            -79.1444
 N-N= 4.771284232079D+01 E-N=-9.080707866711D+02  KE= 1.867661258294D+02
 No NMR shielding tensors so no spin-rotation constants.
 Leave Link  601 at Tue Oct 12 16:25:45 2021, MaxMem=  1048576000 cpu:         2.2
 (Enter /usr/local/gaussian/g09/l607.exe)
 ******************************Gaussian NBO Version 3.1******************************
             N A T U R A L   A T O M I C   O R B I T A L   A N D
          N A T U R A L   B O N D   O R B I T A L   A N A L Y S I S
 ******************************Gaussian NBO Version 3.1******************************
       /RESON  / : Allow strongly delocalized NBO set

 Analyzing the MP2 density

 Job title: title                                                           

 Storage needed:    110417 in NPA,    146568 in NBO (1048575904 available)


 NATURAL POPULATIONS:  Natural atomic orbital occupancies 
                                                          
   NAO  Atom  No  lang   Type(AO)    Occupancy
 --------------------------------------------
     1    O    1  S      Cor( 1S)     1.99992
     2    O    1  S      Val( 2S)     1.91492
     3    O    1  S      Ryd( 3S)     0.00799
     4    O    1  S      Ryd( 4S)     0.00038
     5    O    1  S      Ryd( 5S)     0.00018
     6    O    1  px     Val( 2p)     1.66721
     7    O    1  px     Ryd( 3p)     0.01644
     8    O    1  px     Ryd( 4p)     0.00057
     9    O    1  px     Ryd( 5p)     0.00019
    10    O    1  py     Val( 2p)     1.77450
    11    O    1  py     Ryd( 3p)     0.01679
    12    O    1  py     Ryd( 4p)     0.00057
    13    O    1  py     Ryd( 5p)     0.00010
    14    O    1  pz     Val( 2p)     1.94974
    15    O    1  pz     Ryd( 3p)     0.02597
    16    O    1  pz     Ryd( 4p)     0.00057
    17    O    1  pz     Ryd( 5p)     0.00000
    18    O    1  dxy    Ryd( 3d)     0.00816
    19    O    1  dxy    Ryd( 4d)     0.00050
    20    O    1  dxy    Ryd( 5d)     0.00009
    21    O    1  dxz    Ryd( 3d)     0.00887
    22    O    1  dxz    Ryd( 4d)     0.00052
    23    O    1  dxz    Ryd( 5d)     0.00008
    24    O    1  dyz    Ryd( 3d)     0.00663
    25    O    1  dyz    Ryd( 4d)     0.00059
    26    O    1  dyz    Ryd( 5d)     0.00009
    27    O    1  dx2y2  Ryd( 3d)     0.00980
    28    O    1  dx2y2  Ryd( 4d)     0.00053
    29    O    1  dx2y2  Ryd( 5d)     0.00011
    30    O    1  dz2    Ryd( 3d)     0.00740
    31    O    1  dz2    Ryd( 4d)     0.00066
    32    O    1  dz2    Ryd( 5d)     0.00012
    33    O    1  f(0)   Ryd( 4f)     0.00062
    34    O    1  f(0)   Ryd( 5f)     0.00011
    35    O    1  f(C1)  Ryd( 4f)     0.00052
    36    O    1  f(C1)  Ryd( 5f)     0.00010
    37    O    1  f(S1)  Ryd( 4f)     0.00063
    38    O    1  f(S1)  Ryd( 5f)     0.00014
    39    O    1  f(C2)  Ryd( 4f)     0.00052
    40    O    1  f(C2)  Ryd( 5f)     0.00011
    41    O    1  f(S2)  Ryd( 4f)     0.00048
    42    O    1  f(S2)  Ryd( 5f)     0.00008
    43    O    1  f(C3)  Ryd( 4f)     0.00046
    44    O    1  f(C3)  Ryd( 5f)     0.00013
    45    O    1  f(S3)  Ryd( 4f)     0.00050
    46    O    1  f(S3)  Ryd( 5f)     0.00012

    47    H    2  S      Val( 1S)     0.34085
    48    H    2  S      Ryd( 2S)     0.00391
    49    H    2  S      Ryd( 3S)     0.00034
    50    H    2  S      Ryd( 4S)     0.00010
    51    H    2  px     Ryd( 2p)     0.00275
    52    H    2  px     Ryd( 3p)     0.00089
    53    H    2  px     Ryd( 4p)     0.00009
    54    H    2  py     Ryd( 2p)     0.00299
    55    H    2  py     Ryd( 3p)     0.00036
    56    H    2  py     Ryd( 4p)     0.00013
    57    H    2  pz     Ryd( 2p)     0.00531
    58    H    2  pz     Ryd( 3p)     0.00023
    59    H    2  pz     Ryd( 4p)     0.00006
    60    H    2  dxy    Ryd( 3d)     0.00007
    61    H    2  dxy    Ryd( 4d)     0.00006
    62    H    2  dxz    Ryd( 3d)     0.00009
    63    H    2  dxz    Ryd( 4d)     0.00008
    64    H    2  dyz    Ryd( 3d)     0.00012
    65    H    2  dyz    Ryd( 4d)     0.00007
    66    H    2  dx2y2  Ryd( 3d)     0.00010
    67    H    2  dx2y2  Ryd( 4d)     0.00008
    68    H    2  dz2    Ryd( 3d)     0.00012
    69    H    2  dz2    Ryd( 4d)     0.00009

    70    I    3  S      Cor( 4S)     1.99975
    71    I    3  S      Val( 5S)     1.96583
    72    I    3  S      Ryd( 6S)     0.00144
    73    I    3  S      Ryd( 7S)     0.00040
    74    I    3  S      Ryd( 8S)     0.00016
    75    I    3  S      Ryd( 9S)     0.00001
    76    I    3  px     Cor( 4p)     2.00000
    77    I    3  px     Val( 5p)     1.94395
    78    I    3  px     Ryd( 6p)     0.00981
    79    I    3  px     Ryd( 7p)     0.00069
    80    I    3  px     Ryd( 8p)     0.00007
    81    I    3  py     Cor( 4p)     1.99984
    82    I    3  py     Val( 5p)     1.76877
    83    I    3  py     Ryd( 6p)     0.00893
    84    I    3  py     Ryd( 7p)     0.00073
    85    I    3  py     Ryd( 8p)     0.00018
    86    I    3  pz     Cor( 4p)     2.00001
    87    I    3  pz     Val( 5p)     1.95213
    88    I    3  pz     Ryd( 6p)     0.00982
    89    I    3  pz     Ryd( 7p)     0.00067
    90    I    3  pz     Ryd( 8p)     0.00005
    91    I    3  dxy    Cor( 4d)     1.99671
    92    I    3  dxy    Ryd( 5d)     0.01931
    93    I    3  dxy    Ryd( 6d)     0.00119
    94    I    3  dxy    Ryd( 7d)     0.00023
    95    I    3  dxz    Cor( 4d)     1.99679
    96    I    3  dxz    Ryd( 5d)     0.01944
    97    I    3  dxz    Ryd( 6d)     0.00154
    98    I    3  dxz    Ryd( 7d)     0.00014
    99    I    3  dyz    Cor( 4d)     1.99674
   100    I    3  dyz    Ryd( 5d)     0.01901
   101    I    3  dyz    Ryd( 6d)     0.00117
   102    I    3  dyz    Ryd( 7d)     0.00024
   103    I    3  dx2y2  Cor( 4d)     1.99663
   104    I    3  dx2y2  Ryd( 5d)     0.02058
   105    I    3  dx2y2  Ryd( 6d)     0.00141
   106    I    3  dx2y2  Ryd( 7d)     0.00015
   107    I    3  dz2    Cor( 4d)     1.99674
   108    I    3  dz2    Ryd( 5d)     0.01999
   109    I    3  dz2    Ryd( 6d)     0.00152
   110    I    3  dz2    Ryd( 7d)     0.00014
   111    I    3  f(0)   Ryd( 4f)     0.00267
   112    I    3  f(0)   Ryd( 5f)     0.00040
   113    I    3  f(C1)  Ryd( 4f)     0.00272
   114    I    3  f(C1)  Ryd( 5f)     0.00040
   115    I    3  f(S1)  Ryd( 4f)     0.00282
   116    I    3  f(S1)  Ryd( 5f)     0.00040
   117    I    3  f(C2)  Ryd( 4f)     0.00263
   118    I    3  f(C2)  Ryd( 5f)     0.00040
   119    I    3  f(S2)  Ryd( 4f)     0.00268
   120    I    3  f(S2)  Ryd( 5f)     0.00040
   121    I    3  f(C3)  Ryd( 4f)     0.00268
   122    I    3  f(C3)  Ryd( 5f)     0.00040
   123    I    3  f(S3)  Ryd( 4f)     0.00279
   124    I    3  f(S3)  Ryd( 5f)     0.00040

   125    H    4  S      Val( 1S)     0.41904
   126    H    4  S      Ryd( 2S)     0.00393
   127    H    4  S      Ryd( 3S)     0.00037
   128    H    4  S      Ryd( 4S)     0.00025
   129    H    4  px     Ryd( 2p)     0.00447
   130    H    4  px     Ryd( 3p)     0.00041
   131    H    4  px     Ryd( 4p)     0.00006
   132    H    4  py     Ryd( 2p)     0.00479
   133    H    4  py     Ryd( 3p)     0.00133
   134    H    4  py     Ryd( 4p)     0.00015
   135    H    4  pz     Ryd( 2p)     0.00478
   136    H    4  pz     Ryd( 3p)     0.00032
   137    H    4  pz     Ryd( 4p)     0.00006
   138    H    4  dxy    Ryd( 3d)     0.00040
   139    H    4  dxy    Ryd( 4d)     0.00007
   140    H    4  dxz    Ryd( 3d)     0.00025
   141    H    4  dxz    Ryd( 4d)     0.00004
   142    H    4  dyz    Ryd( 3d)     0.00042
   143    H    4  dyz    Ryd( 4d)     0.00007
   144    H    4  dx2y2  Ryd( 3d)     0.00025
   145    H    4  dx2y2  Ryd( 4d)     0.00013
   146    H    4  dz2    Ryd( 3d)     0.00025
   147    H    4  dz2    Ryd( 4d)     0.00007

 [ 28 electrons found in the effective core potential]

 WARNING:  5 low occupancy (<1.9990e) core orbitals found on  I    3


 Summary of Natural Population Analysis:                  
                                                          
                                       Natural Population 
                Natural  -----------------------------------------------
    Atom  No    Charge         Core      Valence    Rydberg      Total
 -----------------------------------------------------------------------
      O    1   -1.42471      1.99992     7.30637    0.11841     9.42471
      H    2    0.64113      0.00000     0.34085    0.01803     0.35887
      I    3   -0.77468     45.98319     7.63068    0.16080    53.77468
      H    4    0.55807      0.00000     0.41904    0.02289     0.44193
 =======================================================================
   * Total *   -1.00019     47.98312    15.69694    0.32013    64.00019

                                 Natural Population      
 --------------------------------------------------------
   Effective Core            28.00000
   Core                      19.98312 ( 99.9156% of  20)
   Valence                   15.69694 ( 98.1059% of  16)
   Natural Minimal Basis     63.68006 ( 99.5001% of  64)
   Natural Rydberg Basis      0.32013 (  0.5002% of  64)
 --------------------------------------------------------

    Atom  No          Natural Electron Configuration
 ----------------------------------------------------------------------------
      O    1      [core]2S( 1.91)2p( 5.39)3S( 0.01)3p( 0.06)3d( 0.04)
      H    2            1S( 0.34)2p( 0.01)
      I    3      [core]5S( 1.97)5p( 5.66)4f( 0.02)5d( 0.10)6p( 0.03)6d( 0.01)
      H    4            1S( 0.42)2p( 0.01)


 NATURAL BOND ORBITAL ANALYSIS:
 Warning:  a bond orbital has occupanc of -0.00002
 Warning:  a bond orbital has occupanc of -0.00038

                       Occupancies       Lewis Structure    Low   High
           Occ.    -------------------  -----------------   occ   occ
  Cycle   Thresh.   Lewis   Non-Lewis     CR  BD  3C  LP    (L)   (NL)   Dev
 =============================================================================
   1(1)    1.90    63.44437   0.55563     10   2   0   6     1      1    0.30
 Warning:  a bond orbital has occupanc of -0.00002
 Warning:  a bond orbital has occupanc of -0.00038
   2(2)    1.90    63.45566   0.54434     10   2   0   6     1      1    0.28
 Warning:  a bond orbital has occupanc of -0.00002
 Warning:  a bond orbital has occupanc of -0.00038
   3(3)    1.90    63.44437   0.55563     10   2   0   6     1      1    0.30
 Warning:  a bond orbital has occupanc of -0.00002
 Warning:  a bond orbital has occupanc of -0.00038
   4(4)    1.90    63.45566   0.54434     10   2   0   6     1      1    0.28
 Warning:  a bond orbital has occupanc of -0.00002
 Warning:  a bond orbital has occupanc of -0.00038
   5(1)    1.80    63.45566   0.54434     10   2   0   6     1      1    0.28
 Warning:  a bond orbital has occupanc of -0.00002
 Warning:  a bond orbital has occupanc of -0.00038
   6(2)    1.80    63.44437   0.55563     10   2   0   6     1      1    0.30
 Warning:  a bond orbital has occupanc of -0.00002
 Warning:  a bond orbital has occupanc of -0.00038
   7(3)    1.80    63.45566   0.54434     10   2   0   6     1      1    0.28
 Warning:  a bond orbital has occupanc of -0.00002
 Warning:  a bond orbital has occupanc of -0.00038
   8(1)    1.70    63.25931   0.74069     10   1   0   7     0      1    0.30
 Warning:  a bond orbital has occupanc of -0.00002
 Warning:  a bond orbital has occupanc of -0.00038
   9(2)    1.70    63.25931   0.74069     10   1   0   7     0      1    0.30
 Warning:  a bond orbital has occupanc of -0.00002
 Warning:  a bond orbital has occupanc of -0.00038
  10(1)    1.60    62.94161   1.05839     10   0   0   8     0      2    0.53
 Warning:  a bond orbital has occupanc of -0.00002
 Warning:  a bond orbital has occupanc of -0.00038
  11(2)    1.60    62.94161   1.05839     10   0   0   8     0      2    0.53
 Warning:  a bond orbital has occupanc of -0.00002
 Warning:  a bond orbital has occupanc of -0.00038
  12(1)    1.50    62.94161   1.05839     10   0   0   8     0      2    0.53
 Warning:  a bond orbital has occupanc of -0.00002
 Warning:  a bond orbital has occupanc of -0.00038
  13(2)    1.50    62.94161   1.05839     10   0   0   8     0      2    0.53
 Warning:  a bond orbital has occupanc of -0.00002
 Warning:  a bond orbital has occupanc of -0.00038
  14(1)    1.90    63.45566   0.54434     10   2   0   6     1      1    0.28
 -----------------------------------------------------------------------------

 Structure accepted: RESONANCE keyword permits strongly delocalized structure

 WARNING:  5 low occupancy (<1.9990e) core orbitals found on  I    3

 --------------------------------------------------------
   Effective Core           28.00000
   Core                     19.98312 ( 99.916% of  20)
   Valence Lewis            15.47255 ( 96.703% of  16)
  ==================       ============================
   Total Lewis              63.45566 ( 99.149% of  64)
  -----------------------------------------------------
   Valence non-Lewis         0.24654 (  0.385% of  64)
   Rydberg non-Lewis         0.29780 (  0.465% of  64)
  ==================       ============================
   Total non-Lewis           0.54434 (  0.851% of  64)
 --------------------------------------------------------


       (Occupancy)   Bond orbital/ Coefficients/ Hybrids
 ---------------------------------------------------------------------------------
     1. (1.95973) BD ( 1) O   1 - H   2  
                ( 83.53%)   0.9140* O   1 s( 15.19%)p 5.56( 84.46%)d 0.02(  0.34%)
                                                  f 0.00(  0.01%)
                                            0.0001  0.3897 -0.0028 -0.0001 -0.0022
                                            0.9142 -0.0315 -0.0066 -0.0081 -0.0883
                                           -0.0042  0.0009 -0.0004  0.0000  0.0000
                                            0.0000  0.0000 -0.0138  0.0043 -0.0023
                                            0.0000  0.0000  0.0000  0.0000  0.0000
                                            0.0000  0.0468 -0.0028  0.0023 -0.0305
                                            0.0011 -0.0003  0.0000  0.0000 -0.0078
                                            0.0003  0.0004 -0.0000  0.0000  0.0000
                                            0.0000  0.0000  0.0048  0.0029  0.0002
                                           -0.0002
                ( 16.47%)   0.4058* H   2 s( 99.62%)p 0.00(  0.38%)d 0.00(  0.01%)
                                            0.9980 -0.0133  0.0005 -0.0006  0.0357
                                           -0.0473 -0.0031 -0.0156  0.0018 -0.0010
                                            0.0000  0.0000  0.0000  0.0006  0.0025
                                            0.0000  0.0000  0.0000  0.0000  0.0037
                                            0.0013 -0.0047 -0.0037
     2. (1.94764) BD ( 1) I   3 - H   4  
                ( 88.68%)   0.9417* I   3 s(  5.53%)p17.04( 94.23%)d 0.04(  0.21%)
                                                  f 0.01(  0.03%)
                                            0.0001  0.2351 -0.0015 -0.0048  0.0012
                                            0.0011  0.0001  0.1984 -0.0033 -0.0018
                                            0.0008  0.0005  0.9500 -0.0157 -0.0072
                                            0.0015  0.0000  0.0000  0.0000  0.0000
                                            0.0000 -0.0000  0.0162  0.0009 -0.0012
                                            0.0000  0.0000  0.0000  0.0000  0.0000
                                            0.0000  0.0000  0.0000  0.0000 -0.0359
                                           -0.0025  0.0021  0.0000 -0.0233 -0.0018
                                            0.0011  0.0000  0.0000 -0.0023 -0.0005
                                           -0.0110 -0.0022  0.0000  0.0000  0.0000
                                            0.0000 -0.0081 -0.0013 -0.0115 -0.0019
                ( 11.32%)   0.3365* H   4 s( 99.50%)p 0.00(  0.46%)d 0.00(  0.04%)
                                            0.9971 -0.0273  0.0012 -0.0082 -0.0079
                                           -0.0095 -0.0007 -0.0531 -0.0395 -0.0046
                                            0.0000  0.0000  0.0000  0.0030  0.0068
                                            0.0000  0.0000  0.0000  0.0000 -0.0048
                                           -0.0151 -0.0059 -0.0091
     3. (1.99993) CR ( 1) O   1           s(100.00%)
                                            1.0000 -0.0002  0.0000  0.0000  0.0000
                                           -0.0001  0.0000  0.0000  0.0000 -0.0000
                                            0.0000 -0.0000 -0.0000  0.0000  0.0000
                                            0.0000  0.0000 -0.0000 -0.0000  0.0000
                                            0.0000  0.0000  0.0000  0.0000  0.0000
                                            0.0000 -0.0000  0.0000 -0.0000  0.0000
                                            0.0000 -0.0000  0.0000  0.0000  0.0000
                                            0.0000  0.0000  0.0000  0.0000  0.0000
                                            0.0000  0.0000 -0.0000 -0.0000 -0.0000
                                            0.0000
     4. (1.99975) CR ( 1) I   3           s(100.00%)
                                            1.0000 -0.0003  0.0000  0.0000 -0.0000
                                           -0.0000 -0.0000 -0.0000  0.0000  0.0000
                                           -0.0000 -0.0000 -0.0001  0.0000  0.0000
                                           -0.0000  0.0000  0.0000  0.0000  0.0000
                                            0.0000  0.0000 -0.0000 -0.0000  0.0000
                                            0.0000  0.0000  0.0000  0.0000  0.0000
                                            0.0000  0.0000  0.0000 -0.0000  0.0000
                                            0.0000 -0.0000 -0.0000  0.0000  0.0000
                                           -0.0000  0.0000  0.0000  0.0000  0.0000
                                            0.0000  0.0000  0.0000  0.0000  0.0000
                                            0.0000  0.0000  0.0000  0.0000  0.0000
     5. (2.00000) CR ( 2) I   3           s(  0.00%)p 1.00(100.00%)
                                           -0.0000  0.0000  0.0000 -0.0000  0.0000
                                           -0.0000  1.0000 -0.0004 -0.0000 -0.0000
                                            0.0000 -0.0000 -0.0000  0.0000  0.0000
                                           -0.0000  0.0000  0.0000  0.0000  0.0000
                                            0.0000  0.0000 -0.0000  0.0000  0.0000
                                            0.0000  0.0000  0.0000  0.0000  0.0000
                                            0.0000  0.0000  0.0000  0.0000  0.0000
                                            0.0000  0.0000 -0.0000  0.0000  0.0000
                                            0.0000  0.0000  0.0000  0.0000  0.0000
                                            0.0000  0.0000  0.0000  0.0000  0.0000
                                            0.0000  0.0000  0.0000 -0.0000 -0.0000
     6. (1.99984) CR ( 3) I   3           s(  0.00%)p 1.00(100.00%)
                                           -0.0000  0.0001  0.0000  0.0000 -0.0000
                                           -0.0000 -0.0000 -0.0000  0.0000  0.0000
                                           -0.0000  1.0000 -0.0005  0.0000  0.0000
                                           -0.0000  0.0000  0.0000  0.0000  0.0000
                                            0.0000  0.0000 -0.0000 -0.0000  0.0000
                                            0.0000  0.0000  0.0000  0.0000  0.0000
                                            0.0000  0.0000  0.0000 -0.0000  0.0000
                                            0.0000 -0.0000 -0.0000  0.0000  0.0000
                                           -0.0000  0.0000  0.0000  0.0000  0.0000
                                            0.0000  0.0000  0.0000  0.0000  0.0000
                                            0.0000  0.0000  0.0000  0.0000  0.0000
     7. (2.00000) CR ( 4) I   3           s(  0.00%)p 1.00(100.00%)
                                            0.0000  0.0000  0.0000  0.0000  0.0000
                                            0.0000  0.0000  0.0000  0.0000  0.0000
                                            0.0000  0.0000  0.0000  0.0000  0.0000
                                            0.0000  1.0000 -0.0004 -0.0000 -0.0000
                                            0.0000  0.0000  0.0000  0.0000  0.0000
                                            0.0000 -0.0000 -0.0000  0.0000  0.0000
                                           -0.0000  0.0000  0.0000  0.0000  0.0000
                                            0.0000  0.0000  0.0000  0.0000  0.0000
                                            0.0000  0.0000  0.0000  0.0000  0.0000
                                            0.0000  0.0000  0.0000  0.0000 -0.0000
                                           -0.0000  0.0000  0.0000  0.0000  0.0000
     8. (1.99671) CR ( 5) I   3           s(  0.00%)p 0.00(  0.00%)d 1.00(100.00%)
                                            0.0000  0.0000 -0.0000 -0.0000 -0.0000
                                            0.0000  0.0000  0.0001  0.0000  0.0000
                                           -0.0000  0.0000  0.0000 -0.0000 -0.0000
                                            0.0000  0.0000  0.0000  0.0000  0.0000
                                            0.0000  1.0000  0.0000 -0.0000 -0.0000
                                            0.0000  0.0000  0.0000  0.0000  0.0000
                                            0.0000  0.0000  0.0000  0.0000 -0.0000
                                           -0.0000 -0.0000  0.0000 -0.0000 -0.0000
                                           -0.0000  0.0000  0.0000 -0.0000 -0.0000
                                           -0.0000 -0.0000  0.0000  0.0000  0.0000
                                            0.0000 -0.0000 -0.0000 -0.0000  0.0000
     9. (1.99679) CR ( 6) I   3           s(  0.00%)p 0.00(  0.00%)d 1.00(100.00%)
                                            0.0000  0.0000  0.0000  0.0000  0.0000
                                            0.0000  0.0000  0.0000  0.0000  0.0000
                                            0.0000  0.0000  0.0000  0.0000  0.0000
                                            0.0000  0.0000  0.0000  0.0000  0.0000
                                           -0.0000  0.0000  0.0000  0.0000  0.0000
                                            1.0000  0.0000  0.0000 -0.0000 -0.0000
                                            0.0000 -0.0000 -0.0000  0.0000  0.0000
                                            0.0000  0.0000  0.0000  0.0000  0.0000
                                            0.0000 -0.0000 -0.0000  0.0000  0.0000
                                            0.0000  0.0000 -0.0000 -0.0000  0.0000
                                            0.0000  0.0000  0.0000  0.0000  0.0000
    10. (1.99674) CR ( 7) I   3           s(  0.00%)p 0.00(  0.00%)d 1.00(100.00%)
                                            0.0000  0.0000  0.0000  0.0000  0.0000
                                            0.0000  0.0000  0.0000  0.0000  0.0000
                                            0.0000  0.0000  0.0000  0.0000  0.0000
                                            0.0000  0.0000  0.0001  0.0000  0.0000
                                           -0.0000  0.0000  0.0000  0.0000  0.0000
                                           -0.0000  0.0000  0.0000 -0.0000  1.0000
                                            0.0000 -0.0000 -0.0000  0.0000  0.0000
                                            0.0000  0.0000  0.0000  0.0000  0.0000
                                            0.0000 -0.0000 -0.0000  0.0000  0.0000
                                            0.0000  0.0000 -0.0000 -0.0000  0.0000
                                            0.0000  0.0000  0.0000  0.0000  0.0000
    11. (1.99663) CR ( 8) I   3           s(  0.00%)p 0.00(  0.00%)d 1.00(100.00%)
                                           -0.0000 -0.0001  0.0000  0.0000 -0.0000
                                           -0.0000  0.0000  0.0000  0.0000  0.0000
                                           -0.0000 -0.0000 -0.0000  0.0000  0.0000
                                           -0.0000  0.0000  0.0000  0.0000  0.0000
                                            0.0000  0.0000 -0.0000 -0.0000 -0.0000
                                            0.0000  0.0000  0.0000  0.0000  0.0000
                                            0.0000  0.0000  0.0000  1.0000  0.0000
                                            0.0000 -0.0000 -0.0000  0.0000  0.0000
                                           -0.0000  0.0000  0.0000  0.0000 -0.0000
                                            0.0000  0.0000  0.0000  0.0000  0.0000
                                            0.0000  0.0000  0.0000  0.0000  0.0000
    12. (1.99674) CR ( 9) I   3           s(  0.00%)p 0.00(  0.00%)d 1.00(100.00%)
                                           -0.0000 -0.0000  0.0000  0.0000 -0.0000
                                           -0.0000 -0.0000 -0.0000  0.0000  0.0000
                                           -0.0000 -0.0000 -0.0000  0.0000  0.0000
                                           -0.0000  0.0000  0.0000  0.0000  0.0000
                                            0.0000  0.0000 -0.0000 -0.0000  0.0000
                                            0.0000  0.0000  0.0000  0.0000  0.0000
                                            0.0000  0.0000  0.0000 -0.0000  0.0000
                                            0.0000 -0.0000  1.0000  0.0000  0.0000
                                           -0.0000  0.0000  0.0000  0.0000  0.0000
                                            0.0000  0.0000  0.0000  0.0000  0.0000
                                            0.0000  0.0000  0.0000  0.0000  0.0000
    13. (1.97172) LP ( 1) O   1           s( 79.39%)p 0.26( 20.58%)d 0.00(  0.04%)
                                                  f 0.00(  0.00%)
                                            0.0002  0.8910 -0.0006 -0.0002  0.0003
                                           -0.3516 -0.0070 -0.0036  0.0023  0.2864
                                            0.0028  0.0033  0.0022  0.0000  0.0000
                                            0.0000  0.0000  0.0163 -0.0022 -0.0004
                                            0.0000  0.0000  0.0000  0.0000  0.0000
                                            0.0000 -0.0054  0.0015 -0.0010  0.0065
                                           -0.0028  0.0025  0.0000  0.0000  0.0014
                                           -0.0012 -0.0006 -0.0000  0.0000  0.0000
                                            0.0000  0.0000  0.0013 -0.0006  0.0016
                                           -0.0002
    14. (1.95386) LP ( 2) O   1           s(  0.00%)p 1.00( 99.83%)d 0.00(  0.16%)
                                                  f 0.00(  0.01%)
                                            0.0000  0.0000  0.0000  0.0000  0.0000
                                            0.0000  0.0000  0.0000  0.0000  0.0000
                                            0.0000  0.0000  0.0000  0.9989  0.0188
                                            0.0035  0.0084  0.0000  0.0000  0.0000
                                            0.0373 -0.0036 -0.0013 -0.0137  0.0021
                                            0.0007  0.0000  0.0000  0.0000  0.0000
                                            0.0000  0.0000 -0.0083  0.0027  0.0000
                                            0.0000  0.0000  0.0000  0.0033  0.0000
                                            0.0012 -0.0004  0.0000  0.0000  0.0000
                                            0.0000
    15. (1.75678) LP ( 3) O   1           s(  5.38%)p17.55( 94.40%)d 0.04(  0.21%)
                                                  f 0.00(  0.01%)
                                           -0.0000  0.2318  0.0073  0.0009  0.0022
                                           -0.1897  0.0098  0.0012  0.0026 -0.9528
                                           -0.0062  0.0004  0.0020 -0.0000 -0.0000
                                           -0.0000 -0.0000 -0.0237  0.0031 -0.0007
                                           -0.0000 -0.0000 -0.0000 -0.0000 -0.0000
                                           -0.0000 -0.0345  0.0083 -0.0028 -0.0167
                                            0.0043 -0.0000 -0.0000 -0.0000  0.0015
                                           -0.0003  0.0084 -0.0037 -0.0000 -0.0000
                                           -0.0000 -0.0000  0.0023 -0.0010 -0.0013
                                           -0.0010
    16. (1.97822) LP ( 1) I   3           s( 94.46%)p 0.06(  5.54%)d 0.00(  0.00%)
                                                  f 0.00(  0.00%)
                                            0.0003  0.9719  0.0003  0.0010 -0.0005
                                           -0.0002 -0.0000 -0.0461  0.0006 -0.0000
                                           -0.0000 -0.0002 -0.2307  0.0019 -0.0003
                                           -0.0004  0.0000  0.0000  0.0000  0.0000
                                            0.0000 -0.0000 -0.0009 -0.0001 -0.0001
                                            0.0000  0.0000  0.0000  0.0000  0.0000
                                            0.0000  0.0000  0.0000  0.0001  0.0021
                                            0.0006  0.0002  0.0000  0.0012  0.0003
                                            0.0002  0.0000  0.0000  0.0001  0.0000
                                            0.0004  0.0003  0.0000  0.0000  0.0000
                                            0.0000  0.0003  0.0002  0.0005  0.0003
    17. (1.95240) LP ( 2) I   3           s(  0.00%)p 1.00( 99.99%)d 0.00(  0.01%)
                                                  f 0.00(  0.00%)
                                            0.0000  0.0000  0.0000  0.0000  0.0000
                                            0.0000  0.0000  0.0000  0.0000  0.0000
                                            0.0000  0.0000  0.0000  0.0000  0.0000
                                            0.0000  0.0004  0.9999  0.0056  0.0025
                                           -0.0004  0.0000  0.0000  0.0000  0.0000
                                           -0.0000  0.0019  0.0002 -0.0003 -0.0001
                                            0.0036 -0.0024 -0.0060  0.0000  0.0000
                                            0.0000  0.0000  0.0000  0.0000  0.0000
                                            0.0000 -0.0038 -0.0017  0.0000  0.0000
                                            0.0000  0.0000 -0.0041 -0.0016  0.0020
                                            0.0010  0.0000  0.0000  0.0000  0.0000
    18. (1.95220) LP ( 3) I   3           s(  0.00%)p 1.00( 99.99%)d 0.00(  0.01%)
                                                  f 0.00(  0.00%)
                                            0.0000  0.0020  0.0002 -0.0013  0.0010
                                            0.0001 -0.0004 -0.9789 -0.0064 -0.0029
                                            0.0009  0.0001  0.2038  0.0008  0.0002
                                            0.0003 -0.0000 -0.0000 -0.0000 -0.0000
                                           -0.0000  0.0001 -0.0041  0.0022  0.0055
                                           -0.0000 -0.0000 -0.0000 -0.0000 -0.0000
                                           -0.0000 -0.0000 -0.0000  0.0000 -0.0034
                                            0.0001  0.0014 -0.0000  0.0005  0.0004
                                            0.0006 -0.0000 -0.0000  0.0016  0.0008
                                           -0.0003  0.0000 -0.0000 -0.0000 -0.0000
                                           -0.0000  0.0044  0.0016 -0.0034 -0.0015
    19. (0.02550) RY*( 1) O   1           s(  0.00%)p 1.00( 99.07%)d 0.01(  0.90%)
                                                  f 0.00(  0.03%)
                                            0.0000  0.0000  0.0000  0.0000  0.0000
                                            0.0000  0.0000  0.0000  0.0000  0.0000
                                            0.0000  0.0000  0.0000 -0.0222  0.9946
                                           -0.0247 -0.0179  0.0000  0.0000  0.0000
                                            0.0769 -0.0197  0.0073 -0.0475  0.0178
                                           -0.0085  0.0000  0.0000  0.0000  0.0000
                                            0.0000  0.0000 -0.0112  0.0113  0.0000
                                            0.0000  0.0000  0.0000  0.0011 -0.0005
                                            0.0000 -0.0014  0.0000  0.0000  0.0000
                                            0.0000
    20. (0.01980) RY*( 2) O   1           s( 10.01%)p 8.82( 88.22%)d 0.17(  1.73%)
                                                  f 0.00(  0.04%)
                                            0.0000 -0.0085  0.3159  0.0048 -0.0122
                                           -0.0085 -0.5304  0.0036  0.0175 -0.0122
                                            0.7748 -0.0016 -0.0030  0.0000  0.0000
                                            0.0000  0.0000  0.1250 -0.0251  0.0098
                                            0.0000  0.0000  0.0000  0.0000  0.0000
                                            0.0000 -0.0009 -0.0079  0.0027  0.0220
                                           -0.0179  0.0090  0.0000  0.0000 -0.0027
                                           -0.0021 -0.0053  0.0068  0.0000  0.0000
                                            0.0000  0.0000  0.0155 -0.0058  0.0064
                                           -0.0011
    21. (0.01311) RY*( 3) O   1           s(  1.53%)p63.55( 96.95%)d 0.90(  1.38%)
                                                  f 0.10(  0.15%)
                                            0.0000 -0.0136  0.1222 -0.0023  0.0116
                                           -0.0286 -0.7919  0.0024  0.0347 -0.0014
                                           -0.5824 -0.0088 -0.0338 -0.0000 -0.0000
                                           -0.0000 -0.0000 -0.0677 -0.0080  0.0037
                                           -0.0000 -0.0000 -0.0000 -0.0000 -0.0000
                                           -0.0000  0.0789  0.0485 -0.0221 -0.0018
                                            0.0029  0.0059 -0.0000 -0.0000 -0.0094
                                           -0.0037  0.0122 -0.0134 -0.0000 -0.0000
                                           -0.0000 -0.0000  0.0288 -0.0138  0.0001
                                           -0.0041
    22. (0.00733) RY*( 4) O   1           s( 64.79%)p 0.10(  6.46%)d 0.44( 28.32%)
                                                  f 0.01(  0.44%)
                                           -0.0000  0.0084  0.8048 -0.0074  0.0075
                                            0.0241  0.2146  0.0066 -0.0152  0.0255
                                           -0.1196 -0.0263 -0.0449  0.0000  0.0000
                                            0.0000  0.0000 -0.3918 -0.0032 -0.0060
                                            0.0000  0.0000  0.0000  0.0000  0.0000
                                            0.0000 -0.3199  0.0131  0.0075  0.1587
                                            0.0399 -0.0158  0.0000  0.0000  0.0183
                                            0.0010  0.0384 -0.0317  0.0000  0.0000
                                            0.0000  0.0000 -0.0312 -0.0003  0.0081
                                           -0.0223
    23. (0.00638) RY*( 5) O   1           s(  0.00%)p 1.00(  0.03%)d99.99( 98.93%)
                                                  f37.42(  1.04%)
                                            0.0000  0.0000  0.0000  0.0000  0.0000
                                            0.0000  0.0000  0.0000  0.0000  0.0000
                                            0.0000  0.0000  0.0000 -0.0090 -0.0030
                                           -0.0134 -0.0033  0.0000  0.0000  0.0000
                                            0.5433  0.0287 -0.0066  0.8315  0.0429
                                           -0.0011  0.0000  0.0000  0.0000  0.0000
                                            0.0000  0.0000  0.0035 -0.0103  0.0000
                                            0.0000  0.0000  0.0000  0.0854 -0.0539
                                            0.0112  0.0013  0.0000  0.0000  0.0000
                                            0.0000
    24. (0.00608) RY*( 6) O   1           s(  0.00%)p 1.00(  0.99%)d98.58( 97.99%)
                                                  f 1.03(  1.02%)
                                            0.0000  0.0000  0.0000  0.0000  0.0000
                                            0.0000  0.0000  0.0000  0.0000  0.0000
                                            0.0000  0.0000  0.0000 -0.0372 -0.0883
                                            0.0231  0.0148  0.0000  0.0000  0.0000
                                            0.8232  0.0686 -0.0262 -0.5427 -0.0460
                                            0.0101  0.0000  0.0000  0.0000  0.0000
                                            0.0000  0.0000 -0.0710  0.0394  0.0000
                                            0.0000  0.0000  0.0000  0.0427 -0.0180
                                           -0.0350  0.0153  0.0000  0.0000  0.0000
                                            0.0000
    25. (0.00605) RY*( 7) O   1           s(  5.50%)p 0.66(  3.61%)d16.37( 89.98%)
                                                  f 0.17(  0.91%)
                                           -0.0000  0.0042  0.2342 -0.0105 -0.0026
                                            0.0201  0.1058 -0.0178 -0.0082 -0.0337
                                           -0.1505  0.0100 -0.0162  0.0000  0.0000
                                            0.0000  0.0000  0.6881  0.0195 -0.0011
                                            0.0000  0.0000  0.0000  0.0000  0.0000
                                            0.0000  0.1874  0.0169  0.0065  0.6208
                                            0.0678 -0.0232  0.0000  0.0000  0.0478
                                           -0.0224 -0.0390  0.0212  0.0000  0.0000
                                            0.0000  0.0000  0.0350 -0.0260  0.0462
                                           -0.0178
    26. (0.00582) RY*( 8) O   1           s(  3.35%)p 0.57(  1.92%)d27.75( 92.96%)
                                                  f 0.53(  1.77%)
                                            0.0000 -0.0056  0.1828  0.0070  0.0003
                                            0.0167  0.0317 -0.0115 -0.0112  0.0114
                                           -0.1308 -0.0118 -0.0165 -0.0000 -0.0000
                                           -0.0000 -0.0000  0.5793  0.0110 -0.0013
                                           -0.0000 -0.0000 -0.0000 -0.0000 -0.0000
                                           -0.0000 -0.4689 -0.0014  0.0105 -0.6096
                                           -0.0458  0.0133 -0.0000 -0.0000  0.0036
                                           -0.0064  0.0446 -0.0387 -0.0000 -0.0000
                                           -0.0000 -0.0000  0.0214 -0.0293  0.0968
                                           -0.0593
    27. (0.00318) RY*( 9) O   1           s( 13.67%)p 0.30(  4.07%)d 5.93( 80.99%)
                                                  f 0.09(  1.27%)
                                            0.0000 -0.0060  0.3694  0.0087 -0.0107
                                           -0.0444  0.1683  0.0921  0.0096 -0.0085
                                           -0.0325  0.0146 -0.0223  0.0000  0.0000
                                            0.0000  0.0000  0.0355 -0.0072  0.0033
                                            0.0000  0.0000  0.0000  0.0000  0.0000
                                            0.0000  0.7739  0.1033  0.0019 -0.4349
                                           -0.0975  0.0169  0.0000  0.0000 -0.0411
                                            0.0461 -0.0028  0.0049  0.0000  0.0000
                                            0.0000  0.0000  0.0583 -0.0597 -0.0366
                                            0.0241
    28. (0.00063) RY*(10) O   1           s( 12.11%)p 4.73( 57.33%)d 2.36( 28.60%)
                                                  f 0.16(  1.97%)
                                            0.0000 -0.0048  0.0117  0.3459 -0.0357
                                           -0.0024 -0.0074 -0.2488 -0.0181  0.0064
                                            0.0165  0.7119  0.0625  0.0000  0.0000
                                            0.0000  0.0000 -0.0093  0.2979 -0.0396
                                            0.0000  0.0000  0.0000  0.0000  0.0000
                                            0.0000 -0.0005  0.2808 -0.0108 -0.0375
                                            0.3394  0.0058  0.0000  0.0000 -0.0126
                                            0.0009  0.1182 -0.0162  0.0000  0.0000
                                            0.0000  0.0000 -0.0540  0.0049 -0.0429
                                            0.0217
    29. (0.00060) RY*(11) O   1           s(  0.00%)p 1.00( 45.91%)d 1.11( 50.90%)
                                                  f 0.07(  3.19%)
                                            0.0000  0.0000  0.0000  0.0000  0.0000
                                            0.0000  0.0000  0.0000  0.0000  0.0000
                                            0.0000  0.0000  0.0000  0.0029  0.0393
                                            0.6681 -0.1059  0.0000  0.0000  0.0000
                                           -0.0387  0.3540 -0.0101  0.0433 -0.6165
                                            0.0109  0.0000  0.0000  0.0000  0.0000
                                            0.0000  0.0000  0.1085 -0.0182  0.0000
                                            0.0000  0.0000  0.0000  0.0966  0.0009
                                            0.1023  0.0003  0.0000  0.0000  0.0000
                                            0.0000
    30. (0.00059) RY*(12) O   1           s( 11.57%)p 0.87( 10.03%)d 6.61( 76.46%)
                                                  f 0.17(  1.94%)
                                            0.0000 -0.0017  0.0246  0.3317 -0.0710
                                            0.0026  0.0050 -0.1862  0.0236 -0.0060
                                           -0.0313  0.2510  0.0316 -0.0000 -0.0000
                                           -0.0000 -0.0000 -0.0166  0.0569 -0.0237
                                           -0.0000 -0.0000 -0.0000 -0.0000 -0.0000
                                           -0.0000 -0.0267 -0.2364 -0.0203  0.0896
                                           -0.8328  0.0439 -0.0000 -0.0000  0.0525
                                           -0.0031 -0.0111  0.0213 -0.0000 -0.0000
                                           -0.0000 -0.0000  0.1183  0.0223  0.0338
                                            0.0214
    31. (0.00054) RY*(13) O   1           s(  0.00%)p 1.00( 41.77%)d 1.30( 54.39%)
[...]
   125. (0.00486) RY*( 2) H   4           s(  0.00%)p 1.00( 98.32%)d 0.02(  1.68%)
                                            0.0000  0.0000  0.0000  0.0000  0.0000
                                            0.0000  0.0000  0.0000  0.0000  0.0000
                                            0.9906  0.0375 -0.0245  0.0000  0.0000
                                           -0.0217  0.0107 -0.1198  0.0431  0.0000
                                            0.0000  0.0000  0.0000
   126. (0.00472) RY*( 3) H   4           s( 55.48%)p 0.79( 44.10%)d 0.01(  0.42%)
                                           -0.0012  0.7346  0.1193  0.0299 -0.0006
                                            0.0865 -0.0162 -0.6143  0.2357 -0.0177
                                            0.0000  0.0000  0.0000 -0.0295 -0.0144
                                            0.0000  0.0000  0.0000  0.0000  0.0175
                                            0.0430  0.0191  0.0246
   127. (0.00406) RY*( 4) H   4           s( 23.09%)p 3.26( 75.33%)d 0.07(  1.57%)
                                            0.0427  0.4658 -0.1103 -0.0007 -0.6449
                                            0.0444  0.0305  0.5724  0.0820  0.0137
                                            0.0000  0.0000  0.0000  0.1069 -0.0203
                                            0.0000  0.0000  0.0000  0.0000  0.0458
                                            0.0254  0.0324  0.0086
   128. (0.00157) RY*( 5) H   4           s( 18.72%)p 4.24( 79.33%)d 0.10(  1.95%)
                                           -0.0263  0.3296 -0.0841 -0.2661  0.1458
                                           -0.0587 -0.0618  0.0314 -0.8651 -0.1238
                                           -0.0000 -0.0000 -0.0000 -0.0924  0.0483
                                           -0.0000 -0.0000 -0.0000 -0.0000  0.0356
                                           -0.0429  0.0624 -0.0407
   129. (0.00043) RY*( 6) H   4           s(  6.71%)p10.68( 71.61%)d 3.23( 21.68%)
                                            0.0064 -0.0580  0.2443  0.0629 -0.0639
                                            0.8047 -0.1674  0.0735 -0.0911  0.1509
                                            0.0000  0.0000  0.0000 -0.4477  0.0076
                                            0.0000  0.0000  0.0000  0.0000 -0.1168
                                           -0.0499  0.0008 -0.0154
   130. (0.00040) RY*( 7) H   4           s(  0.00%)p 1.00( 25.87%)d 2.87( 74.13%)
                                            0.0000  0.0000  0.0000  0.0000  0.0000
                                            0.0000  0.0000  0.0000  0.0000  0.0000
                                            0.1233 -0.4403  0.2227  0.0000  0.0000
                                            0.1169  0.0390  0.8481  0.0832  0.0000
                                            0.0000  0.0000  0.0000
   131. (0.00034) RY*( 8) H   4           s( 21.02%)p 0.56( 11.73%)d 3.20( 67.25%)
                                            0.0041 -0.0223  0.4434 -0.1143  0.1178
                                            0.2813  0.1064  0.0569 -0.0595  0.0790
                                            0.0000  0.0000  0.0000  0.5779  0.0675
                                            0.0000  0.0000  0.0000  0.0000  0.5656
                                            0.0167  0.1170 -0.0037
   132. (0.00029) RY*( 9) H   4           s( 30.32%)p 0.51( 15.45%)d 1.79( 54.22%)
                                            0.0081 -0.0145  0.4672 -0.2911 -0.0418
                                           -0.3352  0.0558  0.0894  0.1182  0.1238
                                            0.0000  0.0000  0.0000 -0.3637 -0.0365
                                            0.0000  0.0000  0.0000  0.0000 -0.0309
                                            0.0607  0.6272 -0.1029
   133. (0.00029) RY*(10) H   4           s(  0.00%)p 1.00( 73.25%)d 0.37( 26.75%)
                                            0.0000  0.0000  0.0000  0.0000  0.0000
                                            0.0000  0.0000  0.0000  0.0000  0.0000
                                            0.0222  0.8552 -0.0264  0.0000  0.0000
                                            0.3198 -0.0450  0.4033  0.0242  0.0000
                                            0.0000  0.0000  0.0000
   134. (0.00026) RY*(11) H   4           s(  0.00%)p 1.00(  6.04%)d15.54( 93.96%)
                                            0.0000  0.0000  0.0000  0.0000  0.0000
                                            0.0000  0.0000  0.0000  0.0000  0.0000
                                            0.0019 -0.2437 -0.0327  0.0000  0.0000
                                            0.9066 -0.2504 -0.2336  0.0193  0.0000
                                            0.0000  0.0000  0.0000
   135. (0.00025) RY*(12) H   4           s(  6.43%)p 0.97(  6.22%)d13.58( 87.34%)
                                           -0.0045  0.0187 -0.1167  0.2244  0.0589
                                            0.1770  0.0362 -0.0416 -0.1015  0.1187
                                            0.0000  0.0000  0.0000  0.4772 -0.0015
                                            0.0000  0.0000  0.0000  0.0000 -0.5844
                                           -0.0026  0.4977 -0.2376
   136. (0.00018) RY*(13) H   4           s( 13.44%)p 3.39( 45.61%)d 3.05( 40.94%)
                                            0.0112 -0.0666 -0.1804  0.3119  0.0202
                                            0.1284 -0.1446  0.0029  0.0145 -0.6466
                                            0.0000  0.0000  0.0000 -0.0959 -0.1774
                                            0.0000  0.0000  0.0000  0.0000  0.2752
                                            0.2898  0.4300  0.1558
   137. (0.00014) RY*(14) H   4           s( 79.23%)p 0.16( 12.51%)d 0.10(  8.25%)
                                           -0.0032  0.0808  0.4648  0.7548 -0.0188
                                           -0.2684  0.0183  0.0904 -0.2033 -0.0539
                                            0.0000  0.0000  0.0000 -0.0756  0.1668
                                            0.0000  0.0000  0.0000  0.0000 -0.0077
                                           -0.1440 -0.1401 -0.0926
   138. (0.00006) RY*(15) H   4           s(  0.00%)p 1.00(  5.99%)d15.70( 94.01%)
   139. (0.00005) RY*(16) H   4           s(  9.76%)p 4.29( 41.87%)d 4.96( 48.38%)
   140. (0.00005) RY*(17) H   4           s(  1.77%)p 3.79(  6.73%)d51.61( 91.50%)
   141. (0.00003) RY*(18) H   4           s(  0.00%)p 1.00( 88.38%)d 0.13( 11.62%)
   142. (0.00003) RY*(19) H   4           s(  0.82%)p99.99( 96.03%)d 3.86(  3.15%)
   143. (0.00003) RY*(20) H   4           s( 16.84%)p 0.41(  6.90%)d 4.53( 76.26%)
   144. (0.00002) RY*(21) H   4           s(  0.00%)p 1.00(  2.15%)d45.56( 97.85%)
   145. (0.00002) RY*(22) H   4           s(  3.48%)p 0.16(  0.57%)d27.57( 95.95%)
   146. (0.02326) BD*( 1) O   1 - H   2  
                ( 16.47%)   0.4058* O   1 s( 15.19%)p 5.56( 84.46%)d 0.02(  0.34%)
                                                  f 0.00(  0.01%)
                                           -0.0001 -0.3897  0.0028  0.0001  0.0022
                                           -0.9142  0.0315  0.0066  0.0081  0.0883
                                            0.0042 -0.0009  0.0004 -0.0000 -0.0000
                                           -0.0000 -0.0000  0.0138 -0.0043  0.0023
                                           -0.0000 -0.0000 -0.0000 -0.0000 -0.0000
                                           -0.0000 -0.0468  0.0028 -0.0023  0.0305
                                           -0.0011  0.0003 -0.0000 -0.0000  0.0078
                                           -0.0003 -0.0004  0.0000 -0.0000 -0.0000
                                           -0.0000 -0.0000 -0.0048 -0.0029 -0.0002
                                            0.0002
                ( 83.53%)  -0.9140* H   2 s( 99.62%)p 0.00(  0.38%)d 0.00(  0.01%)
                                           -0.9980  0.0133 -0.0005  0.0006 -0.0357
                                            0.0473  0.0031  0.0156 -0.0018  0.0010
                                           -0.0000 -0.0000 -0.0000 -0.0006 -0.0025
                                           -0.0000 -0.0000 -0.0000 -0.0000 -0.0037
                                           -0.0013  0.0047  0.0037
   147. (0.22328) BD*( 1) I   3 - H   4  
                ( 11.32%)   0.3365* I   3 s(  5.53%)p17.04( 94.23%)d 0.04(  0.21%)
                                                  f 0.01(  0.03%)
                                           -0.0001 -0.2351  0.0015  0.0048 -0.0012
                                           -0.0011 -0.0001 -0.1984  0.0033  0.0018
                                           -0.0008 -0.0005 -0.9500  0.0157  0.0072
                                           -0.0015 -0.0000 -0.0000 -0.0000 -0.0000
                                           -0.0000  0.0000 -0.0162 -0.0009  0.0012
                                           -0.0000 -0.0000 -0.0000 -0.0000 -0.0000
                                           -0.0000 -0.0000 -0.0000 -0.0000  0.0359
                                            0.0025 -0.0021 -0.0000  0.0233  0.0018
                                           -0.0011 -0.0000 -0.0000  0.0023  0.0005
                                            0.0110  0.0022 -0.0000 -0.0000 -0.0000
                                           -0.0000  0.0081  0.0013  0.0115  0.0019
                ( 88.68%)  -0.9417* H   4 s( 99.50%)p 0.00(  0.46%)d 0.00(  0.04%)
                                           -0.9971  0.0273 -0.0012  0.0082  0.0079
                                            0.0095  0.0007  0.0531  0.0395  0.0046
                                           -0.0000 -0.0000 -0.0000 -0.0030 -0.0068
                                           -0.0000 -0.0000 -0.0000 -0.0000  0.0048
                                            0.0151  0.0059  0.0091


 NHO Directionality and "Bond Bending" (deviations from line of nuclear centers)

         [Thresholds for printing:  angular deviation  >  1.0 degree]
                                    hybrid p-character > 25.0%
                                    orbital occupancy  >  0.10e

                                Line of Centers        Hybrid 1              Hybrid 2
                                ---------------  -------------------   ------------------
                NBO               Theta   Phi    Theta   Phi    Dev    Theta   Phi    Dev
 ========================================================================================
     1. BD (   1) O   1 - H   2    90.0    0.0    90.0  354.0   6.0      --     --    --
    14. LP (   2) O   1             --     --      0.0    0.0   --       --     --    --
    15. LP (   3) O   1             --     --     90.0  259.6   --       --     --    --
    17. LP (   2) I   3             --     --      0.0    0.0   --       --     --    --
    18. LP (   3) I   3             --     --     90.0  168.3   --       --     --    --


 Natural Bond Orbitals (Summary):

           NBO                  Occupancy  
 -----------------------------------------------
 Molecular unit  1  (HO)
     1. BD (   1) O   1 - H   2          1.95973
     3. CR (   1) O   1                  1.99993
    13. LP (   1) O   1                  1.97172
    14. LP (   2) O   1                  1.95386
    15. LP (   3) O   1                  1.75678
    19. RY*(   1) O   1                  0.02550
    20. RY*(   2) O   1                  0.01980
    21. RY*(   3) O   1                  0.01311
    22. RY*(   4) O   1                  0.00733
    23. RY*(   5) O   1                  0.00638
    24. RY*(   6) O   1                  0.00608
    25. RY*(   7) O   1                  0.00605
    26. RY*(   8) O   1                  0.00582
    27. RY*(   9) O   1                  0.00318
    28. RY*(  10) O   1                  0.00063
    29. RY*(  11) O   1                  0.00060
    30. RY*(  12) O   1                  0.00059
    31. RY*(  13) O   1                  0.00054
    32. RY*(  14) O   1                  0.00048
    33. RY*(  15) O   1                  0.00049
    34. RY*(  16) O   1                  0.00048
    35. RY*(  17) O   1                  0.00047
    36. RY*(  18) O   1                  0.00046
    37. RY*(  19) O   1                  0.00043
    38. RY*(  20) O   1                  0.00043
    39. RY*(  21) O   1                  0.00044
    40. RY*(  22) O   1                  0.00043
    41. RY*(  23) O   1                  0.00040
    42. RY*(  24) O   1                  0.00032
    43. RY*(  25) O   1                  0.00024
    44. RY*(  26) O   1                  0.00015
    45. RY*(  27) O   1                  0.00010
    46. RY*(  28) O   1                  0.00008
    47. RY*(  29) O   1                  0.00008
    48. RY*(  30) O   1                  0.00009
    49. RY*(  31) O   1                  0.00008
    50. RY*(  32) O   1                  0.00009
    51. RY*(  33) O   1                  0.00008
    52. RY*(  34) O   1                  0.00007
    53. RY*(  35) O   1                  0.00008
    54. RY*(  36) O   1                  0.00006
    55. RY*(  37) O   1                  0.00006
    56. RY*(  38) O   1                  0.00004
    57. RY*(  39) O   1                  0.00003
    58. RY*(  40) O   1                 -0.00002
    59. RY*(  41) O   1                 -0.00038
    60. RY*(   1) H   2                  0.00540
    61. RY*(   2) H   2                  0.00523
    62. RY*(   3) H   2                  0.00294
    63. RY*(   4) H   2                  0.00130
    64. RY*(   5) H   2                  0.00039
    65. RY*(   6) H   2                  0.00023
    66. RY*(   7) H   2                  0.00019
    67. RY*(   8) H   2                  0.00017
    68. RY*(   9) H   2                  0.00013
    69. RY*(  10) H   2                  0.00013
    70. RY*(  11) H   2                  0.00014
    71. RY*(  12) H   2                  0.00010
    72. RY*(  13) H   2                  0.00008
    73. RY*(  14) H   2                  0.00006
    74. RY*(  15) H   2                  0.00006
    75. RY*(  16) H   2                  0.00003
    76. RY*(  17) H   2                  0.00004
    77. RY*(  18) H   2                  0.00003
    78. RY*(  19) H   2                  0.00004
    79. RY*(  20) H   2                  0.00001
    80. RY*(  21) H   2                  0.00002
    81. RY*(  22) H   2                  0.00002
   146. BD*(   1) O   1 - H   2          0.02326
       -------------------------------
              Total Lewis    9.64201  ( 98.5549%)
        Valence non-Lewis    0.02326  (  0.2378%)
        Rydberg non-Lewis    0.11812  (  1.2073%)
       -------------------------------
            Total unit  1    9.78339  (100.0000%)
           Charge unit  1   -0.78339

 Molecular unit  2  (HI)
     2. BD (   1) I   3 - H   4          1.94764
     4. CR (   1) I   3                  1.99975
     5. CR (   2) I   3                  2.00000
     6. CR (   3) I   3                  1.99984
     7. CR (   4) I   3                  2.00000
     8. CR (   5) I   3                  1.99671
     9. CR (   6) I   3                  1.99679
    10. CR (   7) I   3                  1.99674
    11. CR (   8) I   3                  1.99663
    12. CR (   9) I   3                  1.99674
    16. LP (   1) I   3                  1.97822
    17. LP (   2) I   3                  1.95240
    18. LP (   3) I   3                  1.95220
    82. RY*(   1) I   3                  0.01944
    83. RY*(   2) I   3                  0.01944
    84. RY*(   3) I   3                  0.01937
    85. RY*(   4) I   3                  0.01900
    86. RY*(   5) I   3                  0.01884
    87. RY*(   6) I   3                  0.00980
    88. RY*(   7) I   3                  0.00976
    89. RY*(   8) I   3                  0.00812
    90. RY*(   9) I   3                  0.00273
    91. RY*(  10) I   3                  0.00273
    92. RY*(  11) I   3                  0.00269
    93. RY*(  12) I   3                  0.00269
    94. RY*(  13) I   3                  0.00260
    95. RY*(  14) I   3                  0.00260
    96. RY*(  15) I   3                  0.00253
    97. RY*(  16) I   3                  0.00196
    98. RY*(  17) I   3                  0.00156
    99. RY*(  18) I   3                  0.00156
   100. RY*(  19) I   3                  0.00114
   101. RY*(  20) I   3                  0.00112
   102. RY*(  21) I   3                  0.00103
   103. RY*(  22) I   3                  0.00066
   104. RY*(  23) I   3                  0.00066
   105. RY*(  24) I   3                  0.00055
   106. RY*(  25) I   3                  0.00040
   107. RY*(  26) I   3                  0.00039
   108. RY*(  27) I   3                  0.00039
   109. RY*(  28) I   3                  0.00040
   110. RY*(  29) I   3                  0.00036
   111. RY*(  30) I   3                  0.00033
   112. RY*(  31) I   3                  0.00033
   113. RY*(  32) I   3                  0.00028
   114. RY*(  33) I   3                  0.00013
   115. RY*(  34) I   3                  0.00013
   116. RY*(  35) I   3                  0.00011
   117. RY*(  36) I   3                  0.00011
   118. RY*(  37) I   3                  0.00011
   119. RY*(  38) I   3                  0.00005
   120. RY*(  39) I   3                  0.00006
   121. RY*(  40) I   3                  0.00005
   122. RY*(  41) I   3                  0.00004
   123. RY*(  42) I   3                  0.00001
   124. RY*(   1) H   4                  0.00532
   125. RY*(   2) H   4                  0.00486
   126. RY*(   3) H   4                  0.00472
   127. RY*(   4) H   4                  0.00406
   128. RY*(   5) H   4                  0.00157
   129. RY*(   6) H   4                  0.00043
   130. RY*(   7) H   4                  0.00040
   131. RY*(   8) H   4                  0.00034
   132. RY*(   9) H   4                  0.00029
   133. RY*(  10) H   4                  0.00029
   134. RY*(  11) H   4                  0.00026
   135. RY*(  12) H   4                  0.00025
   136. RY*(  13) H   4                  0.00018
   137. RY*(  14) H   4                  0.00014
   138. RY*(  15) H   4                  0.00006
   139. RY*(  16) H   4                  0.00005
   140. RY*(  17) H   4                  0.00005
   141. RY*(  18) H   4                  0.00003
   142. RY*(  19) H   4                  0.00003
   143. RY*(  20) H   4                  0.00003
   144. RY*(  21) H   4                  0.00002
   145. RY*(  22) H   4                  0.00002
   147. BD*(   1) I   3 - H   4          0.22328
       -------------------------------
              Total Lewis   53.81365  ( 99.2568%)
        Valence non-Lewis    0.22328  (  0.4118%)
        Rydberg non-Lewis    0.17968  (  0.3314%)
       -------------------------------
            Total unit  2   54.21661  (100.0000%)
           Charge unit  2   -0.21661
 Leave Link  607 at Tue Oct 12 16:25:46 2021, MaxMem=  1048576000 cpu:         9.2
 (Enter /usr/local/gaussian/g09/l9999.exe)
 1\1\GINC-KRYPTON\SP\RMP2-FC\Gen\H2I1O1(1-)\CGAVINH\12-Oct-2021\0\\#p p
 op=NBO SP NoSymm mp2/gen Pseudo=read density=current\\title\\-1,1\O\X,
 1,10.\H,1,0.9609077,2,90.\I,1,3.50850362,2,90.,3,101.85830594,0\H,1,1.
 5,2,90.,3,101.85830594,0\\Version=ES64L-G09RevE.01\HF=-370.7295556\MP2
 =-371.2533516\RMSD=9.888e-09\Dipole=0.2692967,-1.0205854,0.\Quadrupole
 =9.1519112,-17.439392,8.2874808,-5.1620391,0.,0.\PG=CS [SG(H2I1O1)]\\@


 TIME IS NATURE'S WAY OF MAKING SURE EVERYTHING
 DOESN'T HAPPEN AT ONCE.
                     - WOODY ALLEN
 Job cpu time:       0 days  0 hours  2 minutes 39.0 seconds.
 File lengths (MBytes):  RWF=     15 Int=      0 D2E=      0 Chk=      3 Scr=      1
 Normal termination of Gaussian 09 at Tue Oct 12 16:25:46 2021.
