 Entering Gaussian System, Link 0=g16
 Input=ihod_rOH_125_sp.gjf
 Output=ihod_rOH_125_sp.log
 Initial command:
 /sw/contrib/gaussian/g16/B01/g16/l1.exe "/scr/Gau-28017.inp" -scrdir="/scr/"
 Entering Link 1 = /sw/contrib/gaussian/g16/B01/g16/l1.exe PID=     28018.
  
 Copyright (c) 1988-2017, Gaussian, Inc.  All Rights Reserved.
  
 This is part of the Gaussian(R) 16 program.  It is based on
 the Gaussian(R) 09 system (copyright 2009, Gaussian, Inc.),
 the Gaussian(R) 03 system (copyright 2003, Gaussian, Inc.),
 the Gaussian(R) 98 system (copyright 1998, Gaussian, Inc.),
 the Gaussian(R) 94 system (copyright 1995, Gaussian, Inc.),
 the Gaussian 92(TM) system (copyright 1992, Gaussian, Inc.),
 the Gaussian 90(TM) system (copyright 1990, Gaussian, Inc.),
 the Gaussian 88(TM) system (copyright 1988, Gaussian, Inc.),
 the Gaussian 86(TM) system (copyright 1986, Carnegie Mellon
 University), and the Gaussian 82(TM) system (copyright 1983,
 Carnegie Mellon University). Gaussian is a federally registered
 trademark of Gaussian, Inc.
  
 This software contains proprietary and confidential information,
 including trade secrets, belonging to Gaussian, Inc.
  
 This software is provided under written license and may be
 used, copied, transmitted, or stored only in accord with that
 written license.
  
 The following legend is applicable only to US Government
 contracts under FAR:
  
                    RESTRICTED RIGHTS LEGEND
  
 Use, reproduction and disclosure by the US Government is
 subject to restrictions as set forth in subparagraphs (a)
 and (c) of the Commercial Computer Software - Restricted
 Rights clause in FAR 52.227-19.
  
 Gaussian, Inc.
 340 Quinnipiac St., Bldg. 40, Wallingford CT 06492
  
  
 ---------------------------------------------------------------
 Warning -- This program may not be used in any manner that
 competes with the business of Gaussian, Inc. or will provide
 assistance to any competitor of Gaussian, Inc.  The licensee
 of this program is prohibited from giving any competitor of
 Gaussian, Inc. access to this program.  By using this program,
 the user acknowledges that Gaussian, Inc. is engaged in the
 business of creating and licensing software in the field of
 computational chemistry and represents and warrants to the
 licensee that it is not a competitor of Gaussian, Inc. and that
 it will not use this program in any manner prohibited above.
 ---------------------------------------------------------------
  

 Cite this work as:
 Gaussian 16, Revision B.01,
 M. J. Frisch, G. W. Trucks, H. B. Schlegel, G. E. Scuseria, 
 M. A. Robb, J. R. Cheeseman, G. Scalmani, V. Barone, 
 G. A. Petersson, H. Nakatsuji, X. Li, M. Caricato, A. V. Marenich, 
 J. Bloino, B. G. Janesko, R. Gomperts, B. Mennucci, H. P. Hratchian, 
 J. V. Ortiz, A. F. Izmaylov, J. L. Sonnenberg, D. Williams-Young, 
 F. Ding, F. Lipparini, F. Egidi, J. Goings, B. Peng, A. Petrone, 
 T. Henderson, D. Ranasinghe, V. G. Zakrzewski, J. Gao, N. Rega, 
 G. Zheng, W. Liang, M. Hada, M. Ehara, K. Toyota, R. Fukuda, 
 J. Hasegawa, M. Ishida, T. Nakajima, Y. Honda, O. Kitao, H. Nakai, 
 T. Vreven, K. Throssell, J. A. Montgomery, Jr., J. E. Peralta, 
 F. Ogliaro, M. J. Bearpark, J. J. Heyd, E. N. Brothers, K. N. Kudin, 
 V. N. Staroverov, T. A. Keith, R. Kobayashi, J. Normand, 
 K. Raghavachari, A. P. Rendell, J. C. Burant, S. S. Iyengar, 
 J. Tomasi, M. Cossi, J. M. Millam, M. Klene, C. Adamo, R. Cammi, 
 J. W. Ochterski, R. L. Martin, K. Morokuma, O. Farkas, 
 J. B. Foresman, and D. J. Fox, Gaussian, Inc., Wallingford CT, 2016.
 
 ******************************************
 Gaussian 16:  ES64L-G16RevB.01 20-Dec-2017
                26-Oct-2021 
 ******************************************
 %nproc=28
 Will use up to   28 processors via shared memory.
 %mem=120GB
 %chk=/gscratch/ilahie/mccoygrp/coire_hocl/rOH_s_oop_0/ihod/ihod_rOH_125.chk
 --------------------------------------------------------
 #p pop=NBO SP NoSymm mp2/gen Pseudo=read density=current
 --------------------------------------------------------
 1/30=1,38=1,172=1/1;
 2/12=2,15=1,17=6,18=5,40=1/2;
 3/5=7,11=9,16=1,17=8,25=1,30=1,71=1/1,2,3;
 4//1;
 5/5=2,38=5/2;
 8/6=4,10=1/1;
 9/15=1,16=-3/6;
 10/5=1,13=10,31=1/2;
 6/7=2,8=2,9=2,10=2,22=-1,40=1/1,7;
 99/5=1,9=1/99;
 Leave Link    1 at Tue Oct 26 13:21:54 2021, MaxMem= 16106127360 cpu:               2.5 elap:               0.1
 (Enter /sw/contrib/gaussian/g16/B01/g16/l101.exe)
 -----
 title
 -----
 Symbolic Z-matrix:
 Charge = -1 Multiplicity = 1
 O
 X                    1     10. 
 H(iso=2)             1    r1       2     90. 
 I                    1    r2       2     90.      3    a1       0
 H                    1    r3       2    oop      3    a1       0
       Variables:
  r1                    0.96091                  
  r2                    3.5085                   
  r3                    1.25                     
  a1                  101.85832                  
  OOP                  90.                       
 
 ITRead=  0  0  0  0
 MicOpt= -1 -1 -1 -1
 NAtoms=      4 NQM=        4 NQMF=       0 NMMI=      0 NMMIF=      0
                NMic=       0 NMicF=      0.
                    Isotopes and Nuclear Properties:
 (Nuclear quadrupole moments (NQMom) in fm**2, nuclear magnetic moments (NMagM)
  in nuclear magnetons)

  Atom         1           2           3           4
 IAtWgt=          16           2         127           1
 AtmWgt=  15.9949146   2.0141018 126.9004000   1.0078250
 NucSpn=           0           2           5           1
 AtZEff=  -0.0000000  -0.0000000  -0.0000000  -0.0000000
 NQMom=    0.0000000   0.2860000 -71.0000000   0.0000000
 NMagM=    0.0000000   0.8574380   2.8132800   2.7928460
 AtZNuc=   8.0000000   1.0000000  53.0000000   1.0000000
 Leave Link  101 at Tue Oct 26 13:21:54 2021, MaxMem= 16106127360 cpu:               2.4 elap:               0.1
 (Enter /sw/contrib/gaussian/g16/B01/g16/l202.exe)
                          Input orientation:                          
 ---------------------------------------------------------------------
 Center     Atomic      Atomic             Coordinates (Angstroms)
 Number     Number       Type             X           Y           Z
 ---------------------------------------------------------------------
      1          8           0        0.000000    0.000000    0.000000
      2          1           0        0.960908    0.000000    0.000000
      3         53           0       -0.720970   -3.433626    0.000000
      4          1           0       -0.256865   -1.223323    0.000000
 ---------------------------------------------------------------------
                    Distance matrix (angstroms):
                    1          2          3          4
     1  O    0.000000
     2  H    0.960908   0.000000
     3  I    3.508501   3.823414   0.000000
     4  H    1.250000   1.726120   2.258501   0.000000
 Symmetry turned off by external request.
 Stoichiometry    H2IO(1-)
 Framework group  CS[SG(H2IO)]
 Deg. of freedom     5
 Full point group                 CS      NOp   2
 Rotational constants (GHZ):         322.9132370           2.5248721           2.5052831
 Leave Link  202 at Tue Oct 26 13:21:54 2021, MaxMem= 16106127360 cpu:               0.4 elap:               0.0
 (Enter /sw/contrib/gaussian/g16/B01/g16/l301.exe)
 General basis read from cards:  (5D, 7F)
 Centers:       1      2      4
 aug-cc-pVTZ
 ****
 Centers:       3
 S 11 1.00
     Exponent=  5.5465000000D+03 Coefficients=  1.5600000000D-04
     Exponent=  8.3821400000D+02 Coefficients=  9.8600000000D-04
     Exponent=  1.8218700000D+02 Coefficients=  2.7920000000D-03
     Exponent=  3.1212300000D+01 Coefficients= -4.3251000000D-02
     Exponent=  1.9531400000D+01 Coefficients=  2.3413400000D-01
     Exponent=  8.2409900000D+00 Coefficients= -7.5094300000D-01
     Exponent=  2.1945500000D+00 Coefficients=  8.8296800000D-01
     Exponent=  1.1091100000D+00 Coefficients=  4.6206100000D-01
     Exponent=  3.7464100000D-01 Coefficients=  2.2286000000D-02
     Exponent=  1.7708000000D-01 Coefficients= -4.3530000000D-03
     Exponent=  8.1061000000D-02 Coefficients=  1.1020000000D-03
 S 11 1.00
     Exponent=  5.5465000000D+03 Coefficients= -7.3000000000D-05
     Exponent=  8.3821400000D+02 Coefficients= -5.0800000000D-04
     Exponent=  1.8218700000D+02 Coefficients= -1.1580000000D-03
     Exponent=  3.1212300000D+01 Coefficients=  1.2193000000D-02
     Exponent=  1.9531400000D+01 Coefficients= -8.7854000000D-02
     Exponent=  8.2409900000D+00 Coefficients=  3.3820000000D-01
     Exponent=  2.1945500000D+00 Coefficients= -5.7655000000D-01
     Exponent=  1.1091100000D+00 Coefficients= -4.0929800000D-01
     Exponent=  3.7464100000D-01 Coefficients=  5.6745900000D-01
     Exponent=  1.7708000000D-01 Coefficients=  6.1248900000D-01
     Exponent=  8.1061000000D-02 Coefficients=  1.4323100000D-01
 S 1 1.00
     Exponent=  3.7464100000D-01 Coefficients=  1.0000000000D+00
 S 1 1.00
     Exponent=  1.7708000000D-01 Coefficients=  1.0000000000D+00
 S 1 1.00
     Exponent=  1.0010000000D-01 Coefficients=  1.0000000000D+00
 S 1 1.00
     Exponent=  4.1200000000D-02 Coefficients=  1.0000000000D+00
 P 9 1.00
     Exponent=  1.8898800000D+02 Coefficients=  5.8500000000D-04
     Exponent=  2.1286800000D+01 Coefficients=  3.6923000000D-02
     Exponent=  1.0039600000D+01 Coefficients= -2.3532400000D-01
     Exponent=  3.4518000000D+00 Coefficients=  3.4148300000D-01
     Exponent=  1.9745600000D+00 Coefficients=  5.3478800000D-01
     Exponent=  1.0242000000D+00 Coefficients=  2.6514100000D-01
     Exponent=  4.4943700000D-01 Coefficients=  2.5787000000D-02
     Exponent=  1.8664800000D-01 Coefficients=  5.2200000000D-04
     Exponent=  7.3481000000D-02 Coefficients=  6.0600000000D-04
 P 9 1.00
     Exponent=  1.8898800000D+02 Coefficients= -2.5600000000D-04
     Exponent=  2.1286800000D+01 Coefficients= -1.1682000000D-02
     Exponent=  1.0039600000D+01 Coefficients=  8.3192000000D-02
     Exponent=  3.4518000000D+00 Coefficients= -1.5697000000D-01
     Exponent=  1.9745600000D+00 Coefficients= -2.2451800000D-01
     Exponent=  1.0242000000D+00 Coefficients= -1.1445100000D-01
     Exponent=  4.4943700000D-01 Coefficients=  3.7535600000D-01
     Exponent=  1.8664800000D-01 Coefficients=  5.7513600000D-01
     Exponent=  7.3481000000D-02 Coefficients=  2.4591700000D-01
 P 1 1.00
     Exponent=  5.9810000000D-01 Coefficients=  1.0000000000D+00
 P 1 1.00
     Exponent=  9.6180000000D-02 Coefficients=  1.0000000000D+00
 P 1 1.00
     Exponent=  3.5900000000D-02 Coefficients=  1.0000000000D+00
 D 9 1.00
     Exponent=  1.3266200000D+02 Coefficients=  5.7200000000D-04
     Exponent=  3.7605400000D+01 Coefficients=  4.4020000000D-03
     Exponent=  1.0389100000D+01 Coefficients= -4.0922000000D-02
     Exponent=  6.4901700000D+00 Coefficients=  9.9661000000D-02
     Exponent=  3.4545100000D+00 Coefficients=  3.2266300000D-01
     Exponent=  1.8441300000D+00 Coefficients=  4.0034300000D-01
     Exponent=  9.6247800000D-01 Coefficients=  2.6830600000D-01
     Exponent=  4.7285300000D-01 Coefficients=  8.4847000000D-02
     Exponent=  1.9320000000D-01 Coefficients=  7.6320000000D-03
 D 1 1.00
     Exponent=  4.7285300000D-01 Coefficients=  1.0000000000D+00
 D 1 1.00
     Exponent=  1.9320000000D-01 Coefficients=  1.0000000000D+00
 D 1 1.00
     Exponent=  7.8200000000D-02 Coefficients=  1.0000000000D+00
 F 1 1.00
     Exponent=  4.0640000000D-01 Coefficients=  1.0000000000D+00
 F 1 1.00
     Exponent=  1.8480000000D-01 Coefficients=  1.0000000000D+00
 ****
 ======================================================================================================
                                       Pseudopotential Parameters
 ======================================================================================================
  Center     Atomic      Valence      Angular      Power
  Number     Number     Electrons     Momentum     of R      Exponent        Coefficient   SO-Coeffient
 ======================================================================================================
    1          8
                                   No pseudopotential on this center.
    2          1
                                   No pseudopotential on this center.
    3         53           25
                                      G and up 
                                                     2        1.0000000        0.00000000    0.00000000
                                      S - G
                                                     2       40.0333760       49.98964900    0.00000000
                                                     2       17.3005760      281.00655600    0.00000000
                                                     2        8.8517200       61.41673900    0.00000000
                                      P - G
                                                     2       15.7201410       67.41623900    0.00000000
                                                     2       15.2082220      134.80769600    0.00000000
                                                     2        8.2941860       14.56654800    0.00000000
                                                     2        7.7539490       28.96842200    0.00000000
                                      D - G
                                                     2       13.8177510       35.53875600    0.00000000
                                                     2       13.5878050       53.33975900    0.00000000
                                                     2        6.9476300        9.71646600    0.00000000
                                                     2        6.9600990       14.97750000    0.00000000
                                      F - G
                                                     2       18.5229500      -20.17661800    0.00000000
                                                     2       18.2510350      -26.08807700    0.00000000
                                                     2        7.5579010       -0.22043400    0.00000000
                                                     2        7.5974040       -0.22164600    0.00000000
    4          1
                                   No pseudopotential on this center.
 ======================================================================================================
 Ernie: Thresh=  0.10000D-02 Tol=  0.10000D-05 Strict=F.
 Ernie:  10 primitive shells out of 113 were deleted.
   147 basis functions,   296 primitive gaussians,   170 cartesian basis functions
    18 alpha electrons       18 beta electrons
       nuclear repulsion energy        47.5820991123 Hartrees.
 IExCor=    0 DFT=F Ex=HF Corr=None ExCW=0 ScaHFX=  1.000000
 ScaDFX=  1.000000  1.000000  1.000000  1.000000 ScalE2=  1.000000  1.000000
 IRadAn=      5 IRanWt=     -1 IRanGd=            0 ICorTp=0 IEmpDi=  4
 NAtoms=    4 NActive=    4 NUniq=    4 SFac= 1.00D+00 NAtFMM=   60 NAOKFM=F Big=F
 Integral buffers will be    131072 words long.
 Raffenetti 1 integral format.
 Two-electron integral symmetry is turned off.
 Leave Link  301 at Tue Oct 26 13:21:54 2021, MaxMem= 16106127360 cpu:               2.4 elap:               0.1
 (Enter /sw/contrib/gaussian/g16/B01/g16/l302.exe)
 NPDir=0 NMtPBC=     1 NCelOv=     1 NCel=       1 NClECP=     1 NCelD=      1
         NCelK=      1 NCelE2=     1 NClLst=     1 CellRange=     0.0.
 One-electron integrals computed using PRISM.
   1 Symmetry operations used in ECPInt.
 ECPInt:  NShTT=    1225 NPrTT=    5557 LenC2=    1226 LenP2D=    4931.
 LDataN:  DoStor=T MaxTD1= 7 Len=  274
 NBasis=   147 RedAO= T EigKep=  3.30D-04  NBF=   147
 NBsUse=   147 1.00D-06 EigRej= -1.00D+00 NBFU=   147
 Leave Link  302 at Tue Oct 26 13:21:54 2021, MaxMem= 16106127360 cpu:               6.4 elap:               0.3
 (Enter /sw/contrib/gaussian/g16/B01/g16/l303.exe)
 DipDrv:  MaxL=1.
 Leave Link  303 at Tue Oct 26 13:21:55 2021, MaxMem= 16106127360 cpu:               0.7 elap:               0.1
 (Enter /sw/contrib/gaussian/g16/B01/g16/l401.exe)
 ExpMin= 2.53D-02 ExpMax= 1.53D+04 ExpMxC= 5.22D+02 IAcc=3 IRadAn=         5 AccDes= 0.00D+00
 Harris functional with IExCor=  205 and IRadAn=       5 diagonalized for initial guess.
 HarFok:  IExCor=  205 AccDes= 0.00D+00 IRadAn=         5 IDoV= 1 UseB2=F ITyADJ=14
 ICtDFT=  3500011 ScaDFX=  1.000000  1.000000  1.000000  1.000000
 Defaulting to unpruned grid for atomic number  53.
 FoFCou: FMM=F IPFlag=           0 FMFlag=      100000 FMFlg1=           0
         NFxFlg=           0 DoJE=T BraDBF=F KetDBF=T FulRan=T
         wScrn=  0.000000 ICntrl=       500 IOpCl=  0 I1Cent=   200000004 NGrid=           0
         NMat0=    1 NMatS0=      1 NMatT0=    0 NMatD0=    1 NMtDS0=    0 NMtDT0=    0
 Symmetry not used in FoFCou.
 Harris En= -372.657824352933    
 JPrj=0 DoOrth=F DoCkMO=F.
 Leave Link  401 at Tue Oct 26 13:21:55 2021, MaxMem= 16106127360 cpu:               6.6 elap:               0.3
 (Enter /sw/contrib/gaussian/g16/B01/g16/l502.exe)
 Keep R1 ints in memory in canonical form, NReq=117069551.
 FoFCou: FMM=F IPFlag=           0 FMFlag=           0 FMFlg1=           0
         NFxFlg=           0 DoJE=F BraDBF=F KetDBF=F FulRan=T
         wScrn=  0.000000 ICntrl=       600 IOpCl=  0 I1Cent=           0 NGrid=           0
         NMat0=    1 NMatS0=  10878 NMatT0=    0 NMatD0=    1 NMtDS0=    0 NMtDT0=    0
 Symmetry not used in FoFCou.
 Two-electron integral symmetry not used.
 Closed shell SCF:
 Using DIIS extrapolation, IDIIS=  1040.
 NGot= 16106127360 LenX= 16046892803 LenY= 16046863462
 Requested convergence on RMS density matrix=1.00D-08 within 128 cycles.
 Requested convergence on MAX density matrix=1.00D-06.
 Requested convergence on             energy=1.00D-06.
 No special actions if energy rises.

 Cycle   1  Pass 1  IDiag  1:
 E= -370.596855296083    
 DIIS: error= 3.65D-02 at cycle   1 NSaved=   1.
 NSaved= 1 IEnMin= 1 EnMin= -370.596855296083     IErMin= 1 ErrMin= 3.65D-02
 ErrMax= 3.65D-02  0.00D+00 EMaxC= 1.00D-01 BMatC= 3.89D-01 BMatP= 3.89D-01
 IDIUse=3 WtCom= 6.35D-01 WtEn= 3.65D-01
 Coeff-Com:  0.100D+01
 Coeff-En:   0.100D+01
 Coeff:      0.100D+01
 Gap=     0.493 Goal=   None    Shift=    0.000
 GapD=    0.493 DampG=2.000 DampE=0.500 DampFc=1.0000 IDamp=-1.
 RMSDP=4.15D-03 MaxDP=1.15D-01              OVMax= 1.63D-01

 Cycle   2  Pass 1  IDiag  1:
 E= -370.701519412112     Delta-E=       -0.104664116029 Rises=F Damp=F
 DIIS: error= 2.52D-02 at cycle   2 NSaved=   2.
 NSaved= 2 IEnMin= 2 EnMin= -370.701519412112     IErMin= 2 ErrMin= 2.52D-02
 ErrMax= 2.52D-02  0.00D+00 EMaxC= 1.00D-01 BMatC= 1.06D-01 BMatP= 3.89D-01
 IDIUse=3 WtCom= 7.48D-01 WtEn= 2.52D-01
 Coeff-Com:  0.314D+00 0.686D+00
 Coeff-En:   0.154D+00 0.846D+00
 Coeff:      0.274D+00 0.726D+00
 Gap=     0.483 Goal=   None    Shift=    0.000
 RMSDP=1.87D-03 MaxDP=7.85D-02 DE=-1.05D-01 OVMax= 9.35D-02

 Cycle   3  Pass 1  IDiag  1:
 E= -370.765682141832     Delta-E=       -0.064162729720 Rises=F Damp=F
 DIIS: error= 7.65D-03 at cycle   3 NSaved=   3.
 NSaved= 3 IEnMin= 3 EnMin= -370.765682141832     IErMin= 3 ErrMin= 7.65D-03
 ErrMax= 7.65D-03  0.00D+00 EMaxC= 1.00D-01 BMatC= 1.03D-02 BMatP= 1.06D-01
 IDIUse=3 WtCom= 9.24D-01 WtEn= 7.65D-02
 Coeff-Com:  0.148D-02 0.231D+00 0.768D+00
 Coeff-En:   0.000D+00 0.000D+00 0.100D+01
 Coeff:      0.137D-02 0.213D+00 0.786D+00
 Gap=     0.294 Goal=   None    Shift=    0.000
 RMSDP=4.84D-04 MaxDP=2.37D-02 DE=-6.42D-02 OVMax= 2.33D-02

 Cycle   4  Pass 1  IDiag  1:
 E= -370.772578481951     Delta-E=       -0.006896340119 Rises=F Damp=F
 DIIS: error= 9.36D-04 at cycle   4 NSaved=   4.
 NSaved= 4 IEnMin= 4 EnMin= -370.772578481951     IErMin= 4 ErrMin= 9.36D-04
 ErrMax= 9.36D-04  0.00D+00 EMaxC= 1.00D-01 BMatC= 1.47D-04 BMatP= 1.03D-02
 IDIUse=3 WtCom= 9.91D-01 WtEn= 9.36D-03
 Coeff-Com: -0.108D-01-0.344D-02 0.105D+00 0.909D+00
 Coeff-En:   0.000D+00 0.000D+00 0.000D+00 0.100D+01
 Coeff:     -0.107D-01-0.341D-02 0.104D+00 0.910D+00
 Gap=     0.296 Goal=   None    Shift=    0.000
 RMSDP=1.19D-04 MaxDP=8.37D-03 DE=-6.90D-03 OVMax= 5.60D-03

 Cycle   5  Pass 1  IDiag  1:
 E= -370.772744564617     Delta-E=       -0.000166082666 Rises=F Damp=F
 DIIS: error= 2.57D-04 at cycle   5 NSaved=   5.
 NSaved= 5 IEnMin= 5 EnMin= -370.772744564617     IErMin= 5 ErrMin= 2.57D-04
 ErrMax= 2.57D-04  0.00D+00 EMaxC= 1.00D-01 BMatC= 9.93D-06 BMatP= 1.47D-04
 IDIUse=3 WtCom= 9.97D-01 WtEn= 2.57D-03
 Coeff-Com:  0.225D-02-0.169D-01-0.665D-01-0.634D-01 0.114D+01
 Coeff-En:   0.000D+00 0.000D+00 0.000D+00 0.000D+00 0.100D+01
 Coeff:      0.225D-02-0.168D-01-0.663D-01-0.632D-01 0.114D+01
 Gap=     0.294 Goal=   None    Shift=    0.000
 RMSDP=6.62D-05 MaxDP=2.30D-03 DE=-1.66D-04 OVMax= 3.13D-03

 Cycle   6  Pass 1  IDiag  1:
 E= -370.772773633791     Delta-E=       -0.000029069174 Rises=F Damp=F
 DIIS: error= 9.55D-05 at cycle   6 NSaved=   6.
 NSaved= 6 IEnMin= 6 EnMin= -370.772773633791     IErMin= 6 ErrMin= 9.55D-05
 ErrMax= 9.55D-05  0.00D+00 EMaxC= 1.00D-01 BMatC= 1.08D-06 BMatP= 9.93D-06
 IDIUse=1 WtCom= 1.00D+00 WtEn= 0.00D+00
 Coeff-Com:  0.570D-04 0.595D-02 0.135D-01-0.917D-01-0.298D+00 0.137D+01
 Coeff:      0.570D-04 0.595D-02 0.135D-01-0.917D-01-0.298D+00 0.137D+01
 Gap=     0.294 Goal=   None    Shift=    0.000
 RMSDP=2.49D-05 MaxDP=1.51D-03 DE=-2.91D-05 OVMax= 1.63D-03

 Cycle   7  Pass 1  IDiag  1:
 E= -370.772777919459     Delta-E=       -0.000004285669 Rises=F Damp=F
 DIIS: error= 1.89D-05 at cycle   7 NSaved=   7.
 NSaved= 7 IEnMin= 7 EnMin= -370.772777919459     IErMin= 7 ErrMin= 1.89D-05
 ErrMax= 1.89D-05  0.00D+00 EMaxC= 1.00D-01 BMatC= 5.27D-08 BMatP= 1.08D-06
 IDIUse=1 WtCom= 1.00D+00 WtEn= 0.00D+00
 Coeff-Com: -0.145D-03-0.696D-03 0.397D-04 0.358D-01 0.474D-02-0.401D+00
 Coeff-Com:  0.136D+01
 Coeff:     -0.145D-03-0.696D-03 0.397D-04 0.358D-01 0.474D-02-0.401D+00
 Coeff:      0.136D+01
 Gap=     0.294 Goal=   None    Shift=    0.000
 RMSDP=4.75D-06 MaxDP=1.88D-04 DE=-4.29D-06 OVMax= 2.98D-04

 Cycle   8  Pass 1  IDiag  1:
 E= -370.772778127994     Delta-E=       -0.000000208535 Rises=F Damp=F
 DIIS: error= 4.24D-06 at cycle   8 NSaved=   8.
 NSaved= 8 IEnMin= 8 EnMin= -370.772778127994     IErMin= 8 ErrMin= 4.24D-06
 ErrMax= 4.24D-06  0.00D+00 EMaxC= 1.00D-01 BMatC= 2.76D-09 BMatP= 5.27D-08
 IDIUse=1 WtCom= 1.00D+00 WtEn= 0.00D+00
 Coeff-Com:  0.153D-04-0.243D-03-0.494D-03 0.114D-02 0.134D-01-0.299D-01
 Coeff-Com: -0.107D+00 0.112D+01
 Coeff:      0.153D-04-0.243D-03-0.494D-03 0.114D-02 0.134D-01-0.299D-01
 Coeff:     -0.107D+00 0.112D+01
 Gap=     0.294 Goal=   None    Shift=    0.000
 RMSDP=8.60D-07 MaxDP=4.02D-05 DE=-2.09D-07 OVMax= 5.33D-05

 Cycle   9  Pass 1  IDiag  1:
 E= -370.772778135423     Delta-E=       -0.000000007429 Rises=F Damp=F
 DIIS: error= 1.43D-06 at cycle   9 NSaved=   9.
 NSaved= 9 IEnMin= 9 EnMin= -370.772778135423     IErMin= 9 ErrMin= 1.43D-06
 ErrMax= 1.43D-06  0.00D+00 EMaxC= 1.00D-01 BMatC= 2.96D-10 BMatP= 2.76D-09
 IDIUse=1 WtCom= 1.00D+00 WtEn= 0.00D+00
 Coeff-Com:  0.130D-04 0.708D-04 0.243D-04-0.415D-02-0.213D-03 0.440D-01
 Coeff-Com: -0.157D+00 0.573D-01 0.106D+01
 Coeff:      0.130D-04 0.708D-04 0.243D-04-0.415D-02-0.213D-03 0.440D-01
 Coeff:     -0.157D+00 0.573D-01 0.106D+01
 Gap=     0.294 Goal=   None    Shift=    0.000
 RMSDP=3.38D-07 MaxDP=1.34D-05 DE=-7.43D-09 OVMax= 1.31D-05

 Cycle  10  Pass 1  IDiag  1:
 E= -370.772778136208     Delta-E=       -0.000000000785 Rises=F Damp=F
 DIIS: error= 3.50D-07 at cycle  10 NSaved=  10.
 NSaved=10 IEnMin=10 EnMin= -370.772778136208     IErMin=10 ErrMin= 3.50D-07
 ErrMax= 3.50D-07  0.00D+00 EMaxC= 1.00D-01 BMatC= 1.76D-11 BMatP= 2.96D-10
 IDIUse=1 WtCom= 1.00D+00 WtEn= 0.00D+00
 Coeff-Com: -0.175D-05 0.126D-04 0.170D-04 0.197D-03-0.821D-03-0.343D-03
 Coeff-Com:  0.170D-01-0.857D-01-0.752D-01 0.114D+01
 Coeff:     -0.175D-05 0.126D-04 0.170D-04 0.197D-03-0.821D-03-0.343D-03
 Coeff:      0.170D-01-0.857D-01-0.752D-01 0.114D+01
 Gap=     0.294 Goal=   None    Shift=    0.000
 RMSDP=9.64D-08 MaxDP=3.99D-06 DE=-7.85D-10 OVMax= 4.61D-06

 Cycle  11  Pass 1  IDiag  1:
 E= -370.772778136259     Delta-E=       -0.000000000051 Rises=F Damp=F
 DIIS: error= 9.94D-08 at cycle  11 NSaved=  11.
 NSaved=11 IEnMin=11 EnMin= -370.772778136259     IErMin=11 ErrMin= 9.94D-08
 ErrMax= 9.94D-08  0.00D+00 EMaxC= 1.00D-01 BMatC= 7.53D-13 BMatP= 1.76D-11
 IDIUse=1 WtCom= 1.00D+00 WtEn= 0.00D+00
 Coeff-Com: -0.555D-06-0.328D-05 0.351D-05 0.165D-03-0.242D-05-0.164D-02
 Coeff-Com:  0.456D-02 0.937D-02-0.421D-01-0.172D+00 0.120D+01
 Coeff:     -0.555D-06-0.328D-05 0.351D-05 0.165D-03-0.242D-05-0.164D-02
 Coeff:      0.456D-02 0.937D-02-0.421D-01-0.172D+00 0.120D+01
 Gap=     0.294 Goal=   None    Shift=    0.000
 RMSDP=2.15D-08 MaxDP=8.84D-07 DE=-5.10D-11 OVMax= 8.08D-07

 Cycle  12  Pass 1  IDiag  1:
 E= -370.772778136261     Delta-E=       -0.000000000002 Rises=F Damp=F
 DIIS: error= 2.76D-08 at cycle  12 NSaved=  12.
 NSaved=12 IEnMin=12 EnMin= -370.772778136261     IErMin=12 ErrMin= 2.76D-08
 ErrMax= 2.76D-08  0.00D+00 EMaxC= 1.00D-01 BMatC= 4.49D-14 BMatP= 7.53D-13
 IDIUse=1 WtCom= 1.00D+00 WtEn= 0.00D+00
 Coeff-Com:  0.230D-06 0.435D-08-0.394D-06-0.441D-04 0.363D-04 0.328D-03
 Coeff-Com: -0.182D-02 0.411D-02 0.100D-01-0.488D-01-0.132D+00 0.117D+01
 Coeff:      0.230D-06 0.435D-08-0.394D-06-0.441D-04 0.363D-04 0.328D-03
 Coeff:     -0.182D-02 0.411D-02 0.100D-01-0.488D-01-0.132D+00 0.117D+01
 Gap=     0.294 Goal=   None    Shift=    0.000
 RMSDP=4.07D-09 MaxDP=1.59D-07 DE=-2.05D-12 OVMax= 1.82D-07

 SCF Done:  E(RHF) =  -370.772778136     A.U. after   12 cycles
            NFock= 12  Conv=0.41D-08     -V/T= 2.9873
 KE= 1.865714214837D+02 PE=-9.085951809591D+02 EE= 3.036688822268D+02
 Leave Link  502 at Tue Oct 26 13:21:57 2021, MaxMem= 16106127360 cpu:              32.2 elap:               2.1
 (Enter /sw/contrib/gaussian/g16/B01/g16/l801.exe)
 ExpMin= 2.53D-02 ExpMax= 1.53D+04 ExpMxC= 5.22D+02 IAcc=3 IRadAn=         5 AccDes= 0.00D+00
 HarFok:  IExCor=  205 AccDes= 0.00D+00 IRadAn=         5 IDoV=-2 UseB2=F ITyADJ=14
 ICtDFT= 12500011 ScaDFX=  1.000000  1.000000  1.000000  1.000000
 Defaulting to unpruned grid for atomic number  53.
 Largest valence mixing into a core orbital is  1.31D-04
 Largest core mixing into a valence orbital is  2.39D-05
 Range of M.O.s used for correlation:     6   147
 NBasis=   147 NAE=    18 NBE=    18 NFC=     5 NFV=     0
 NROrb=    142 NOA=    13 NOB=    13 NVA=   129 NVB=   129

 **** Warning!!: The largest alpha MO coefficient is  0.16705282D+02

 Leave Link  801 at Tue Oct 26 13:21:57 2021, MaxMem= 16106127360 cpu:               2.0 elap:               0.1
 (Enter /sw/contrib/gaussian/g16/B01/g16/l906.exe)
 Frozen-core derivative calculation, NFC=   5 NFV=   0.
 FulOut=F Deriv=T AODrv=F NAtomX=     4
   MMem=         225  MDisk=          13 MDiskD=          13
  W3Min=      449820 MinDsk=      818995 NBas6D=         170
 NBas2D=       14925    NTT=       14535    LW2=    26219120
    MDV= 16105851491 MDiskM=      473642 NBas2p=       14925
 Fully in-core method, ICMem=   303093605.
 IMap=   1   2   3   4   5   6   7   8   9  10  11  12  13  14  15  16  17  18
 JobTyp=1 Pass  1 fully in-core, NPsUse= 28.
 Compute canonical integrals.
 FoFCou: FMM=F IPFlag=           0 FMFlag=           0 FMFlg1=           0
         NFxFlg=           0 DoJE=F BraDBF=F KetDBF=F FulRan=T
         wScrn=  0.000000 ICntrl=       600 IOpCl=  1 I1Cent=           0 NGrid=           0
         NMat0=    1 NMatS0=  14925 NMatT0=    0 NMatD0=    1 NMtDS0=    0 NMtDT0=    0
 Symmetry not used in FoFCou.
 Spin components of T(2) and E(2):
     alpha-alpha T2 =       0.2324540892D-01 E2=     -0.6977215233D-01
     alpha-beta  T2 =       0.1215353315D+00 E2=     -0.3725038000D+00
     beta-beta   T2 =       0.2324540892D-01 E2=     -0.6977215233D-01
 The integrals were generated   1 times.
 ANorm=    0.1080752585D+01
 E2 =    -0.5120481046D+00 EUMP2 =    -0.37128482624087D+03
 Leave Link  906 at Tue Oct 26 13:22:00 2021, MaxMem= 16106127360 cpu:              81.8 elap:               3.0
 (Enter /sw/contrib/gaussian/g16/B01/g16/l1002.exe)
 Minotr:  Closed shell wavefunction.
          Computing MP2/KS-MP2 derivatives.
          Using Z-Vector for PSCF gradient.
          Skipping F1 and S1 gradient terms here.
          Frozen-core window.
          Direct CPHF calculation.
          Differentiating once with respect to electric field.
                with respect to dipole field.
          Electric field/nuclear overlap derivatives assumed to be zero.
          Requested convergence is 1.0D-10 RMS, and 1.0D-09 maximum.
          NewPWx=F KeepS1=T KeepF1=T KeepIn=T MapXYZ=F SortEE=F KeepMc=T.
 Keep R1 ints in memory in canonical form, NReq=117072107.
 FoFCou: FMM=F IPFlag=           0 FMFlag=           0 FMFlg1=           0
         NFxFlg=           0 DoJE=F BraDBF=F KetDBF=F FulRan=T
         wScrn=  0.000000 ICntrl=       600 IOpCl=  0 I1Cent=           0 NGrid=           0
         NMat0=    1 NMatS0=  10878 NMatT0=    0 NMatD0=    1 NMtDS0=    0 NMtDT0=    0
 Symmetry not used in FoFCou.
 Two-electron integral symmetry not used.
          MDV=   16106127360 using IRadAn=       5.
          Solving linear equations separately, MaxMat=       0.
          There are     1 degrees of freedom in the 1st order CPHF.  IDoFFX=0 NUNeed=     1.
 LinEq1:  Iter=  0 NonCon=     1 RMS=3.29D-03 Max=6.84D-02 NDo=     1
 AX will form     1 AO Fock derivatives at one time.
 LinEq1:  Iter=  1 NonCon=     1 RMS=5.72D-04 Max=7.00D-03 NDo=     1
 LinEq1:  Iter=  2 NonCon=     1 RMS=2.17D-04 Max=2.93D-03 NDo=     1
 LinEq1:  Iter=  3 NonCon=     1 RMS=5.84D-05 Max=1.10D-03 NDo=     1
 LinEq1:  Iter=  4 NonCon=     1 RMS=1.16D-05 Max=1.50D-04 NDo=     1
 LinEq1:  Iter=  5 NonCon=     1 RMS=5.95D-06 Max=7.53D-05 NDo=     1
 LinEq1:  Iter=  6 NonCon=     1 RMS=1.42D-06 Max=1.47D-05 NDo=     1
 LinEq1:  Iter=  7 NonCon=     1 RMS=2.66D-07 Max=2.60D-06 NDo=     1
 LinEq1:  Iter=  8 NonCon=     1 RMS=4.52D-08 Max=5.81D-07 NDo=     1
 LinEq1:  Iter=  9 NonCon=     1 RMS=1.23D-08 Max=1.43D-07 NDo=     1
 LinEq1:  Iter= 10 NonCon=     1 RMS=3.66D-09 Max=5.80D-08 NDo=     1
 LinEq1:  Iter= 11 NonCon=     1 RMS=6.31D-10 Max=7.37D-09 NDo=     1
 LinEq1:  Iter= 12 NonCon=     1 RMS=1.10D-10 Max=1.46D-09 NDo=     1
 LinEq1:  Iter= 13 NonCon=     0 RMS=3.34D-11 Max=3.63D-10 NDo=     1
 Linear equations converged to 1.000D-10 1.000D-09 after    13 iterations.
 End of Minotr F.D. properties file   721 does not exist.
 End of Minotr F.D. properties file   722 does not exist.
 End of Minotr F.D. properties file   788 does not exist.
 Leave Link 1002 at Tue Oct 26 13:22:03 2021, MaxMem= 16106127360 cpu:              34.5 elap:               2.5
 (Enter /sw/contrib/gaussian/g16/B01/g16/l601.exe)
 Copying SCF densities to generalized density rwf, IOpCl= 0 IROHF=0.

 **********************************************************************

            Population analysis using the MP2 Density.

 **********************************************************************

 Alpha  occ. eigenvalues --  -20.38193  -7.48222  -5.30831  -5.30725  -5.30720
 Alpha  occ. eigenvalues --   -2.03595  -2.03537  -2.03531  -2.03417  -2.03417
 Alpha  occ. eigenvalues --   -1.11412  -0.64569  -0.46523  -0.37409  -0.30866
 Alpha  occ. eigenvalues --   -0.16197  -0.15589  -0.15545
 Alpha virt. eigenvalues --    0.13828   0.17010   0.23085   0.24344   0.24766
 Alpha virt. eigenvalues --    0.27592   0.29732   0.29943   0.31359   0.34157
 Alpha virt. eigenvalues --    0.36485   0.36775   0.37089   0.39336   0.40051
 Alpha virt. eigenvalues --    0.42897   0.44276   0.47753   0.50290   0.55053
 Alpha virt. eigenvalues --    0.57524   0.60272   0.66960   0.71661   0.76593
 Alpha virt. eigenvalues --    0.76663   0.77544   0.78727   0.78831   0.79409
 Alpha virt. eigenvalues --    0.81757   0.82869   0.85172   0.86114   0.86333
 Alpha virt. eigenvalues --    0.87204   0.87433   0.89971   0.90647   0.93227
 Alpha virt. eigenvalues --    0.94677   0.97088   1.03324   1.05843   1.07929
 Alpha virt. eigenvalues --    1.11459   1.12343   1.12432   1.16289   1.17674
 Alpha virt. eigenvalues --    1.20248   1.20954   1.29499   1.36548   1.37605
 Alpha virt. eigenvalues --    1.45587   1.49038   1.51348   1.61533   1.62259
 Alpha virt. eigenvalues --    1.71813   1.73326   1.73907   1.74040   1.75386
 Alpha virt. eigenvalues --    1.76123   1.80007   1.83863   1.85634   1.90279
 Alpha virt. eigenvalues --    2.00812   2.04443   2.04867   2.05119   2.08807
 Alpha virt. eigenvalues --    2.11252   2.14777   2.32678   2.43296   2.46831
 Alpha virt. eigenvalues --    2.55460   2.57788   2.60291   2.62461   2.71625
 Alpha virt. eigenvalues --    2.77600   2.90822   2.91722   2.97877   3.01714
 Alpha virt. eigenvalues --    3.24552   3.33382   3.33648   3.51663   3.87275
 Alpha virt. eigenvalues --    4.14494   4.19531   4.25408   4.27549   4.35169
 Alpha virt. eigenvalues --    4.40172   4.49451   4.53777   4.60200   4.64092
 Alpha virt. eigenvalues --    4.77406   4.80460   4.90205   5.01195   5.19798
 Alpha virt. eigenvalues --    5.41285   5.55347   5.60714   6.30690   6.62771
 Alpha virt. eigenvalues --    6.89119   6.97984   7.06103   7.30677   7.41460
 Alpha virt. eigenvalues --    7.45654   7.53021   7.55426   7.65315   7.81505
 Alpha virt. eigenvalues --    8.08212   8.37340  14.44041  59.20646
          Condensed to atoms (all electrons):
               1          2          3          4
     1  O    8.336917   0.178778  -0.084756   0.161408
     2  H    0.178778   0.610985  -0.000271   0.043363
     3  I   -0.084756  -0.000271  25.837873   0.014129
     4  H    0.161408   0.043363   0.014129   0.588924
 Mulliken charges:
               1
     1  O   -0.592347
     2  H    0.167145
     3  I   -0.766974
     4  H    0.192176
 Sum of Mulliken charges =  -1.00000
 Mulliken charges with hydrogens summed into heavy atoms:
               1
     1  O   -0.233026
     3  I   -0.766974
 Electronic spatial extent (au):  <R**2>=           1232.6041
 Charge=             -1.0000 electrons
 Dipole moment (field-independent basis, Debye):
    X=              3.6991    Y=             11.8986    Z=             -0.0000  Tot=             12.4604
 Quadrupole moment (field-independent basis, Debye-Ang):
   XX=            -40.9200   YY=            -85.2140   ZZ=            -41.6847
   XY=             -8.6856   XZ=              0.0000   YZ=              0.0000
 Traceless Quadrupole moment (field-independent basis, Debye-Ang):
   XX=             15.0196   YY=            -29.2744   ZZ=             14.2548
   XY=             -8.6856   XZ=              0.0000   YZ=              0.0000
 Octapole moment (field-independent basis, Debye-Ang**2):
  XXX=             72.4747  YYY=            494.2307  ZZZ=             -0.0000  XYY=             53.9459
  XXY=            120.4444  XXZ=             -0.0000  XZZ=             23.1043  YZZ=            114.0899
  YYZ=             -0.0000  XYZ=             -0.0000
 Hexadecapole moment (field-independent basis, Debye-Ang**3):
 XXXX=           -175.3362 YYYY=          -2914.0016 ZZZZ=            -73.5930 XXXY=           -248.4896
 XXXZ=              0.0000 YYYX=           -346.0750 YYYZ=              0.0000 ZZZX=              0.0000
 ZZZY=              0.0000 XXYY=           -452.4397 XXZZ=            -41.6946 YYZZ=           -414.4872
 XXYZ=              0.0000 YYXZ=              0.0000 ZZXY=            -81.4284
 N-N= 4.758209911231D+01 E-N=-9.080333211135D+02  KE= 1.867950574940D+02
 No NMR shielding tensors so no spin-rotation constants.
 Leave Link  601 at Tue Oct 26 13:22:03 2021, MaxMem= 16106127360 cpu:               4.0 elap:               0.2
 (Enter /sw/contrib/gaussian/g16/B01/g16/l607.exe)
 ******************************Gaussian NBO Version 3.1******************************
             N A T U R A L   A T O M I C   O R B I T A L   A N D
          N A T U R A L   B O N D   O R B I T A L   A N A L Y S I S
 ******************************Gaussian NBO Version 3.1******************************
       /RESON  / : Allow strongly delocalized NBO set

 Analyzing the MP2 density

 Job title: title                                                           

 Storage needed:     65577 in NPA,     86948 in NBO (********** available)
 GSVD:  LWork=         -15 too small for GESVD, short by       42345 words or       42345 for optimal perf.


 NATURAL POPULATIONS:  Natural atomic orbital occupancies 
                                                          
   NAO  Atom  No  lang   Type(AO)    Occupancy
 --------------------------------------------
     1    O    1  S      Cor( 1S)     1.99971
     2    O    1  S      Val( 2S)     1.78873
     3    O    1  S      Ryd( 3S)     0.00749
     4    O    1  S      Ryd( 4S)     0.00040
     5    O    1  S      Ryd( 5S)     0.00019
     6    O    1  px     Val( 2p)     1.52181
     7    O    1  px     Ryd( 3p)     0.01200
     8    O    1  px     Ryd( 4p)     0.00055
     9    O    1  px     Ryd( 5p)     0.00011
    10    O    1  py     Val( 2p)     1.67210
    11    O    1  py     Ryd( 3p)     0.01282
    12    O    1  py     Ryd( 4p)     0.00055
    13    O    1  py     Ryd( 5p)     0.00018
    14    O    1  pz     Val( 2p)     1.95263
    15    O    1  pz     Ryd( 3p)     0.02321
    16    O    1  pz     Ryd( 4p)     0.00058
    17    O    1  pz     Ryd( 5p)     0.00000
    18    O    1  dxy    Ryd( 3d)     0.00815
    19    O    1  dxy    Ryd( 4d)     0.00049
    20    O    1  dxy    Ryd( 5d)     0.00009
    21    O    1  dxz    Ryd( 3d)     0.00872
    22    O    1  dxz    Ryd( 4d)     0.00052
    23    O    1  dxz    Ryd( 5d)     0.00007
    24    O    1  dyz    Ryd( 3d)     0.00711
    25    O    1  dyz    Ryd( 4d)     0.00057
    26    O    1  dyz    Ryd( 5d)     0.00008
    27    O    1  dx2y2  Ryd( 3d)     0.01234
    28    O    1  dx2y2  Ryd( 4d)     0.00043
    29    O    1  dx2y2  Ryd( 5d)     0.00011
    30    O    1  dz2    Ryd( 3d)     0.00838
    31    O    1  dz2    Ryd( 4d)     0.00056
    32    O    1  dz2    Ryd( 5d)     0.00011
    33    O    1  f(0)   Ryd( 4f)     0.00063
    34    O    1  f(0)   Ryd( 5f)     0.00011
    35    O    1  f(C1)  Ryd( 4f)     0.00057
    36    O    1  f(C1)  Ryd( 5f)     0.00009
    37    O    1  f(S1)  Ryd( 4f)     0.00062
    38    O    1  f(S1)  Ryd( 5f)     0.00010
    39    O    1  f(C2)  Ryd( 4f)     0.00048
    40    O    1  f(C2)  Ryd( 5f)     0.00010
    41    O    1  f(S2)  Ryd( 4f)     0.00047
    42    O    1  f(S2)  Ryd( 5f)     0.00008
    43    O    1  f(C3)  Ryd( 4f)     0.00046
    44    O    1  f(C3)  Ryd( 5f)     0.00013
    45    O    1  f(S3)  Ryd( 4f)     0.00046
    46    O    1  f(S3)  Ryd( 5f)     0.00010

    47    H    2  S      Val( 1S)     0.55426
    48    H    2  S      Ryd( 2S)     0.00220
    49    H    2  S      Ryd( 3S)     0.00020
    50    H    2  S      Ryd( 4S)     0.00009
    51    H    2  px     Ryd( 2p)     0.00200
    52    H    2  px     Ryd( 3p)     0.00071
    53    H    2  px     Ryd( 4p)     0.00015
    54    H    2  py     Ryd( 2p)     0.00206
    55    H    2  py     Ryd( 3p)     0.00026
    56    H    2  py     Ryd( 4p)     0.00012
    57    H    2  pz     Ryd( 2p)     0.00446
    58    H    2  pz     Ryd( 3p)     0.00019
    59    H    2  pz     Ryd( 4p)     0.00005
    60    H    2  dxy    Ryd( 3d)     0.00007
    61    H    2  dxy    Ryd( 4d)     0.00005
    62    H    2  dxz    Ryd( 3d)     0.00008
    63    H    2  dxz    Ryd( 4d)     0.00006
    64    H    2  dyz    Ryd( 3d)     0.00012
    65    H    2  dyz    Ryd( 4d)     0.00005
    66    H    2  dx2y2  Ryd( 3d)     0.00010
    67    H    2  dx2y2  Ryd( 4d)     0.00006
    68    H    2  dz2    Ryd( 3d)     0.00012
    69    H    2  dz2    Ryd( 4d)     0.00007

    70    I    3  S      Cor( 4S)     1.99974
    71    I    3  S      Val( 5S)     1.96334
    72    I    3  S      Ryd( 6S)     0.00196
    73    I    3  S      Ryd( 7S)     0.00050
    74    I    3  S      Ryd( 8S)     0.00008
    75    I    3  S      Ryd( 9S)     0.00001
    76    I    3  px     Cor( 4p)     1.99998
    77    I    3  px     Val( 5p)     1.94492
    78    I    3  px     Ryd( 6p)     0.01047
    79    I    3  px     Ryd( 7p)     0.00073
    80    I    3  px     Ryd( 8p)     0.00008
    81    I    3  py     Cor( 4p)     1.99975
    82    I    3  py     Val( 5p)     1.80738
    83    I    3  py     Ryd( 6p)     0.00899
    84    I    3  py     Ryd( 7p)     0.00067
    85    I    3  py     Ryd( 8p)     0.00019
    86    I    3  pz     Cor( 4p)     1.99999
    87    I    3  pz     Val( 5p)     1.95170
    88    I    3  pz     Ryd( 6p)     0.01051
    89    I    3  pz     Ryd( 7p)     0.00072
    90    I    3  pz     Ryd( 8p)     0.00007
    91    I    3  dxy    Cor( 4d)     1.99670
    92    I    3  dxy    Ryd( 5d)     0.01982
    93    I    3  dxy    Ryd( 6d)     0.00129
    94    I    3  dxy    Ryd( 7d)     0.00020
    95    I    3  dxz    Cor( 4d)     1.99678
    96    I    3  dxz    Ryd( 5d)     0.01992
    97    I    3  dxz    Ryd( 6d)     0.00161
    98    I    3  dxz    Ryd( 7d)     0.00015
    99    I    3  dyz    Cor( 4d)     1.99675
   100    I    3  dyz    Ryd( 5d)     0.01987
   101    I    3  dyz    Ryd( 6d)     0.00128
   102    I    3  dyz    Ryd( 7d)     0.00019
   103    I    3  dx2y2  Cor( 4d)     1.99657
   104    I    3  dx2y2  Ryd( 5d)     0.01955
   105    I    3  dx2y2  Ryd( 6d)     0.00150
   106    I    3  dx2y2  Ryd( 7d)     0.00019
   107    I    3  dz2    Cor( 4d)     1.99670
   108    I    3  dz2    Ryd( 5d)     0.01980
   109    I    3  dz2    Ryd( 6d)     0.00159
   110    I    3  dz2    Ryd( 7d)     0.00016
   111    I    3  f(0)   Ryd( 4f)     0.00270
   112    I    3  f(0)   Ryd( 5f)     0.00042
   113    I    3  f(C1)  Ryd( 4f)     0.00274
   114    I    3  f(C1)  Ryd( 5f)     0.00042
   115    I    3  f(S1)  Ryd( 4f)     0.00280
   116    I    3  f(S1)  Ryd( 5f)     0.00045
   117    I    3  f(C2)  Ryd( 4f)     0.00268
   118    I    3  f(C2)  Ryd( 5f)     0.00042
   119    I    3  f(S2)  Ryd( 4f)     0.00274
   120    I    3  f(S2)  Ryd( 5f)     0.00042
   121    I    3  f(C3)  Ryd( 4f)     0.00267
   122    I    3  f(C3)  Ryd( 5f)     0.00042
   123    I    3  f(S3)  Ryd( 4f)     0.00275
   124    I    3  f(S3)  Ryd( 5f)     0.00044

   125    H    4  S      Val( 1S)     0.54950
   126    H    4  S      Ryd( 2S)     0.00693
   127    H    4  S      Ryd( 3S)     0.00050
   128    H    4  S      Ryd( 4S)     0.00019
   129    H    4  px     Ryd( 2p)     0.00384
   130    H    4  px     Ryd( 3p)     0.00042
   131    H    4  px     Ryd( 4p)     0.00007
   132    H    4  py     Ryd( 2p)     0.00399
   133    H    4  py     Ryd( 3p)     0.00101
   134    H    4  py     Ryd( 4p)     0.00019
   135    H    4  pz     Ryd( 2p)     0.00402
   136    H    4  pz     Ryd( 3p)     0.00038
   137    H    4  pz     Ryd( 4p)     0.00006
   138    H    4  dxy    Ryd( 3d)     0.00035
   139    H    4  dxy    Ryd( 4d)     0.00008
   140    H    4  dxz    Ryd( 3d)     0.00020
   141    H    4  dxz    Ryd( 4d)     0.00004
   142    H    4  dyz    Ryd( 3d)     0.00036
   143    H    4  dyz    Ryd( 4d)     0.00010
   144    H    4  dx2y2  Ryd( 3d)     0.00025
   145    H    4  dx2y2  Ryd( 4d)     0.00009
   146    H    4  dz2    Ryd( 3d)     0.00023
   147    H    4  dz2    Ryd( 4d)     0.00005

 [ 28 electrons found in the effective core potential]

 WARNING:  5 low occupancy (<1.9990e) core orbitals found on  I    3


 Summary of Natural Population Analysis:                  
                                                          
                                       Natural Population 
                Natural  -----------------------------------------------
    Atom  No    Charge         Core      Valence    Rydberg      Total
 -----------------------------------------------------------------------
      O    1   -1.04520      1.99971     6.93527    0.11022     9.04520
      H    2    0.43247      0.00000     0.55426    0.01328     0.56753
      I    3   -0.81446     45.98297     7.66734    0.16415    53.81446
      H    4    0.42713      0.00000     0.54950    0.02336     0.57287
 =======================================================================
   * Total *   -1.00006     47.98268    15.70636    0.31101    64.00006

                                 Natural Population      
 --------------------------------------------------------
   Effective Core            28.00000
   Core                      19.98268 ( 99.9134% of  20)
   Valence                   15.70636 ( 98.1648% of  16)
   Natural Minimal Basis     63.68905 ( 99.5141% of  64)
   Natural Rydberg Basis      0.31101 (  0.4860% of  64)
 --------------------------------------------------------

    Atom  No          Natural Electron Configuration
 ----------------------------------------------------------------------------
      O    1      [core]2S( 1.79)2p( 5.15)3S( 0.01)3p( 0.05)3d( 0.04)
      H    2            1S( 0.55)2p( 0.01)
      I    3      [core]5S( 1.96)5p( 5.70)4f( 0.02)5d( 0.10)6p( 0.03)6d( 0.01)
      H    4            1S( 0.55)2S( 0.01)2p( 0.01)


 NATURAL BOND ORBITAL ANALYSIS:
 Warning:  a bond orbital has occupanc of -0.00015

                       Occupancies       Lewis Structure    Low   High
           Occ.    -------------------  -----------------   occ   occ
  Cycle   Thresh.   Lewis   Non-Lewis     CR  BD  3C  LP    (L)   (NL)   Dev
 =============================================================================
   1(1)    1.90    63.49586   0.50414     10   2   0   6     1      1    0.23
 Warning:  a bond orbital has occupanc of -0.00015
   2(2)    1.90    63.30460   0.69540     10   2   0   6     1      1    0.50
 Warning:  a bond orbital has occupanc of -0.00015
   3(3)    1.90    63.49586   0.50414     10   2   0   6     1      1    0.23
 Warning:  a bond orbital has occupanc of -0.00015
   4(1)    1.80    63.49586   0.50414     10   2   0   6     1      1    0.23
 Warning:  a bond orbital has occupanc of -0.00015
   5(2)    1.80    63.30460   0.69540     10   2   0   6     1      1    0.50
 Warning:  a bond orbital has occupanc of -0.00015
   6(3)    1.80    63.49586   0.50414     10   2   0   6     1      1    0.23
 Warning:  a bond orbital has occupanc of -0.00015
   7(1)    1.70    63.49586   0.50414     10   2   0   6     0      1    0.23
 Warning:  a bond orbital has occupanc of -0.00015
   8(2)    1.70    63.49586   0.50414     10   2   0   6     0      1    0.23
 Warning:  a bond orbital has occupanc of -0.00015
   9(1)    1.60    63.14169   0.85831     10   1   0   7     0      1    0.50
 Warning:  a bond orbital has occupanc of -0.00015
  10(2)    1.60    63.14169   0.85831     10   1   0   7     0      1    0.50
 Warning:  a bond orbital has occupanc of -0.00015
  11(1)    1.50    63.14169   0.85831     10   1   0   7     0      1    0.50
 Warning:  a bond orbital has occupanc of -0.00015
  12(2)    1.50    63.14169   0.85831     10   1   0   7     0      1    0.50
 Warning:  a bond orbital has occupanc of -0.00015
  13(1)    1.90    63.49586   0.50414     10   2   0   6     1      1    0.23
 -----------------------------------------------------------------------------

 Structure accepted: RESONANCE keyword permits strongly delocalized structure

 WARNING:  5 low occupancy (<1.9990e) core orbitals found on  I    3

 --------------------------------------------------------
   Effective Core           28.00000
   Core                     19.98268 ( 99.913% of  20)
   Valence Lewis            15.51319 ( 96.957% of  16)
  ==================       ============================
   Total Lewis              63.49586 ( 99.212% of  64)
  -----------------------------------------------------
   Valence non-Lewis         0.21725 (  0.339% of  64)
   Rydberg non-Lewis         0.28689 (  0.448% of  64)
  ==================       ============================
   Total non-Lewis           0.50414 (  0.788% of  64)
 --------------------------------------------------------


       (Occupancy)   Bond orbital/ Coefficients/ Hybrids
 ---------------------------------------------------------------------------------
     1. (1.96319) BD ( 1) O   1 - H   2  
                ( 72.55%)   0.8518* O   1 s( 21.50%)p 3.63( 77.99%)d 0.02(  0.50%)
                                                  f 0.00(  0.01%)
                                            0.0002  0.4635 -0.0093 -0.0040 -0.0014
                                            0.8818 -0.0379  0.0092 -0.0051  0.0287
                                           -0.0065 -0.0012 -0.0023  0.0000  0.0000
                                            0.0000  0.0000 -0.0157  0.0041 -0.0020
                                            0.0000  0.0000  0.0000  0.0000  0.0000
                                            0.0000  0.0591 -0.0057  0.0043 -0.0339
                                            0.0012 -0.0001  0.0000  0.0000 -0.0099
                                            0.0006 -0.0005  0.0001  0.0000  0.0000
                                            0.0000  0.0000  0.0050  0.0035  0.0008
                                           -0.0004
                ( 27.45%)   0.5239* H   2 s( 99.84%)p 0.00(  0.16%)d 0.00(  0.00%)
                                            0.9992  0.0048  0.0001 -0.0003  0.0217
                                           -0.0323 -0.0044 -0.0083  0.0011 -0.0001
                                            0.0000  0.0000  0.0000 -0.0000  0.0027
                                            0.0000  0.0000  0.0000  0.0000  0.0020
                                            0.0033 -0.0028 -0.0021
     2. (1.95448) BD ( 1) O   1 - H   4  
                ( 79.88%)   0.8937* O   1 s( 17.72%)p 4.62( 81.96%)d 0.02(  0.31%)
                                                  f 0.00(  0.01%)
                                           -0.0003 -0.4209 -0.0038  0.0004 -0.0007
                                            0.1901 -0.0149  0.0018 -0.0017  0.8850
                                            0.0042  0.0034 -0.0038  0.0000  0.0000
                                            0.0000  0.0000  0.0130 -0.0025  0.0013
                                            0.0000  0.0000  0.0000  0.0000  0.0000
                                            0.0000  0.0447 -0.0060  0.0001  0.0292
                                           -0.0039 -0.0012  0.0000  0.0000 -0.0016
                                           -0.0001 -0.0091  0.0022  0.0000  0.0000
                                            0.0000  0.0000 -0.0030 -0.0001 -0.0017
                                            0.0006
                ( 20.12%)   0.4486* H   4 s( 99.85%)p 0.00(  0.15%)d 0.00(  0.00%)
                                           -0.9984 -0.0389  0.0080  0.0041 -0.0194
                                           -0.0048 -0.0021  0.0064 -0.0306 -0.0115
                                            0.0000  0.0000  0.0000  0.0010  0.0001
                                            0.0000  0.0000  0.0000  0.0000  0.0024
                                            0.0033  0.0033  0.0021
     3. (1.99971) CR ( 1) O   1           s(100.00%)p 0.00(  0.00%)
                                            1.0000 -0.0004  0.0000  0.0000  0.0000
                                           -0.0001  0.0000 -0.0000  0.0000  0.0001
                                            0.0000  0.0000 -0.0000  0.0000  0.0000
                                            0.0000  0.0000  0.0000 -0.0000  0.0000
                                            0.0000  0.0000  0.0000  0.0000  0.0000
                                            0.0000 -0.0000 -0.0000 -0.0000  0.0000
                                           -0.0000 -0.0000  0.0000  0.0000  0.0000
                                            0.0000 -0.0000  0.0000  0.0000  0.0000
                                            0.0000  0.0000 -0.0000 -0.0000 -0.0000
                                            0.0000
     4. (1.99974) CR ( 1) I   3           s(100.00%)
                                            1.0000 -0.0003  0.0000 -0.0000  0.0000
                                            0.0000  0.0000  0.0000 -0.0000  0.0000
                                           -0.0000  0.0000  0.0001 -0.0000  0.0000
                                            0.0000  0.0000  0.0000  0.0000  0.0000
                                            0.0000  0.0000  0.0000  0.0000 -0.0000
                                            0.0000  0.0000  0.0000  0.0000  0.0000
                                            0.0000  0.0000  0.0000 -0.0000 -0.0000
                                           -0.0000  0.0000 -0.0000 -0.0000 -0.0000
                                           -0.0000  0.0000  0.0000 -0.0000  0.0000
                                           -0.0000  0.0000  0.0000  0.0000  0.0000
                                            0.0000 -0.0000  0.0000 -0.0000  0.0000
     5. (1.99998) CR ( 2) I   3           s(  0.00%)p 1.00(100.00%)
                                            0.0000  0.0000 -0.0000 -0.0000  0.0000
                                           -0.0000  1.0000 -0.0005 -0.0000 -0.0000
                                            0.0000  0.0000  0.0001  0.0000 -0.0000
                                            0.0000  0.0000  0.0000  0.0000  0.0000
                                            0.0000  0.0000 -0.0000 -0.0000  0.0000
                                            0.0000  0.0000  0.0000  0.0000  0.0000
                                            0.0000  0.0000  0.0000  0.0000 -0.0000
                                            0.0000  0.0000  0.0000  0.0000 -0.0000
                                            0.0000  0.0000  0.0000  0.0000  0.0000
                                           -0.0000 -0.0000  0.0000  0.0000  0.0000
                                            0.0000  0.0000  0.0000 -0.0000 -0.0000
     6. (1.99975) CR ( 3) I   3           s(  0.00%)p 1.00(100.00%)
                                            0.0000  0.0002  0.0000  0.0000 -0.0000
                                           -0.0000  0.0000  0.0001  0.0000  0.0000
                                           -0.0000  1.0000 -0.0001  0.0000 -0.0000
                                           -0.0000  0.0000  0.0000  0.0000  0.0000
                                            0.0000 -0.0000  0.0000  0.0000 -0.0000
                                            0.0000  0.0000  0.0000  0.0000  0.0000
                                            0.0000  0.0000  0.0000  0.0000  0.0000
                                           -0.0000 -0.0000  0.0000  0.0000  0.0000
                                           -0.0000  0.0000  0.0000 -0.0000 -0.0000
                                            0.0000 -0.0000  0.0000  0.0000  0.0000
                                            0.0000 -0.0000 -0.0000  0.0000  0.0000
     7. (1.99999) CR ( 4) I   3           s(  0.00%)p 1.00(100.00%)
                                            0.0000  0.0000  0.0000  0.0000  0.0000
                                            0.0000  0.0000  0.0000  0.0000  0.0000
                                            0.0000  0.0000  0.0000  0.0000  0.0000
                                            0.0000  1.0000 -0.0005 -0.0000 -0.0000
                                            0.0000  0.0000  0.0000  0.0000  0.0000
                                            0.0000 -0.0000  0.0000 -0.0000  0.0000
                                           -0.0000 -0.0000  0.0000  0.0000  0.0000
                                            0.0000  0.0000  0.0000  0.0000  0.0000
                                            0.0000  0.0000  0.0000  0.0000  0.0000
                                            0.0000  0.0000  0.0000  0.0000 -0.0000
                                           -0.0000  0.0000  0.0000  0.0000  0.0000
     8. (1.99670) CR ( 5) I   3           s(  0.00%)p 0.00(  0.00%)d 1.00(100.00%)
                                            0.0000  0.0000  0.0000  0.0000 -0.0000
                                           -0.0000  0.0000  0.0000  0.0000  0.0000
                                           -0.0000 -0.0000 -0.0000  0.0000 -0.0000
                                           -0.0000  0.0000  0.0000  0.0000  0.0000
                                            0.0000  1.0000  0.0000  0.0000 -0.0000
                                            0.0000  0.0000  0.0000  0.0000  0.0000
                                            0.0000  0.0000  0.0000  0.0000  0.0000
                                           -0.0000 -0.0000  0.0000  0.0000  0.0000
                                           -0.0000  0.0000  0.0000 -0.0000 -0.0000
                                            0.0000 -0.0000  0.0000  0.0000  0.0000
                                            0.0000 -0.0000 -0.0000  0.0000  0.0000
     9. (1.99678) CR ( 6) I   3           s(  0.00%)p 0.00(  0.00%)d 1.00(100.00%)
                                            0.0000  0.0000  0.0000  0.0000  0.0000
                                            0.0000  0.0000  0.0000  0.0000  0.0000
                                            0.0000  0.0000  0.0000  0.0000  0.0000
                                            0.0000  0.0000  0.0000  0.0000  0.0000
                                           -0.0000  0.0000  0.0000  0.0000  0.0000
                                            1.0000  0.0000 -0.0000  0.0000 -0.0000
                                            0.0000  0.0000 -0.0000  0.0000  0.0000
                                            0.0000  0.0000  0.0000  0.0000  0.0000
                                            0.0000 -0.0000 -0.0000  0.0000  0.0000
                                            0.0000  0.0000 -0.0000 -0.0000  0.0000
                                            0.0000  0.0000  0.0000  0.0000  0.0000
    10. (1.99675) CR ( 7) I   3           s(  0.00%)p 0.00(  0.00%)d 1.00(100.00%)
                                            0.0000  0.0000  0.0000  0.0000  0.0000
                                            0.0000  0.0000  0.0000  0.0000  0.0000
                                            0.0000  0.0000  0.0000  0.0000  0.0000
                                            0.0000  0.0000  0.0000  0.0000  0.0000
                                           -0.0000  0.0000  0.0000  0.0000  0.0000
                                           -0.0000  0.0000 -0.0000  0.0000  1.0000
                                            0.0000  0.0000 -0.0000  0.0000  0.0000
                                            0.0000  0.0000  0.0000  0.0000  0.0000
                                            0.0000 -0.0000 -0.0000  0.0000  0.0000
                                            0.0000  0.0000 -0.0000 -0.0000  0.0000
                                            0.0000  0.0000  0.0000  0.0000  0.0000
    11. (1.99657) CR ( 8) I   3           s(  0.00%)p 0.00(  0.00%)d 1.00(100.00%)
                                           -0.0000 -0.0001  0.0000 -0.0000  0.0000
                                            0.0000  0.0000  0.0000  0.0000  0.0000
                                           -0.0000  0.0000  0.0000 -0.0000  0.0000
                                           -0.0000  0.0000  0.0000  0.0000  0.0000
                                            0.0000  0.0000  0.0000  0.0000 -0.0000
                                            0.0000  0.0000  0.0000  0.0000  0.0000
                                            0.0000  0.0000  0.0000  1.0000 -0.0000
                                           -0.0000  0.0000 -0.0000 -0.0000 -0.0000
                                           -0.0000  0.0000  0.0000 -0.0000 -0.0000
                                           -0.0000  0.0000  0.0000  0.0000  0.0000
                                            0.0000 -0.0000 -0.0000  0.0000  0.0000
    12. (1.99670) CR ( 9) I   3           s(  0.00%)p 0.00(  0.00%)d 1.00(100.00%)
                                           -0.0000 -0.0000  0.0000 -0.0000  0.0000
                                            0.0000  0.0000  0.0000 -0.0000 -0.0000
                                           -0.0000  0.0000  0.0000 -0.0000  0.0000
                                            0.0000  0.0000  0.0000  0.0000  0.0000
                                            0.0000  0.0000  0.0000  0.0000  0.0000
                                            0.0000  0.0000  0.0000  0.0000  0.0000
                                            0.0000  0.0000  0.0000 -0.0000 -0.0000
                                           -0.0000  0.0000  1.0000 -0.0000 -0.0000
                                            0.0000  0.0000  0.0000  0.0000  0.0000
                                           -0.0000  0.0000  0.0000  0.0000  0.0000
                                            0.0000 -0.0000  0.0000 -0.0000  0.0000
    13. (1.96876) LP ( 1) O   1           s( 60.72%)p 0.65( 39.19%)d 0.00(  0.08%)
                                                  f 0.00(  0.00%)
                                            0.0002  0.7793  0.0010  0.0017 -0.0001
                                           -0.4236 -0.0017  0.0027  0.0007  0.4609
                                            0.0047 -0.0034  0.0015  0.0000  0.0000
                                            0.0000  0.0000  0.0255 -0.0037 -0.0008
                                            0.0000  0.0000  0.0000  0.0000  0.0000
                                            0.0000 -0.0021  0.0005 -0.0006  0.0117
                                           -0.0021  0.0017  0.0000  0.0000  0.0029
                                           -0.0009 -0.0018  0.0005  0.0000  0.0000
                                            0.0000  0.0000  0.0008 -0.0016  0.0017
                                           -0.0001
    14. (1.95747) LP ( 2) O   1           s(  0.00%)p 1.00( 99.81%)d 0.00(  0.18%)
                                                  f 0.00(  0.01%)
                                            0.0000  0.0000  0.0000  0.0000  0.0000
                                            0.0000  0.0000  0.0000  0.0000  0.0000
                                            0.0000  0.0000  0.0000  0.9988  0.0226
                                           -0.0056  0.0052  0.0000  0.0000  0.0000
                                            0.0366 -0.0035 -0.0014 -0.0213  0.0029
                                            0.0015  0.0000  0.0000  0.0000  0.0000
                                            0.0000  0.0000 -0.0091  0.0031  0.0000
                                            0.0000  0.0000  0.0000  0.0008  0.0014
                                            0.0018 -0.0007  0.0000  0.0000  0.0000
                                            0.0000
    15. (1.97780) LP ( 1) I   3           s( 92.42%)p 0.08(  7.58%)d 0.00(  0.00%)
                                                  f 0.00(  0.00%)
                                            0.0003  0.9614 -0.0001  0.0011 -0.0004
                                           -0.0002 -0.0000 -0.0555  0.0005 -0.0001
                                            0.0000 -0.0002 -0.2696  0.0019 -0.0003
                                           -0.0001  0.0000  0.0000  0.0000  0.0000
                                            0.0000 -0.0000 -0.0006 -0.0002 -0.0000
                                            0.0000  0.0000  0.0000  0.0000  0.0000
                                            0.0000  0.0000  0.0000  0.0001  0.0013
                                            0.0003 -0.0002  0.0001  0.0008  0.0002
                                            0.0000  0.0000  0.0000  0.0000 -0.0000
                                            0.0001 -0.0001  0.0000  0.0000  0.0000
                                            0.0000  0.0001 -0.0001  0.0001 -0.0002
    16. (1.95184) LP ( 2) I   3           s(  0.00%)p 1.00( 99.99%)d 0.00(  0.00%)
                                                  f 0.00(  0.00%)
                                            0.0000  0.0000  0.0000  0.0000  0.0000
                                            0.0000  0.0000  0.0000  0.0000  0.0000
                                            0.0000  0.0000  0.0000  0.0000  0.0000
                                            0.0000  0.0005  1.0000  0.0032  0.0016
                                           -0.0002  0.0000  0.0000  0.0000  0.0000
                                           -0.0000  0.0023 -0.0008  0.0004 -0.0000
                                            0.0045  0.0006 -0.0035  0.0000  0.0000
                                            0.0000  0.0000  0.0000  0.0000  0.0000
                                            0.0000 -0.0025 -0.0014  0.0000  0.0000
                                            0.0000  0.0000 -0.0026 -0.0011  0.0014
                                            0.0009  0.0000  0.0000  0.0000  0.0000
    17. (1.95162) LP ( 3) I   3           s(  0.00%)p 1.00( 99.99%)d 0.00(  0.01%)
                                                  f 0.00(  0.00%)
                                            0.0000  0.0018 -0.0004 -0.0017  0.0015
                                           -0.0001 -0.0005 -0.9781 -0.0042 -0.0021
                                            0.0007  0.0001  0.2078  0.0002 -0.0002
                                            0.0005 -0.0000 -0.0000 -0.0000 -0.0000
                                           -0.0000  0.0000 -0.0048 -0.0005  0.0031
                                           -0.0000 -0.0000 -0.0000 -0.0000 -0.0000
                                           -0.0000 -0.0000 -0.0000  0.0000 -0.0041
                                            0.0008  0.0004 -0.0000  0.0005 -0.0005
                                            0.0008 -0.0000 -0.0000  0.0011  0.0007
                                           -0.0002 -0.0000 -0.0000 -0.0000 -0.0000
                                           -0.0000  0.0027  0.0010 -0.0025 -0.0014
    18. (1.78803) LP ( 4) I   3           s(  7.58%)p12.19( 92.34%)d 0.01(  0.07%)
                                                  f 0.00(  0.01%)
                                            0.0000  0.2752  0.0003 -0.0044  0.0017
                                            0.0006 -0.0000  0.2002 -0.0012 -0.0008
                                            0.0001  0.0000  0.9398 -0.0076 -0.0042
                                            0.0009  0.0000  0.0000  0.0000  0.0000
                                            0.0000 -0.0000  0.0095 -0.0008 -0.0009
                                            0.0000  0.0000  0.0000  0.0000  0.0000
                                            0.0000  0.0000  0.0000 -0.0000 -0.0194
                                            0.0019  0.0030  0.0000 -0.0132  0.0017
                                            0.0011  0.0000  0.0000 -0.0014 -0.0006
                                           -0.0069 -0.0031  0.0000  0.0000  0.0000
                                            0.0000 -0.0049 -0.0016 -0.0069 -0.0026
    19. (0.02249) RY*( 1) O   1           s(  0.00%)p 1.00( 98.60%)d 0.01(  1.37%)
                                                  f 0.00(  0.03%)
                                            0.0000  0.0000  0.0000  0.0000  0.0000
                                            0.0000  0.0000  0.0000  0.0000  0.0000
                                            0.0000  0.0000  0.0000 -0.0272  0.9921
                                            0.0240 -0.0191  0.0000  0.0000  0.0000
                                            0.0886 -0.0164  0.0059 -0.0709  0.0187
                                           -0.0106  0.0000  0.0000  0.0000  0.0000
                                            0.0000  0.0000 -0.0123  0.0128  0.0000
                                            0.0000  0.0000  0.0000 -0.0048  0.0030
                                            0.0001 -0.0018  0.0000  0.0000  0.0000
                                            0.0000
    20. (0.01724) RY*( 2) O   1           s( 20.65%)p 3.71( 76.68%)d 0.13(  2.58%)
                                                  f 0.00(  0.09%)
                                           -0.0000 -0.0052  0.4542  0.0060 -0.0090
                                           -0.0040 -0.4999 -0.0058  0.0135 -0.0148
                                            0.7183  0.0077 -0.0189  0.0000  0.0000
                                            0.0000  0.0000  0.1548 -0.0260  0.0100
                                            0.0000  0.0000  0.0000  0.0000  0.0000
                                            0.0000 -0.0010  0.0048  0.0009  0.0293
                                           -0.0121  0.0067  0.0000  0.0000  0.0035
                                           -0.0033  0.0028  0.0022  0.0000  0.0000
                                            0.0000  0.0000  0.0227 -0.0133  0.0131
                                           -0.0051
    21. (0.00872) RY*( 3) O   1           s(  7.48%)p11.19( 83.72%)d 1.15(  8.63%)
                                                  f 0.02(  0.17%)
                                            0.0000 -0.0081  0.2704 -0.0249  0.0313
                                           -0.0419 -0.6760 -0.0225  0.0255 -0.0129
                                           -0.6125  0.0045 -0.0443 -0.0000 -0.0000
                                           -0.0000 -0.0000 -0.1595 -0.0164  0.0062
                                           -0.0000 -0.0000 -0.0000 -0.0000 -0.0000
                                           -0.0000  0.2329  0.0526 -0.0208  0.0530
                                            0.0166 -0.0062 -0.0000 -0.0000 -0.0130
                                            0.0073  0.0049 -0.0064 -0.0000 -0.0000
                                           -0.0000 -0.0000  0.0292 -0.0211 -0.0087
                                            0.0009
    22. (0.00657) RY*( 4) O   1           s( 22.11%)p 0.27(  5.91%)d 3.22( 71.19%)
                                                  f 0.04(  0.79%)
                                            0.0000  0.0161  0.4700  0.0018  0.0028
                                            0.0253  0.2362  0.0060 -0.0041  0.0295
                                            0.0185  0.0120 -0.0351 -0.0000 -0.0000
                                           -0.0000 -0.0000 -0.7318 -0.0206 -0.0015
                                           -0.0000 -0.0000 -0.0000 -0.0000 -0.0000
                                           -0.0000 -0.3547 -0.0064  0.0001  0.2213
                                            0.0314 -0.0115 -0.0000 -0.0000  0.0057
                                            0.0046  0.0306 -0.0199 -0.0000 -0.0000
                                           -0.0000 -0.0000 -0.0709  0.0334 -0.0184
                                           -0.0039
    23. (0.00637) RY*( 5) O   1           s(  0.00%)p 1.00(  0.01%)d99.99( 98.78%)
                                                  f86.79(  1.20%)
                                            0.0000  0.0000  0.0000  0.0000  0.0000
                                            0.0000  0.0000  0.0000  0.0000  0.0000
                                            0.0000  0.0000  0.0000 -0.0041  0.0060
                                            0.0093 -0.0007  0.0000  0.0000  0.0000
                                            0.5807  0.0414 -0.0111  0.8040  0.0490
                                           -0.0022  0.0000  0.0000  0.0000  0.0000
                                            0.0000  0.0000  0.0114 -0.0129  0.0000
                                            0.0000  0.0000  0.0000  0.0932 -0.0549
                                            0.0004  0.0053  0.0000  0.0000  0.0000
                                            0.0000
    24. (0.00595) RY*( 6) O   1           s(  0.00%)p 1.00(  1.43%)d68.11( 97.60%)
                                                  f 0.67(  0.97%)
                                            0.0000  0.0000  0.0000  0.0000  0.0000
                                            0.0000  0.0000  0.0000  0.0000  0.0000
                                            0.0000  0.0000  0.0000 -0.0395 -0.1114
                                           -0.0173  0.0077  0.0000  0.0000  0.0000
                                            0.7952  0.0800 -0.0282 -0.5774 -0.0542
                                            0.0109  0.0000  0.0000  0.0000  0.0000
                                            0.0000  0.0000 -0.0731  0.0394  0.0000
                                            0.0000  0.0000  0.0000  0.0303 -0.0115
                                           -0.0378  0.0170  0.0000  0.0000  0.0000
                                            0.0000
    25. (0.00582) RY*( 7) O   1           s(  4.32%)p 1.26(  5.44%)d20.71( 89.51%)
                                                  f 0.17(  0.73%)
                                           -0.0000  0.0152  0.2071 -0.0105  0.0024
                                            0.0356  0.1950  0.0213 -0.0022 -0.0347
                                           -0.1144 -0.0106 -0.0160  0.0000  0.0000
                                            0.0000  0.0000  0.3989  0.0234 -0.0021
                                            0.0000  0.0000  0.0000  0.0000  0.0000
                                            0.0000  0.1039  0.0147 -0.0008  0.8456
                                            0.0941 -0.0211  0.0000  0.0000  0.0559
                                           -0.0288 -0.0475  0.0265  0.0000  0.0000
                                            0.0000  0.0000  0.0113 -0.0050  0.0145
                                           -0.0026
    26. (0.00492) RY*( 8) O   1           s( 14.33%)p 0.70(  9.97%)d 5.12( 73.43%)
                                                  f 0.16(  2.27%)
                                            0.0000 -0.0037  0.3784  0.0071 -0.0047
                                            0.0455  0.0585  0.0173 -0.0006  0.0281
                                           -0.2955  0.0050 -0.0758 -0.0000 -0.0000
                                           -0.0000 -0.0000  0.4811  0.0235  0.0056
                                           -0.0000 -0.0000 -0.0000 -0.0000 -0.0000
                                           -0.0000 -0.6439 -0.0177 -0.0050 -0.2943
                                           -0.0262  0.0056 -0.0000 -0.0000  0.0290
                                           -0.0180  0.0540 -0.0389 -0.0000 -0.0000
                                           -0.0000 -0.0000  0.0133 -0.0188  0.1117
                                           -0.0637
    27. (0.00242) RY*( 9) O   1           s( 28.88%)p 0.67( 19.29%)d 1.76( 50.86%)
                                                  f 0.03(  0.97%)
                                            0.0000 -0.0050  0.5357 -0.0362 -0.0231
                                           -0.0247  0.4322  0.0041  0.0029 -0.0068
                                           -0.0466 -0.0215 -0.0524  0.0000  0.0000
                                            0.0000  0.0000  0.0806  0.0146 -0.0131
                                            0.0000  0.0000  0.0000  0.0000  0.0000
                                            0.0000  0.5937  0.1394  0.0612 -0.3359
                                           -0.1138 -0.0143  0.0000  0.0000 -0.0304
                                            0.0474  0.0106 -0.0059  0.0000  0.0000
                                            0.0000  0.0000  0.0531 -0.0594 -0.0087
                                           -0.0008
    28. (0.00063) RY*(10) O   1           s( 34.19%)p 1.59( 54.41%)d 0.25(  8.50%)
                                                  f 0.08(  2.90%)
                                            0.0000 -0.0048 -0.0065  0.5778 -0.0893
                                           -0.0021 -0.0296  0.1677 -0.1099 -0.0008
                                           -0.0077 -0.7040 -0.0855 -0.0000 -0.0000
                                           -0.0000 -0.0000 -0.0298  0.1512 -0.1096
                                           -0.0000 -0.0000 -0.0000 -0.0000 -0.0000
                                           -0.0000  0.0210 -0.0543  0.0940  0.0284
                                           -0.1245  0.1439 -0.0000 -0.0000  0.0405
                                            0.0007  0.1270 -0.0130 -0.0000 -0.0000
                                           -0.0000 -0.0000  0.0230  0.0054  0.1024
                                           -0.0025
    29. (0.00056) RY*(11) O   1           s(  0.00%)p 1.00( 33.66%)d 1.79( 60.17%)
                                                  f 0.18(  6.17%)
                                            0.0000  0.0000  0.0000  0.0000  0.0000
                                            0.0000  0.0000  0.0000  0.0000  0.0000
                                            0.0000  0.0000  0.0000 -0.0026 -0.0421
                                            0.5773  0.0401  0.0000  0.0000  0.0000
                                            0.0428 -0.3254  0.0313 -0.0421  0.6996
                                           -0.0420  0.0000  0.0000  0.0000  0.0000
                                            0.0000  0.0000 -0.1427  0.0244  0.0000
                                            0.0000  0.0000  0.0000 -0.1488  0.0131
                                           -0.1357 -0.0046  0.0000  0.0000  0.0000
                                            0.0000
    30. (0.00054) RY*(12) O   1           s(  3.71%)p 3.28( 12.16%)d19.23( 71.38%)
                                                  f 3.43( 12.75%)
                                           -0.0000  0.0029 -0.0301  0.1837  0.0496
                                            0.0031  0.0049 -0.0594 -0.0284 -0.0085
                                           -0.0188  0.3167 -0.1285 -0.0000 -0.0000
                                           -0.0000 -0.0000 -0.0310 -0.3485 -0.0443
                                           -0.0000 -0.0000 -0.0000 -0.0000 -0.0000
                                           -0.0000  0.0136 -0.2530  0.0641  0.0999
                                           -0.7029  0.1305 -0.0000 -0.0000  0.1555
                                           -0.0039  0.0130  0.0051 -0.0000 -0.0000
                                           -0.0000 -0.0000  0.2443 -0.0124  0.2076
                                           -0.0113
    31. (0.00051) RY*(13) O   1           s(  0.00%)p 1.00( 64.70%)d 0.43( 27.75%)
                                                  f 0.12(  7.54%)
                                            0.0000  0.0000  0.0000  0.0000  0.0000
                                            0.0000  0.0000  0.0000  0.0000  0.0000
                                            0.0000  0.0000  0.0000 -0.0062  0.0003
                                           -0.7805 -0.1945  0.0000  0.0000  0.0000
                                            0.0086 -0.1133  0.0031 -0.0083  0.5141
                                            0.0155  0.0000  0.0000  0.0000  0.0000
                                            0.0000  0.0000 -0.1017  0.0017  0.0000
                                            0.0000  0.0000  0.0000 -0.1024  0.0152
                                           -0.2332 -0.0055  0.0000  0.0000  0.0000
                                            0.0000
    32. (0.00046) RY*(14) O   1           s(  0.00%)p 1.00(  0.03%)d99.99(  7.94%)
                                                  f99.99( 92.03%)
                                            0.0000  0.0000  0.0000  0.0000  0.0000
                                            0.0000  0.0000  0.0000  0.0000  0.0000
                                            0.0000  0.0000  0.0000  0.0029 -0.0025
                                           -0.0170  0.0035  0.0000  0.0000  0.0000
                                            0.0150 -0.1567 -0.0133 -0.0878  0.2072
[...]
                                            0.0062  0.0076  0.3322  0.1254  0.0371
                                            0.0000  0.0000  0.0000 -0.0424 -0.0107
                                            0.0000  0.0000  0.0000  0.0000  0.0476
                                            0.0230  0.0261  0.0108
   125. (0.00415) RY*( 2) H   4           s(  0.00%)p 1.00( 98.09%)d 0.02(  1.91%)
                                            0.0000  0.0000  0.0000  0.0000  0.0000
                                            0.0000  0.0000  0.0000  0.0000  0.0000
                                            0.9830  0.1190 -0.0209  0.0000  0.0000
                                           -0.0150  0.0172 -0.1086  0.0825  0.0000
                                            0.0000  0.0000  0.0000
   126. (0.00383) RY*( 3) H   4           s(  2.43%)p39.44( 95.99%)d 0.65(  1.57%)
                                            0.0221 -0.0378  0.1189 -0.0910 -0.6952
                                           -0.0002  0.0322  0.6847 -0.0752  0.0337
                                            0.0000  0.0000  0.0000  0.1023 -0.0300
                                            0.0000  0.0000  0.0000  0.0000  0.0421
                                           -0.0175  0.0466 -0.0105
   127. (0.00307) RY*( 4) H   4           s( 17.67%)p 4.60( 81.34%)d 0.06(  0.98%)
                                           -0.0148  0.3658 -0.1920  0.0763 -0.6401
                                            0.0436 -0.0108 -0.5693  0.2774 -0.0248
                                           -0.0000 -0.0000 -0.0000  0.0778 -0.0435
                                           -0.0000 -0.0000 -0.0000 -0.0000  0.0220
                                            0.0274  0.0244  0.0059
   128. (0.00123) RY*( 5) H   4           s( 33.28%)p 1.76( 58.51%)d 0.25(  8.21%)
                                            0.0155  0.2428  0.4873  0.1900 -0.0979
                                           -0.2630  0.0362 -0.2267 -0.6713  0.0552
                                           -0.0000 -0.0000 -0.0000  0.1329  0.0365
                                           -0.0000 -0.0000 -0.0000 -0.0000 -0.1512
                                           -0.1151 -0.1511 -0.0647
   129. (0.00040) RY*( 6) H   4           s(  1.01%)p90.68( 91.90%)d 6.99(  7.09%)
                                            0.0000 -0.0530  0.0841 -0.0158  0.0102
                                           -0.9013  0.0283  0.0174  0.2955 -0.1346
                                           -0.0000 -0.0000 -0.0000 -0.0759 -0.1773
                                           -0.0000 -0.0000 -0.0000 -0.0000  0.0467
                                            0.0093  0.1763  0.0173
   130. (0.00038) RY*( 7) H   4           s(  0.00%)p 1.00( 52.04%)d 0.92( 47.96%)
                                            0.0000  0.0000  0.0000  0.0000  0.0000
                                            0.0000  0.0000  0.0000  0.0000  0.0000
                                           -0.0177  0.7060  0.1472  0.0000  0.0000
                                            0.0896  0.0537  0.6738  0.1212  0.0000
                                            0.0000  0.0000  0.0000
   131. (0.00030) RY*( 8) H   4           s(  0.05%)p99.99(  8.24%)d99.99( 91.70%)
                                           -0.0002  0.0217  0.0086  0.0009 -0.1359
                                            0.0082 -0.2071  0.0128 -0.0344  0.1402
                                           -0.0000 -0.0000 -0.0000 -0.8377  0.0054
                                           -0.0000 -0.0000 -0.0000 -0.0000 -0.4629
                                           -0.0140  0.0193 -0.0200
   132. (0.00029) RY*( 9) H   4           s(  0.00%)p 1.00( 51.38%)d 0.95( 48.62%)
                                            0.0000  0.0000  0.0000  0.0000  0.0000
                                            0.0000  0.0000  0.0000  0.0000  0.0000
                                           -0.1715  0.6741 -0.1734  0.0000  0.0000
                                           -0.0732  0.0186 -0.6844  0.1097  0.0000
                                            0.0000  0.0000  0.0000
   133. (0.00024) RY*(10) H   4           s(  3.84%)p11.71( 44.93%)d13.35( 51.23%)
                                            0.0174  0.0302  0.0671  0.1807 -0.0480
                                            0.1052 -0.1867 -0.0156 -0.2497 -0.5818
                                            0.0000  0.0000  0.0000 -0.3470 -0.0619
                                            0.0000  0.0000  0.0000  0.0000  0.5679
                                            0.1506  0.1564  0.1358
   134. (0.00020) RY*(11) H   4           s(  0.00%)p 1.00(  0.29%)d99.99( 99.71%)
                                            0.0000  0.0000  0.0000  0.0000  0.0000
                                            0.0000  0.0000  0.0000  0.0000  0.0000
                                            0.0066 -0.0024 -0.0532  0.0000  0.0000
                                            0.9815 -0.1524 -0.1018 -0.0134  0.0000
                                            0.0000  0.0000  0.0000
   135. (0.00019) RY*(12) H   4           s(  3.55%)p 1.42(  5.03%)d25.78( 91.43%)
                                           -0.0065 -0.0201  0.1453 -0.1179 -0.0421
                                           -0.0725  0.0034  0.0025  0.1960  0.0695
                                           -0.0000 -0.0000 -0.0000 -0.1835  0.0237
                                           -0.0000 -0.0000 -0.0000 -0.0000  0.3102
                                           -0.0630 -0.8752  0.1173
   136. (0.00012) RY*(13) H   4           s( 66.49%)p 0.22( 14.88%)d 0.28( 18.63%)
                                           -0.0023  0.0131  0.6039 -0.5477  0.0150
                                            0.2020 -0.0281 -0.1297  0.1976 -0.2260
                                            0.0000  0.0000  0.0000  0.0701 -0.1721
                                            0.0000  0.0000  0.0000  0.0000 -0.2045
                                            0.2723  0.0928  0.1650
   137. (0.00009) RY*(14) H   4           s( 66.25%)p 0.38( 25.49%)d 0.12(  8.26%)
   138. (0.00007) RY*(15) H   4           s(  9.11%)p 2.26( 20.59%)d 7.72( 70.30%)
   139. (0.00008) RY*(16) H   4           s(  0.00%)p 1.00( 22.22%)d 3.50( 77.78%)
   140. (0.00004) RY*(17) H   4           s( 10.33%)p 4.19( 43.30%)d 4.49( 46.37%)
   141. (0.00003) RY*(18) H   4           s(  0.87%)p84.85( 73.71%)d29.27( 25.43%)
   142. (0.00004) RY*(19) H   4           s(  4.65%)p 2.45( 11.40%)d18.06( 83.95%)
   143. (0.00003) RY*(20) H   4           s(  0.00%)p 1.00(  1.04%)d95.45( 98.96%)
   144. (0.00003) RY*(21) H   4           s(  0.00%)p 1.00( 74.94%)d 0.33( 25.06%)
   145. (0.00003) RY*(22) H   4           s(  1.02%)p 4.60(  4.69%)d92.50( 94.29%)
   146. (0.02250) BD*( 1) O   1 - H   2  
                ( 27.45%)   0.5239* O   1 s( 21.50%)p 3.63( 77.99%)d 0.02(  0.50%)
                                                  f 0.00(  0.01%)
                                           -0.0002 -0.4635  0.0093  0.0040  0.0014
                                           -0.8818  0.0379 -0.0092  0.0051 -0.0287
                                            0.0065  0.0012  0.0023 -0.0000 -0.0000
                                           -0.0000 -0.0000  0.0157 -0.0041  0.0020
                                           -0.0000 -0.0000 -0.0000 -0.0000 -0.0000
                                           -0.0000 -0.0591  0.0057 -0.0043  0.0339
                                           -0.0012  0.0001 -0.0000 -0.0000  0.0099
                                           -0.0006  0.0005 -0.0001 -0.0000 -0.0000
                                           -0.0000 -0.0000 -0.0050 -0.0035 -0.0008
                                            0.0004
                ( 72.55%)  -0.8518* H   2 s( 99.84%)p 0.00(  0.16%)d 0.00(  0.00%)
                                           -0.9992 -0.0048 -0.0001  0.0003 -0.0217
                                            0.0323  0.0044  0.0083 -0.0011  0.0001
                                           -0.0000 -0.0000 -0.0000  0.0000 -0.0027
                                           -0.0000 -0.0000 -0.0000 -0.0000 -0.0020
                                           -0.0033  0.0028  0.0021
   147. (0.19474) BD*( 1) O   1 - H   4  
                ( 20.12%)   0.4486* O   1 s( 17.72%)p 4.62( 81.96%)d 0.02(  0.31%)
                                                  f 0.00(  0.01%)
                                            0.0003  0.4209  0.0038 -0.0004  0.0007
                                           -0.1901  0.0149 -0.0018  0.0017 -0.8850
                                           -0.0042 -0.0034  0.0038 -0.0000 -0.0000
                                           -0.0000 -0.0000 -0.0130  0.0025 -0.0013
                                           -0.0000 -0.0000 -0.0000 -0.0000 -0.0000
                                           -0.0000 -0.0447  0.0060 -0.0001 -0.0292
                                            0.0039  0.0012 -0.0000 -0.0000  0.0016
                                            0.0001  0.0091 -0.0022 -0.0000 -0.0000
                                           -0.0000 -0.0000  0.0030  0.0001  0.0017
                                           -0.0006
                ( 79.88%)  -0.8937* H   4 s( 99.85%)p 0.00(  0.15%)d 0.00(  0.00%)
                                            0.9984  0.0389 -0.0080 -0.0041  0.0194
                                            0.0048  0.0021 -0.0064  0.0306  0.0115
                                           -0.0000 -0.0000 -0.0000 -0.0010 -0.0001
                                           -0.0000 -0.0000 -0.0000 -0.0000 -0.0024
                                           -0.0033 -0.0033 -0.0021


 NHO Directionality and "Bond Bending" (deviations from line of nuclear centers)

         [Thresholds for printing:  angular deviation  >  1.0 degree]
                                    hybrid p-character > 25.0%
                                    orbital occupancy  >  0.10e

                                Line of Centers        Hybrid 1              Hybrid 2
                                ---------------  -------------------   ------------------
                NBO               Theta   Phi    Theta   Phi    Dev    Theta   Phi    Dev
 ========================================================================================
     1. BD (   1) O   1 - H   2    90.0    0.0    90.0    1.3   1.3      --     --    --
    13. LP (   1) O   1             --     --     90.0  132.3   --       --     --    --
    14. LP (   2) O   1             --     --      0.0    0.0   --       --     --    --
    16. LP (   2) I   3             --     --      0.0    0.0   --       --     --    --
    17. LP (   3) I   3             --     --     90.0  168.0   --       --     --    --
    18. LP (   4) I   3             --     --     90.0   78.0   --       --     --    --


 Natural Bond Orbitals (Summary):

           NBO                  Occupancy  
 -----------------------------------------------
 Molecular unit  1  (H2O)
     1. BD (   1) O   1 - H   2          1.96319
     2. BD (   1) O   1 - H   4          1.95448
     3. CR (   1) O   1                  1.99971
    13. LP (   1) O   1                  1.96876
    14. LP (   2) O   1                  1.95747
    19. RY*(   1) O   1                  0.02249
    20. RY*(   2) O   1                  0.01724
    21. RY*(   3) O   1                  0.00872
    22. RY*(   4) O   1                  0.00657
    23. RY*(   5) O   1                  0.00637
    24. RY*(   6) O   1                  0.00595
    25. RY*(   7) O   1                  0.00582
    26. RY*(   8) O   1                  0.00492
    27. RY*(   9) O   1                  0.00242
    28. RY*(  10) O   1                  0.00063
    29. RY*(  11) O   1                  0.00056
    30. RY*(  12) O   1                  0.00054
    31. RY*(  13) O   1                  0.00051
    32. RY*(  14) O   1                  0.00046
    33. RY*(  15) O   1                  0.00046
    34. RY*(  16) O   1                  0.00045
    35. RY*(  17) O   1                  0.00045
    36. RY*(  18) O   1                  0.00043
    37. RY*(  19) O   1                  0.00043
    38. RY*(  20) O   1                  0.00041
    39. RY*(  21) O   1                  0.00041
    40. RY*(  22) O   1                  0.00040
    41. RY*(  23) O   1                  0.00033
    42. RY*(  24) O   1                  0.00032
    43. RY*(  25) O   1                  0.00024
    44. RY*(  26) O   1                  0.00015
    45. RY*(  27) O   1                  0.00008
    46. RY*(  28) O   1                  0.00008
    47. RY*(  29) O   1                  0.00008
    48. RY*(  30) O   1                  0.00008
    49. RY*(  31) O   1                  0.00008
    50. RY*(  32) O   1                  0.00007
    51. RY*(  33) O   1                  0.00007
    52. RY*(  34) O   1                  0.00007
    53. RY*(  35) O   1                  0.00005
    54. RY*(  36) O   1                  0.00005
    55. RY*(  37) O   1                  0.00006
    56. RY*(  38) O   1                  0.00002
    57. RY*(  39) O   1                  0.00003
    58. RY*(  40) O   1                  0.00001
    59. RY*(  41) O   1                 -0.00015
    60. RY*(   1) H   2                  0.00454
    61. RY*(   2) H   2                  0.00243
    62. RY*(   3) H   2                  0.00231
    63. RY*(   4) H   2                  0.00145
    64. RY*(   5) H   2                  0.00030
    65. RY*(   6) H   2                  0.00020
    66. RY*(   7) H   2                  0.00019
    67. RY*(   8) H   2                  0.00015
    68. RY*(   9) H   2                  0.00011
    69. RY*(  10) H   2                  0.00012
    70. RY*(  11) H   2                  0.00011
    71. RY*(  12) H   2                  0.00009
    72. RY*(  13) H   2                  0.00007
    73. RY*(  14) H   2                  0.00007
    74. RY*(  15) H   2                  0.00004
    75. RY*(  16) H   2                  0.00004
    76. RY*(  17) H   2                  0.00005
    77. RY*(  18) H   2                  0.00003
    78. RY*(  19) H   2                  0.00002
    79. RY*(  20) H   2                  0.00001
    80. RY*(  21) H   2                  0.00002
    81. RY*(  22) H   2                  0.00002
   124. RY*(   1) H   4                  0.00914
   125. RY*(   2) H   4                  0.00415
   126. RY*(   3) H   4                  0.00383
   127. RY*(   4) H   4                  0.00307
   128. RY*(   5) H   4                  0.00123
   129. RY*(   6) H   4                  0.00040
   130. RY*(   7) H   4                  0.00038
   131. RY*(   8) H   4                  0.00030
   132. RY*(   9) H   4                  0.00029
   133. RY*(  10) H   4                  0.00024
   134. RY*(  11) H   4                  0.00020
   135. RY*(  12) H   4                  0.00019
   136. RY*(  13) H   4                  0.00012
   137. RY*(  14) H   4                  0.00009
   138. RY*(  15) H   4                  0.00007
   139. RY*(  16) H   4                  0.00008
   140. RY*(  17) H   4                  0.00004
   141. RY*(  18) H   4                  0.00003
   142. RY*(  19) H   4                  0.00004
   143. RY*(  20) H   4                  0.00003
   144. RY*(  21) H   4                  0.00003
   145. RY*(  22) H   4                  0.00003
   146. BD*(   1) O   1 - H   2          0.02250
   147. BD*(   1) O   1 - H   4          0.19474
       -------------------------------
              Total Lewis    9.84361  ( 96.6430%)
        Valence non-Lewis    0.21725  (  2.1329%)
        Rydberg non-Lewis    0.12468  (  1.2241%)
       -------------------------------
            Total unit  1   10.18554  (100.0000%)
           Charge unit  1   -0.18554

 Molecular unit  2  (I)
     4. CR (   1) I   3                  1.99974
     5. CR (   2) I   3                  1.99998
     6. CR (   3) I   3                  1.99975
     7. CR (   4) I   3                  1.99999
     8. CR (   5) I   3                  1.99670
     9. CR (   6) I   3                  1.99678
    10. CR (   7) I   3                  1.99675
    11. CR (   8) I   3                  1.99657
    12. CR (   9) I   3                  1.99670
    15. LP (   1) I   3                  1.97780
    16. LP (   2) I   3                  1.95184
    17. LP (   3) I   3                  1.95162
    18. LP (   4) I   3                  1.78803
    82. RY*(   1) I   3                  0.01991
    83. RY*(   2) I   3                  0.01991
    84. RY*(   3) I   3                  0.01985
    85. RY*(   4) I   3                  0.01979
    86. RY*(   5) I   3                  0.01888
    87. RY*(   6) I   3                  0.01052
    88. RY*(   7) I   3                  0.01048
    89. RY*(   8) I   3                  0.00846
    90. RY*(   9) I   3                  0.00283
    91. RY*(  10) I   3                  0.00275
    92. RY*(  11) I   3                  0.00275
    93. RY*(  12) I   3                  0.00275
    94. RY*(  13) I   3                  0.00275
    95. RY*(  14) I   3                  0.00266
    96. RY*(  15) I   3                  0.00267
    97. RY*(  16) I   3                  0.00240
    98. RY*(  17) I   3                  0.00163
    99. RY*(  18) I   3                  0.00163
   100. RY*(  19) I   3                  0.00127
   101. RY*(  20) I   3                  0.00125
   102. RY*(  21) I   3                  0.00103
   103. RY*(  22) I   3                  0.00071
   104. RY*(  23) I   3                  0.00071
   105. RY*(  24) I   3                  0.00060
   106. RY*(  25) I   3                  0.00043
   107. RY*(  26) I   3                  0.00042
   108. RY*(  27) I   3                  0.00042
   109. RY*(  28) I   3                  0.00041
   110. RY*(  29) I   3                  0.00041
   111. RY*(  30) I   3                  0.00036
   112. RY*(  31) I   3                  0.00036
   113. RY*(  32) I   3                  0.00029
   114. RY*(  33) I   3                  0.00014
   115. RY*(  34) I   3                  0.00014
   116. RY*(  35) I   3                  0.00012
   117. RY*(  36) I   3                  0.00012
   118. RY*(  37) I   3                  0.00009
   119. RY*(  38) I   3                  0.00008
   120. RY*(  39) I   3                  0.00006
   121. RY*(  40) I   3                  0.00007
   122. RY*(  41) I   3                  0.00005
   123. RY*(  42) I   3                  0.00001
       -------------------------------
              Total Lewis   53.65225  ( 99.6986%)
        Valence non-Lewis    0.00000  (  0.0000%)
        Rydberg non-Lewis    0.16221  (  0.3014%)
       -------------------------------
            Total unit  2   53.81446  (100.0000%)
           Charge unit  2   -0.81446
 Leave Link  607 at Tue Oct 26 13:22:05 2021, MaxMem= 16106127360 cpu:              75.0 elap:               2.7
 (Enter /sw/contrib/gaussian/g16/B01/g16/l9999.exe)
 1\1\GINC-N2097\SP\RMP2-FC\Gen\H2I1O1(1-)\CGAVINH\26-Oct-2021\0\\#p pop
 =NBO SP NoSymm mp2/gen Pseudo=read density=current\\title\\-1,1\O\X,1,
 10.\H,1,0.96090774,2,90.\I,1,3.50850138,2,90.,3,101.85832019,0\H,1,1.2
 5,2,90.,3,101.85832019,0\\Version=ES64L-G16RevB.01\HF=-370.7727781\MP2
 =-371.2848262\RMSD=4.071e-09\Dipole=0.5201723,-0.0194856,0.\Quadrupole
 =11.1666805,-21.7647934,10.5981128,-6.4575441,0.,0.\PG=CS [SG(H2I1O1)]
 \\@


 Everywhere is walking distance if you have the time.
                                    -- Steven Wright
 Job cpu time:       0 days  0 hours  4 minutes 13.1 seconds.
 Elapsed time:       0 days  0 hours  0 minutes 11.6 seconds.
 File lengths (MBytes):  RWF=     11 Int=      0 D2E=      0 Chk=      8 Scr=      1
 Normal termination of Gaussian 16 at Tue Oct 26 13:22:06 2021.
