 Entering Gaussian System, Link 0=g09
 Input=ihod_rOH_075_sp.gjf
 Output=ihod_rOH_075_sp.log
 Initial command:
 /usr/local/gaussian/g09/l1.exe "/scratch/Gau-32766.inp" -scrdir="/scratch/"
 Entering Link 1 = /usr/local/gaussian/g09/l1.exe PID=     32767.
  
 Copyright (c) 1988,1990,1992,1993,1995,1998,2003,2009,2015,
            Gaussian, Inc.  All Rights Reserved.
  
 This is part of the Gaussian(R) 09 program.  It is based on
 the Gaussian(R) 03 system (copyright 2003, Gaussian, Inc.),
 the Gaussian(R) 98 system (copyright 1998, Gaussian, Inc.),
 the Gaussian(R) 94 system (copyright 1995, Gaussian, Inc.),
 the Gaussian 92(TM) system (copyright 1992, Gaussian, Inc.),
 the Gaussian 90(TM) system (copyright 1990, Gaussian, Inc.),
 the Gaussian 88(TM) system (copyright 1988, Gaussian, Inc.),
 the Gaussian 86(TM) system (copyright 1986, Carnegie Mellon
 University), and the Gaussian 82(TM) system (copyright 1983,
 Carnegie Mellon University). Gaussian is a federally registered
 trademark of Gaussian, Inc.
  
 This software contains proprietary and confidential information,
 including trade secrets, belonging to Gaussian, Inc.
  
 This software is provided under written license and may be
 used, copied, transmitted, or stored only in accord with that
 written license.
  
 The following legend is applicable only to US Government
 contracts under FAR:
  
                    RESTRICTED RIGHTS LEGEND
  
 Use, reproduction and disclosure by the US Government is
 subject to restrictions as set forth in subparagraphs (a)
 and (c) of the Commercial Computer Software - Restricted
 Rights clause in FAR 52.227-19.
  
 Gaussian, Inc.
 340 Quinnipiac St., Bldg. 40, Wallingford CT 06492
  
  
 ---------------------------------------------------------------
 Warning -- This program may not be used in any manner that
 competes with the business of Gaussian, Inc. or will provide
 assistance to any competitor of Gaussian, Inc.  The licensee
 of this program is prohibited from giving any competitor of
 Gaussian, Inc. access to this program.  By using this program,
 the user acknowledges that Gaussian, Inc. is engaged in the
 business of creating and licensing software in the field of
 computational chemistry and represents and warrants to the
 licensee that it is not a competitor of Gaussian, Inc. and that
 it will not use this program in any manner prohibited above.
 ---------------------------------------------------------------
  

 Cite this work as:
 Gaussian 09, Revision E.01,
 M. J. Frisch, G. W. Trucks, H. B. Schlegel, G. E. Scuseria, 
 M. A. Robb, J. R. Cheeseman, G. Scalmani, V. Barone, B. Mennucci, 
 G. A. Petersson, H. Nakatsuji, M. Caricato, X. Li, H. P. Hratchian, 
 A. F. Izmaylov, J. Bloino, G. Zheng, J. L. Sonnenberg, M. Hada, 
 M. Ehara, K. Toyota, R. Fukuda, J. Hasegawa, M. Ishida, T. Nakajima, 
 Y. Honda, O. Kitao, H. Nakai, T. Vreven, J. A. Montgomery, Jr., 
 J. E. Peralta, F. Ogliaro, M. Bearpark, J. J. Heyd, E. Brothers, 
 K. N. Kudin, V. N. Staroverov, T. Keith, R. Kobayashi, J. Normand, 
 K. Raghavachari, A. Rendell, J. C. Burant, S. S. Iyengar, J. Tomasi, 
 M. Cossi, N. Rega, J. M. Millam, M. Klene, J. E. Knox, J. B. Cross, 
 V. Bakken, C. Adamo, J. Jaramillo, R. Gomperts, R. E. Stratmann, 
 O. Yazyev, A. J. Austin, R. Cammi, C. Pomelli, J. W. Ochterski, 
 R. L. Martin, K. Morokuma, V. G. Zakrzewski, G. A. Voth, 
 P. Salvador, J. J. Dannenberg, S. Dapprich, A. D. Daniels, 
 O. Farkas, J. B. Foresman, J. V. Ortiz, J. Cioslowski, 
 and D. J. Fox, Gaussian, Inc., Wallingford CT, 2013.
 
 ******************************************
 Gaussian 09:  ES64L-G09RevE.01 30-Nov-2015
                12-Oct-2021 
 ******************************************
 %nproc=12
 Will use up to   12 processors via shared memory.
 %mem=8000MB
 %chk=/home/netid.washington.edu/cgavinh/mccoy_hocl/rOH_s_oop_0/ihod/ihod_rOH_075
 _sp.chk
 --------------------------------------------------------
 #p pop=NBO SP NoSymm mp2/gen Pseudo=read density=current
 --------------------------------------------------------
 1/30=1,38=1/1;
 2/12=2,15=1,17=6,18=5,40=1/2;
 3/5=7,11=9,16=1,17=8,25=1,30=1,71=1/1,2,3;
 4//1;
 5/5=2,38=5/2;
 8/6=4,10=1/1;
 9/15=1,16=-3/6;
 10/5=1,13=10,31=1/2;
 6/7=2,8=2,9=2,10=2,22=-1,40=1/1,7;
 99/5=1,9=1/99;
 Leave Link    1 at Tue Oct 12 16:20:53 2021, MaxMem=  1048576000 cpu:         0.4
 (Enter /usr/local/gaussian/g09/l101.exe)
 -----
 title
 -----
 Symbolic Z-matrix:
 Charge = -1 Multiplicity = 1
 O
 X                    1     10. 
 H(iso=2)             1    r1       2     90. 
 I                    1    r2       2     90.      3    a1       0
 H                    1    r3       2    oop      3    a1       0
       Variables:
  r1                    0.96091                  
  r2                    3.5085                   
  r3                    0.75                     
  a1                  101.85831                  
  OOP                  90.                       
 
 NAtoms=      4 NQM=        4 NQMF=       0 NMMI=      0 NMMIF=      0
                NMic=       0 NMicF=      0.
                    Isotopes and Nuclear Properties:
 (Nuclear quadrupole moments (NQMom) in fm**2, nuclear magnetic moments (NMagM)
  in nuclear magnetons)

  Atom         1           2           3           4
 IAtWgt=          16           2         127           1
 AtmWgt=  15.9949146   2.0141018 126.9004000   1.0078250
 NucSpn=           0           2           5           1
 AtZEff=   0.0000000   0.0000000   0.0000000   0.0000000
 NQMom=    0.0000000   0.2860000 -71.0000000   0.0000000
 NMagM=    0.0000000   0.8574380   2.8132800   2.7928460
 AtZNuc=   8.0000000   1.0000000  53.0000000   1.0000000
 Leave Link  101 at Tue Oct 12 16:20:53 2021, MaxMem=  1048576000 cpu:         0.6
 (Enter /usr/local/gaussian/g09/l202.exe)
                          Input orientation:                          
 ---------------------------------------------------------------------
 Center     Atomic      Atomic             Coordinates (Angstroms)
 Number     Number       Type             X           Y           Z
 ---------------------------------------------------------------------
      1          8           0        0.000000    0.000000    0.000000
      2          1           0        0.960908    0.000000    0.000000
      3         53           0       -0.720970   -3.433628    0.000000
      4          1           0       -0.154119   -0.733994    0.000000
 ---------------------------------------------------------------------
                    Distance matrix (angstroms):
                    1          2          3          4
     1  O    0.000000
     2  H    0.960908   0.000000
     3  I    3.508504   3.823416   0.000000
     4  H    0.750000   1.334928   2.758504   0.000000
 Symmetry turned off by external request.
 Stoichiometry    H2IO(1-)
 Framework group  CS[SG(H2IO)]
 Deg. of freedom     5
 Full point group                 CS      NOp   2
 Rotational constants (GHZ):    322.4231343      2.4990353      2.4798148
 Leave Link  202 at Tue Oct 12 16:20:53 2021, MaxMem=  1048576000 cpu:         0.1
 (Enter /usr/local/gaussian/g09/l301.exe)
 General basis read from cards:  (5D, 7F)
 Centers:       2      4      1      2      4
 aug-cc-pVTZ
 ****
 Centers:       3
 S 11 1.00
     Exponent=  5.5465000000D+03 Coefficients=  1.5600000000D-04
     Exponent=  8.3821400000D+02 Coefficients=  9.8600000000D-04
     Exponent=  1.8218700000D+02 Coefficients=  2.7920000000D-03
     Exponent=  3.1212300000D+01 Coefficients= -4.3251000000D-02
     Exponent=  1.9531400000D+01 Coefficients=  2.3413400000D-01
     Exponent=  8.2409900000D+00 Coefficients= -7.5094300000D-01
     Exponent=  2.1945500000D+00 Coefficients=  8.8296800000D-01
     Exponent=  1.1091100000D+00 Coefficients=  4.6206100000D-01
     Exponent=  3.7464100000D-01 Coefficients=  2.2286000000D-02
     Exponent=  1.7708000000D-01 Coefficients= -4.3530000000D-03
     Exponent=  8.1061000000D-02 Coefficients=  1.1020000000D-03
 S 11 1.00
     Exponent=  5.5465000000D+03 Coefficients= -7.3000000000D-05
     Exponent=  8.3821400000D+02 Coefficients= -5.0800000000D-04
     Exponent=  1.8218700000D+02 Coefficients= -1.1580000000D-03
     Exponent=  3.1212300000D+01 Coefficients=  1.2193000000D-02
     Exponent=  1.9531400000D+01 Coefficients= -8.7854000000D-02
     Exponent=  8.2409900000D+00 Coefficients=  3.3820000000D-01
     Exponent=  2.1945500000D+00 Coefficients= -5.7655000000D-01
     Exponent=  1.1091100000D+00 Coefficients= -4.0929800000D-01
     Exponent=  3.7464100000D-01 Coefficients=  5.6745900000D-01
     Exponent=  1.7708000000D-01 Coefficients=  6.1248900000D-01
     Exponent=  8.1061000000D-02 Coefficients=  1.4323100000D-01
 S 1 1.00
     Exponent=  3.7464100000D-01 Coefficients=  1.0000000000D+00
 S 1 1.00
     Exponent=  1.7708000000D-01 Coefficients=  1.0000000000D+00
 S 1 1.00
     Exponent=  1.0010000000D-01 Coefficients=  1.0000000000D+00
 S 1 1.00
     Exponent=  4.1200000000D-02 Coefficients=  1.0000000000D+00
 P 9 1.00
     Exponent=  1.8898800000D+02 Coefficients=  5.8500000000D-04
     Exponent=  2.1286800000D+01 Coefficients=  3.6923000000D-02
     Exponent=  1.0039600000D+01 Coefficients= -2.3532400000D-01
     Exponent=  3.4518000000D+00 Coefficients=  3.4148300000D-01
     Exponent=  1.9745600000D+00 Coefficients=  5.3478800000D-01
     Exponent=  1.0242000000D+00 Coefficients=  2.6514100000D-01
     Exponent=  4.4943700000D-01 Coefficients=  2.5787000000D-02
     Exponent=  1.8664800000D-01 Coefficients=  5.2200000000D-04
     Exponent=  7.3481000000D-02 Coefficients=  6.0600000000D-04
 P 9 1.00
     Exponent=  1.8898800000D+02 Coefficients= -2.5600000000D-04
     Exponent=  2.1286800000D+01 Coefficients= -1.1682000000D-02
     Exponent=  1.0039600000D+01 Coefficients=  8.3192000000D-02
     Exponent=  3.4518000000D+00 Coefficients= -1.5697000000D-01
     Exponent=  1.9745600000D+00 Coefficients= -2.2451800000D-01
     Exponent=  1.0242000000D+00 Coefficients= -1.1445100000D-01
     Exponent=  4.4943700000D-01 Coefficients=  3.7535600000D-01
     Exponent=  1.8664800000D-01 Coefficients=  5.7513600000D-01
     Exponent=  7.3481000000D-02 Coefficients=  2.4591700000D-01
 P 1 1.00
     Exponent=  5.9810000000D-01 Coefficients=  1.0000000000D+00
 P 1 1.00
     Exponent=  9.6180000000D-02 Coefficients=  1.0000000000D+00
 P 1 1.00
     Exponent=  3.5900000000D-02 Coefficients=  1.0000000000D+00
 D 9 1.00
     Exponent=  1.3266200000D+02 Coefficients=  5.7200000000D-04
     Exponent=  3.7605400000D+01 Coefficients=  4.4020000000D-03
     Exponent=  1.0389100000D+01 Coefficients= -4.0922000000D-02
     Exponent=  6.4901700000D+00 Coefficients=  9.9661000000D-02
     Exponent=  3.4545100000D+00 Coefficients=  3.2266300000D-01
     Exponent=  1.8441300000D+00 Coefficients=  4.0034300000D-01
     Exponent=  9.6247800000D-01 Coefficients=  2.6830600000D-01
     Exponent=  4.7285300000D-01 Coefficients=  8.4847000000D-02
     Exponent=  1.9320000000D-01 Coefficients=  7.6320000000D-03
 D 1 1.00
     Exponent=  4.7285300000D-01 Coefficients=  1.0000000000D+00
 D 1 1.00
     Exponent=  1.9320000000D-01 Coefficients=  1.0000000000D+00
 D 1 1.00
     Exponent=  7.8200000000D-02 Coefficients=  1.0000000000D+00
 F 1 1.00
     Exponent=  4.0640000000D-01 Coefficients=  1.0000000000D+00
 F 1 1.00
     Exponent=  1.8480000000D-01 Coefficients=  1.0000000000D+00
 ****
 ======================================================================================================
                                       Pseudopotential Parameters
 ======================================================================================================
  Center     Atomic      Valence      Angular      Power
  Number     Number     Electrons     Momentum     of R      Exponent        Coefficient   SO-Coeffient
 ======================================================================================================
    1          8
                                   No pseudopotential on this center.
    2          1
                                   No pseudopotential on this center.
    3         53           25
                                      G and up 
                                                     2        1.0000000        0.00000000    0.00000000
                                      S - G
                                                     2       40.0333760       49.98964900    0.00000000
                                                     2       17.3005760      281.00655600    0.00000000
                                                     2        8.8517200       61.41673900    0.00000000
                                      P - G
                                                     2       15.7201410       67.41623900    0.00000000
                                                     2       15.2082220      134.80769600    0.00000000
                                                     2        8.2941860       14.56654800    0.00000000
                                                     2        7.7539490       28.96842200    0.00000000
                                      D - G
                                                     2       13.8177510       35.53875600    0.00000000
                                                     2       13.5878050       53.33975900    0.00000000
                                                     2        6.9476300        9.71646600    0.00000000
                                                     2        6.9600990       14.97750000    0.00000000
                                      F - G
                                                     2       18.5229500      -20.17661800    0.00000000
                                                     2       18.2510350      -26.08807700    0.00000000
                                                     2        7.5579010       -0.22043400    0.00000000
                                                     2        7.5974040       -0.22164600    0.00000000
    4          1
                                   No pseudopotential on this center.
 ======================================================================================================
 Ernie: Thresh=  0.10000D-02 Tol=  0.10000D-05 Strict=F.
 Ernie:  16 primitive shells out of 135 were deleted.
   191 basis functions,   344 primitive gaussians,   218 cartesian basis functions
    18 alpha electrons       18 beta electrons
       nuclear repulsion energy        48.8679970132 Hartrees.
 IExCor=    0 DFT=F Ex=HF Corr=None ExCW=0 ScaHFX=  1.000000
 ScaDFX=  1.000000  1.000000  1.000000  1.000000 ScalE2=  1.000000  1.000000
 IRadAn=      0 IRanWt=     -1 IRanGd=            0 ICorTp=0 IEmpDi=  4
 NAtoms=    4 NActive=    4 NUniq=    4 SFac= 1.00D+00 NAtFMM=   60 NAOKFM=F Big=F
 Integral buffers will be    131072 words long.
 Raffenetti 1 integral format.
 Two-electron integral symmetry is turned off.
 Leave Link  301 at Tue Oct 12 16:20:53 2021, MaxMem=  1048576000 cpu:         0.8
 (Enter /usr/local/gaussian/g09/l302.exe)
 NPDir=0 NMtPBC=     1 NCelOv=     1 NCel=       1 NClECP=     1 NCelD=      1
         NCelK=      1 NCelE2=     1 NClLst=     1 CellRange=     0.0.
 One-electron integrals computed using PRISM.
   1 Symmetry operations used in ECPInt.
 ECPInt:  NShTT=    2145 NPrTT=    7341 LenC2=    2146 LenP2D=    6690.
 LDataN:  DoStor=T MaxTD1= 7 Len=  274
 GSVD:  received Info=                   1 from GESDD.
 NBasis=   191 RedAO= T EigKep=  2.68D-04  NBF=   191
 NBsUse=   147 1.00D-06 EigRej=  9.84D-16 NBFU=   147
 Leave Link  302 at Tue Oct 12 16:20:53 2021, MaxMem=  1048576000 cpu:         3.4
 (Enter /usr/local/gaussian/g09/l303.exe)
 DipDrv:  MaxL=1.
 Leave Link  303 at Tue Oct 12 16:20:53 2021, MaxMem=  1048576000 cpu:         0.2
 (Enter /usr/local/gaussian/g09/l401.exe)
 ExpMin= 2.53D-02 ExpMax= 1.53D+04 ExpMxC= 5.22D+02 IAcc=3 IRadAn=         5 AccDes= 0.00D+00
 Harris functional with IExCor=  205 and IRadAn=       5 diagonalized for initial guess.
 HarFok:  IExCor=  205 AccDes= 0.00D+00 IRadAn=         5 IDoV= 1 UseB2=F ITyADJ=14
 ICtDFT=  3500011 ScaDFX=  1.000000  1.000000  1.000000  1.000000
 Defaulting to unpruned grid for atomic number  53.
 Defaulting to unpruned grid for atomic number  53.
 Defaulting to unpruned grid for atomic number  53.
 Defaulting to unpruned grid for atomic number  53.
 Defaulting to unpruned grid for atomic number  53.
 Defaulting to unpruned grid for atomic number  53.
 Defaulting to unpruned grid for atomic number  53.
 Defaulting to unpruned grid for atomic number  53.
 Defaulting to unpruned grid for atomic number  53.
 Defaulting to unpruned grid for atomic number  53.
 Defaulting to unpruned grid for atomic number  53.
 Defaulting to unpruned grid for atomic number  53.
 FoFCou: FMM=F IPFlag=           0 FMFlag=      100000 FMFlg1=           0
         NFxFlg=           0 DoJE=T BraDBF=F KetDBF=T FulRan=T
         wScrn=  0.000000 ICntrl=     500 IOpCl=  0 I1Cent=   200000004 NGrid=           0
         NMat0=    1 NMatS0=      1 NMatT0=    0 NMatD0=    1 NMtDS0=    0 NMtDT0=    0
 Symmetry not used in FoFCou.
 Harris En= -372.628764832288    
 JPrj=0 DoOrth=F DoCkMO=F.
 Leave Link  401 at Tue Oct 12 16:20:54 2021, MaxMem=  1048576000 cpu:         3.2
 (Enter /usr/local/gaussian/g09/l502.exe)
 Closed shell SCF:
 Using DIIS extrapolation, IDIIS=  1040.
 Two-electron integral symmetry not used.
 Keep R1 ints in memory in canonical form, NReq=176646317.
 IVT=      165054 IEndB=      165054 NGot=  1048576000 MDV=   880297331
 LenX=   880297331 LenY=   880249366
 Requested convergence on RMS density matrix=1.00D-08 within 128 cycles.
 Requested convergence on MAX density matrix=1.00D-06.
 Requested convergence on             energy=1.00D-06.
 No special actions if energy rises.
 FoFCou: FMM=F IPFlag=           0 FMFlag=           0 FMFlg1=           0
         NFxFlg=           0 DoJE=F BraDBF=F KetDBF=F FulRan=T
         wScrn=  0.000000 ICntrl=     600 IOpCl=  0 I1Cent=           0 NGrid=           0
         NMat0=    1 NMatS0=  18336 NMatT0=    0 NMatD0=    1 NMtDS0=    0 NMtDT0=    0
 Symmetry not used in FoFCou.

 Cycle   1  Pass 1  IDiag  1:
 E= -370.555701899982    
 DIIS: error= 4.77D-02 at cycle   1 NSaved=   1.
 NSaved= 1 IEnMin= 1 EnMin= -370.555701899982     IErMin= 1 ErrMin= 4.77D-02
 ErrMax= 4.77D-02  0.00D+00 EMaxC= 1.00D-01 BMatC= 4.26D-01 BMatP= 4.26D-01
 IDIUse=3 WtCom= 5.23D-01 WtEn= 4.77D-01
 Coeff-Com:  0.100D+01
 Coeff-En:   0.100D+01
 Coeff:      0.100D+01
 Gap=     0.376 Goal=   None    Shift=    0.000
 GapD=    0.376 DampG=1.000 DampE=0.500 DampFc=0.5000 IDamp=-1.
 Damping current iteration by 5.00D-01
 RMSDP=3.47D-03 MaxDP=9.98D-02              OVMax= 1.48D-01

 Cycle   2  Pass 1  IDiag  1:
 E= -370.657668355256     Delta-E=       -0.101966455274 Rises=F Damp=T
 DIIS: error= 1.41D-02 at cycle   2 NSaved=   2.
 NSaved= 2 IEnMin= 2 EnMin= -370.657668355256     IErMin= 2 ErrMin= 1.41D-02
 ErrMax= 1.41D-02  0.00D+00 EMaxC= 1.00D-01 BMatC= 6.18D-02 BMatP= 4.26D-01
 IDIUse=3 WtCom= 8.59D-01 WtEn= 1.41D-01
 Coeff-Com: -0.442D+00 0.144D+01
 Coeff-En:   0.000D+00 0.100D+01
 Coeff:     -0.379D+00 0.138D+01
 Gap=     0.252 Goal=   None    Shift=    0.000
 RMSDP=1.55D-03 MaxDP=7.79D-02 DE=-1.02D-01 OVMax= 6.70D-02

 Cycle   3  Pass 1  IDiag  1:
 E= -370.747672618575     Delta-E=       -0.090004263319 Rises=F Damp=F
 DIIS: error= 3.88D-03 at cycle   3 NSaved=   3.
 NSaved= 3 IEnMin= 3 EnMin= -370.747672618575     IErMin= 3 ErrMin= 3.88D-03
 ErrMax= 3.88D-03  0.00D+00 EMaxC= 1.00D-01 BMatC= 1.41D-03 BMatP= 6.18D-02
 IDIUse=3 WtCom= 9.61D-01 WtEn= 3.88D-02
 Coeff-Com: -0.982D-01 0.193D+00 0.906D+00
 Coeff-En:   0.000D+00 0.000D+00 0.100D+01
 Coeff:     -0.944D-01 0.185D+00 0.909D+00
 Gap=     0.264 Goal=   None    Shift=    0.000
 RMSDP=3.80D-04 MaxDP=1.69D-02 DE=-9.00D-02 OVMax= 8.45D-03

 Cycle   4  Pass 1  IDiag  1:
 E= -370.748631441955     Delta-E=       -0.000958823380 Rises=F Damp=F
 DIIS: error= 5.34D-04 at cycle   4 NSaved=   4.
 NSaved= 4 IEnMin= 4 EnMin= -370.748631441955     IErMin= 4 ErrMin= 5.34D-04
 ErrMax= 5.34D-04  0.00D+00 EMaxC= 1.00D-01 BMatC= 3.68D-05 BMatP= 1.41D-03
 IDIUse=3 WtCom= 9.95D-01 WtEn= 5.34D-03
 Coeff-Com:  0.698D-02-0.258D-01 0.479D-01 0.971D+00
 Coeff-En:   0.000D+00 0.000D+00 0.000D+00 0.100D+01
 Coeff:      0.695D-02-0.257D-01 0.476D-01 0.971D+00
 Gap=     0.266 Goal=   None    Shift=    0.000
 RMSDP=9.76D-05 MaxDP=5.40D-03 DE=-9.59D-04 OVMax= 2.53D-03

 Cycle   5  Pass 1  IDiag  1:
 E= -370.748676461478     Delta-E=       -0.000045019523 Rises=F Damp=F
 DIIS: error= 1.75D-04 at cycle   5 NSaved=   5.
 NSaved= 5 IEnMin= 5 EnMin= -370.748676461478     IErMin= 5 ErrMin= 1.75D-04
 ErrMax= 1.75D-04  0.00D+00 EMaxC= 1.00D-01 BMatC= 3.54D-06 BMatP= 3.68D-05
 IDIUse=3 WtCom= 9.98D-01 WtEn= 1.75D-03
 Coeff-Com:  0.679D-02-0.113D-01-0.632D-01 0.231D-01 0.104D+01
 Coeff-En:   0.000D+00 0.000D+00 0.000D+00 0.000D+00 0.100D+01
 Coeff:      0.678D-02-0.113D-01-0.630D-01 0.230D-01 0.104D+01
 Gap=     0.265 Goal=   None    Shift=    0.000
 RMSDP=3.85D-05 MaxDP=1.59D-03 DE=-4.50D-05 OVMax= 1.02D-03

 Cycle   6  Pass 1  IDiag  1:
 E= -370.748683110689     Delta-E=       -0.000006649211 Rises=F Damp=F
 DIIS: error= 5.11D-05 at cycle   6 NSaved=   6.
 NSaved= 6 IEnMin= 6 EnMin= -370.748683110689     IErMin= 6 ErrMin= 5.11D-05
 ErrMax= 5.11D-05  0.00D+00 EMaxC= 1.00D-01 BMatC= 2.89D-07 BMatP= 3.54D-06
 IDIUse=1 WtCom= 1.00D+00 WtEn= 0.00D+00
 Coeff-Com: -0.236D-02 0.492D-02 0.105D-01-0.101D+00-0.145D+00 0.123D+01
 Coeff:     -0.236D-02 0.492D-02 0.105D-01-0.101D+00-0.145D+00 0.123D+01
 Gap=     0.266 Goal=   None    Shift=    0.000
 RMSDP=9.81D-06 MaxDP=5.73D-04 DE=-6.65D-06 OVMax= 5.06D-04

 Cycle   7  Pass 1  IDiag  1:
 E= -370.748683878380     Delta-E=       -0.000000767690 Rises=F Damp=F
 DIIS: error= 1.00D-05 at cycle   7 NSaved=   7.
 NSaved= 7 IEnMin= 7 EnMin= -370.748683878380     IErMin= 7 ErrMin= 1.00D-05
 ErrMax= 1.00D-05  0.00D+00 EMaxC= 1.00D-01 BMatC= 9.04D-09 BMatP= 2.89D-07
 IDIUse=1 WtCom= 1.00D+00 WtEn= 0.00D+00
 Coeff-Com:  0.884D-04-0.295D-03 0.106D-02 0.169D-01-0.346D-01-0.188D+00
 Coeff-Com:  0.120D+01
 Coeff:      0.884D-04-0.295D-03 0.106D-02 0.169D-01-0.346D-01-0.188D+00
 Coeff:      0.120D+01
 Gap=     0.266 Goal=   None    Shift=    0.000
 RMSDP=2.16D-06 MaxDP=9.93D-05 DE=-7.68D-07 OVMax= 9.90D-05

 Cycle   8  Pass 1  IDiag  1:
 E= -370.748683907834     Delta-E=       -0.000000029454 Rises=F Damp=F
 DIIS: error= 2.51D-06 at cycle   8 NSaved=   8.
 NSaved= 8 IEnMin= 8 EnMin= -370.748683907834     IErMin= 8 ErrMin= 2.51D-06
 ErrMax= 2.51D-06  0.00D+00 EMaxC= 1.00D-01 BMatC= 3.81D-10 BMatP= 9.04D-09
 IDIUse=1 WtCom= 1.00D+00 WtEn= 0.00D+00
 Coeff-Com:  0.999D-04-0.198D-03-0.536D-03 0.341D-02 0.765D-02-0.380D-01
 Coeff-Com: -0.107D+00 0.113D+01
 Coeff:      0.999D-04-0.198D-03-0.536D-03 0.341D-02 0.765D-02-0.380D-01
 Coeff:     -0.107D+00 0.113D+01
 Gap=     0.266 Goal=   None    Shift=    0.000
 RMSDP=6.37D-07 MaxDP=3.80D-05 DE=-2.95D-08 OVMax= 1.69D-05

 Cycle   9  Pass 1  IDiag  1:
 E= -370.748683908862     Delta-E=       -0.000000001029 Rises=F Damp=F
 DIIS: error= 4.04D-07 at cycle   9 NSaved=   9.
 NSaved= 9 IEnMin= 9 EnMin= -370.748683908862     IErMin= 9 ErrMin= 4.04D-07
 ErrMax= 4.04D-07  0.00D+00 EMaxC= 1.00D-01 BMatC= 2.35D-11 BMatP= 3.81D-10
 IDIUse=1 WtCom= 1.00D+00 WtEn= 0.00D+00
 Coeff-Com: -0.224D-04 0.516D-04 0.129D-04-0.157D-02 0.121D-02 0.161D-01
 Coeff-Com: -0.440D-01-0.209D+00 0.124D+01
 Coeff:     -0.224D-04 0.516D-04 0.129D-04-0.157D-02 0.121D-02 0.161D-01
 Coeff:     -0.440D-01-0.209D+00 0.124D+01
 Gap=     0.266 Goal=   None    Shift=    0.000
 RMSDP=1.32D-07 MaxDP=8.13D-06 DE=-1.03D-09 OVMax= 3.84D-06

 Cycle  10  Pass 1  IDiag  1:
 E= -370.748683908922     Delta-E=       -0.000000000060 Rises=F Damp=F
 DIIS: error= 7.06D-08 at cycle  10 NSaved=  10.
 NSaved=10 IEnMin=10 EnMin= -370.748683908922     IErMin=10 ErrMin= 7.06D-08
 ErrMax= 7.06D-08  0.00D+00 EMaxC= 1.00D-01 BMatC= 1.32D-12 BMatP= 2.35D-11
 IDIUse=1 WtCom= 1.00D+00 WtEn= 0.00D+00
 Coeff-Com: -0.738D-05 0.148D-04 0.315D-04-0.304D-03-0.366D-03 0.340D-02
 Coeff-Com:  0.234D-02-0.756D-01 0.977D-01 0.973D+00
 Coeff:     -0.738D-05 0.148D-04 0.315D-04-0.304D-03-0.366D-03 0.340D-02
 Coeff:      0.234D-02-0.756D-01 0.977D-01 0.973D+00
 Gap=     0.266 Goal=   None    Shift=    0.000
 RMSDP=1.79D-08 MaxDP=7.43D-07 DE=-6.03D-11 OVMax= 6.70D-07

 Cycle  11  Pass 1  IDiag  1:
 E= -370.748683908925     Delta-E=       -0.000000000002 Rises=F Damp=F
 DIIS: error= 1.64D-08 at cycle  11 NSaved=  11.
 NSaved=11 IEnMin=11 EnMin= -370.748683908925     IErMin=11 ErrMin= 1.64D-08
 ErrMax= 1.64D-08  0.00D+00 EMaxC= 1.00D-01 BMatC= 8.43D-14 BMatP= 1.32D-12
 IDIUse=1 WtCom= 1.00D+00 WtEn= 0.00D+00
 Coeff-Com:  0.206D-05-0.474D-05-0.123D-05 0.138D-03-0.112D-03-0.134D-02
 Coeff-Com:  0.297D-02 0.204D-01-0.106D+00-0.471D-01 0.113D+01
 Coeff:      0.206D-05-0.474D-05-0.123D-05 0.138D-03-0.112D-03-0.134D-02
 Coeff:      0.297D-02 0.204D-01-0.106D+00-0.471D-01 0.113D+01
 Gap=     0.266 Goal=   None    Shift=    0.000
 RMSDP=1.29D-08 MaxDP=8.95D-07 DE=-2.39D-12 OVMax= 3.18D-07

 Cycle  12  Pass 1  IDiag  1:
 E= -370.748683908923     Delta-E=        0.000000000002 Rises=F Damp=F
 DIIS: error= 4.23D-09 at cycle  12 NSaved=  12.
 NSaved=12 IEnMin=11 EnMin= -370.748683908925     IErMin=12 ErrMin= 4.23D-09
 ErrMax= 4.23D-09  0.00D+00 EMaxC= 1.00D-01 BMatC= 2.13D-15 BMatP= 8.43D-14
 IDIUse=1 WtCom= 1.00D+00 WtEn= 0.00D+00
 Coeff-Com: -0.241D-06 0.640D-06-0.536D-06-0.223D-04 0.389D-04 0.183D-03
 Coeff-Com: -0.647D-03-0.237D-02 0.211D-01-0.199D-01-0.239D+00 0.124D+01
 Coeff:     -0.241D-06 0.640D-06-0.536D-06-0.223D-04 0.389D-04 0.183D-03
 Coeff:     -0.647D-03-0.237D-02 0.211D-01-0.199D-01-0.239D+00 0.124D+01
 Gap=     0.266 Goal=   None    Shift=    0.000
 RMSDP=2.96D-09 MaxDP=2.12D-07 DE= 1.76D-12 OVMax= 6.66D-08

 SCF Done:  E(RHF) =  -370.748683909     A.U. after   12 cycles
            NFock= 12  Conv=0.30D-08     -V/T= 2.9775
 KE= 1.874813898295D+02 PE=-9.116399050195D+02 EE= 3.045418342678D+02
 Leave Link  502 at Tue Oct 12 16:20:58 2021, MaxMem=  1048576000 cpu:        19.5
 (Enter /usr/local/gaussian/g09/l801.exe)
 ExpMin= 2.53D-02 ExpMax= 1.53D+04 ExpMxC= 5.22D+02 IAcc=3 IRadAn=         5 AccDes= 0.00D+00
 HarFok:  IExCor=  205 AccDes= 0.00D+00 IRadAn=         5 IDoV=-2 UseB2=F ITyADJ=14
 ICtDFT= 12500011 ScaDFX=  1.000000  1.000000  1.000000  1.000000
 Defaulting to unpruned grid for atomic number  53.
 Defaulting to unpruned grid for atomic number  53.
 Defaulting to unpruned grid for atomic number  53.
 Defaulting to unpruned grid for atomic number  53.
 Defaulting to unpruned grid for atomic number  53.
 Defaulting to unpruned grid for atomic number  53.
 Defaulting to unpruned grid for atomic number  53.
 Defaulting to unpruned grid for atomic number  53.
 Defaulting to unpruned grid for atomic number  53.
 Defaulting to unpruned grid for atomic number  53.
 Defaulting to unpruned grid for atomic number  53.
 Defaulting to unpruned grid for atomic number  53.
 Largest valence mixing into a core orbital is  1.30D-04
 Largest core mixing into a valence orbital is  1.69D-05
 Range of M.O.s used for correlation:     6   147
 NBasis=   191 NAE=    18 NBE=    18 NFC=     5 NFV=     0
 NROrb=    142 NOA=    13 NOB=    13 NVA=   129 NVB=   129

 **** Warning!!: The largest alpha MO coefficient is  0.13962708D+02

 Leave Link  801 at Tue Oct 12 16:20:58 2021, MaxMem=  1048576000 cpu:         0.8
 (Enter /usr/local/gaussian/g09/l906.exe)
 Frozen-core derivative calculation, NFC=   5 NFV=   0.
 FulOut=F Deriv=T AODrv=F NAtomX=     4
   MMem=         196  MDisk=          13 MDiskD=          13
  W3Min=      576828 MinDsk=     1313419 NBas6D=         218
 NBas2D=       24339    NTT=       23871    LW2=    26219120
    MDV=  1048237270 MDiskM=       23996 NBas2p=       24339
 Fully in-core method, ICMem=   672878533.
 IMap=   1   2   3   4   5   6   7   8   9  10  11  12  13  14  15  16  17  18
 JobTyp=1 Pass  1 fully in-core, NPsUse= 12.
 Compute canonical integrals.
 FoFCou: FMM=F IPFlag=           0 FMFlag=           0 FMFlg1=           0
         NFxFlg=           0 DoJE=F BraDBF=F KetDBF=F FulRan=T
         wScrn=  0.000000 ICntrl=     600 IOpCl=  1 I1Cent=           0 NGrid=           0
         NMat0=    1 NMatS0=  24339 NMatT0=    0 NMatD0=    1 NMtDS0=    0 NMtDT0=    0
 Symmetry not used in FoFCou.
 Spin components of T(2) and E(2):
     alpha-alpha T2 =       0.2049087361D-01 E2=     -0.6573550257D-01
     alpha-beta  T2 =       0.1074817793D+00 E2=     -0.3543126208D+00
     beta-beta   T2 =       0.2049087361D-01 E2=     -0.6573550257D-01
 The integrals were generated   1 times.
 ANorm=    0.1071663906D+01
 E2 =    -0.4857836260D+00 EUMP2 =    -0.37123446753490D+03
 Leave Link  906 at Tue Oct 12 16:21:06 2021, MaxMem=  1048576000 cpu:       101.5
 (Enter /usr/local/gaussian/g09/l1002.exe)
 Minotr:  Closed shell wavefunction.
          Computing MP2/KS-MP2 derivatives.
          Using Z-Vector for PSCF gradient.
          Skipping F1 and S1 gradient terms here.
          Frozen-core window.
          Direct CPHF calculation.
          Differentiating once with respect to electric field.
                with respect to dipole field.
          Electric field/nuclear overlap derivatives assumed to be zero.
          Requested convergence is 1.0D-10 RMS, and 1.0D-09 maximum.
          NewPWx=F KeepS1=T KeepF1=T KeepIn=T MapXYZ=F SortEE=F KeepMc=T.
          MDV=    1048575822 using IRadAn=       0.
 Keep R1 ints in memory in canonical form, NReq=176526321.
 FoFCou: FMM=F IPFlag=           0 FMFlag=           0 FMFlg1=           0
         NFxFlg=           0 DoJE=F BraDBF=F KetDBF=F FulRan=T
         wScrn=  0.000000 ICntrl=     600 IOpCl=  0 I1Cent=           0 NGrid=           0
         NMat0=    1 NMatS0=  18336 NMatT0=    0 NMatD0=    1 NMtDS0=    0 NMtDT0=    0
 Symmetry not used in FoFCou.
          Solving linear equations separately, MaxMat=       0.
          There are     1 degrees of freedom in the 1st order CPHF.  IDoFFX=0 NUNeed=     1.
 LinEq1:  Iter=  0 NonCon=     1 RMS=2.33D-03 Max=3.34D-02 NDo=     1
 AX will form     1 AO Fock derivatives at one time.
 LinEq1:  Iter=  1 NonCon=     1 RMS=3.66D-04 Max=3.09D-03 NDo=     1
 LinEq1:  Iter=  2 NonCon=     1 RMS=1.71D-04 Max=1.91D-03 NDo=     1
 LinEq1:  Iter=  3 NonCon=     1 RMS=3.32D-05 Max=4.56D-04 NDo=     1
 LinEq1:  Iter=  4 NonCon=     1 RMS=7.48D-06 Max=7.35D-05 NDo=     1
 LinEq1:  Iter=  5 NonCon=     1 RMS=2.37D-06 Max=2.80D-05 NDo=     1
 LinEq1:  Iter=  6 NonCon=     1 RMS=4.87D-07 Max=5.14D-06 NDo=     1
 LinEq1:  Iter=  7 NonCon=     1 RMS=1.02D-07 Max=1.30D-06 NDo=     1
 LinEq1:  Iter=  8 NonCon=     1 RMS=2.80D-08 Max=2.97D-07 NDo=     1
 LinEq1:  Iter=  9 NonCon=     1 RMS=5.95D-09 Max=7.95D-08 NDo=     1
 LinEq1:  Iter= 10 NonCon=     1 RMS=1.08D-09 Max=1.28D-08 NDo=     1
 LinEq1:  Iter= 11 NonCon=     1 RMS=1.70D-10 Max=2.35D-09 NDo=     1
 LinEq1:  Iter= 12 NonCon=     0 RMS=3.24D-11 Max=4.36D-10 NDo=     1
 Linear equations converged to 1.000D-10 1.000D-09 after    12 iterations.
 End of Minotr F.D. properties file   721 does not exist.
 End of Minotr F.D. properties file   722 does not exist.
 End of Minotr F.D. properties file   788 does not exist.
 Leave Link 1002 at Tue Oct 12 16:21:10 2021, MaxMem=  1048576000 cpu:        18.5
 (Enter /usr/local/gaussian/g09/l601.exe)
 Copying SCF densities to generalized density rwf, IOpCl= 0 IROHF=0.

 **********************************************************************

            Population analysis using the MP2 density.

 **********************************************************************

 Alpha  occ. eigenvalues --  -20.39346  -7.46085  -5.28630  -5.28617  -5.28616
 Alpha  occ. eigenvalues --   -2.01366  -2.01362  -2.01361  -2.01345  -2.01345
 Alpha  occ. eigenvalues --   -1.27445  -0.62799  -0.61285  -0.45798  -0.37048
 Alpha  occ. eigenvalues --   -0.14050  -0.13637  -0.13605
 Alpha virt. eigenvalues --    0.12951   0.16784   0.23457   0.24494   0.25419
 Alpha virt. eigenvalues --    0.26613   0.27975   0.28480   0.31351   0.33101
 Alpha virt. eigenvalues --    0.36848   0.37346   0.37575   0.39645   0.40755
 Alpha virt. eigenvalues --    0.41649   0.45424   0.47499   0.53866   0.54449
 Alpha virt. eigenvalues --    0.56995   0.60135   0.66362   0.70798   0.77247
 Alpha virt. eigenvalues --    0.78653   0.78720   0.79922   0.80484   0.80593
 Alpha virt. eigenvalues --    0.82489   0.84421   0.85562   0.85597   0.87185
 Alpha virt. eigenvalues --    0.87509   0.88371   0.88891   0.89095   0.90298
 Alpha virt. eigenvalues --    0.92103   0.97464   0.98642   1.06996   1.07026
 Alpha virt. eigenvalues --    1.09057   1.09296   1.12131   1.12721   1.15133
 Alpha virt. eigenvalues --    1.18244   1.20612   1.33835   1.36763   1.38858
 Alpha virt. eigenvalues --    1.43381   1.46051   1.53862   1.56425   1.66895
 Alpha virt. eigenvalues --    1.73461   1.75725   1.75750   1.77480   1.78735
 Alpha virt. eigenvalues --    1.81229   1.81476   1.84746   1.88134   1.88885
 Alpha virt. eigenvalues --    1.99967   2.05820   2.06068   2.10407   2.10977
 Alpha virt. eigenvalues --    2.11671   2.17531   2.27917   2.43228   2.49355
 Alpha virt. eigenvalues --    2.55819   2.59235   2.63295   2.65901   2.80817
 Alpha virt. eigenvalues --    2.83513   2.85582   2.95585   3.05349   3.06381
 Alpha virt. eigenvalues --    3.13598   3.22668   3.25466   3.87034   3.97353
 Alpha virt. eigenvalues --    4.14762   4.26254   4.34996   4.42377   4.52516
 Alpha virt. eigenvalues --    4.58006   4.64332   4.66136   4.73790   4.78464
 Alpha virt. eigenvalues --    5.04392   5.19454   5.39228   5.46518   5.60416
 Alpha virt. eigenvalues --    6.06369   6.08305   6.49646   6.65242   6.75577
 Alpha virt. eigenvalues --    6.95539   7.23253   7.39106   7.40102   7.41607
 Alpha virt. eigenvalues --    7.46093   7.92036   8.03257   8.33927   8.48099
 Alpha virt. eigenvalues --    9.29034   9.68873  21.42923  59.21686
          Condensed to atoms (all electrons):
               1          2          3          4
     1  O    7.936507   0.258409  -0.040194   0.177669
     2  H    0.258409   0.590087   0.009779  -0.040103
     3  I   -0.040194   0.009779  25.976263   0.018311
     4  H    0.177669  -0.040103   0.018311   0.729399
 Mulliken charges:
               1
     1  O   -0.332391
     2  H    0.181828
     3  I   -0.964160
     4  H    0.114724
 Sum of Mulliken charges =  -1.00000
 Mulliken charges with hydrogens summed into heavy atoms:
               1
     1  O   -0.035840
     3  I   -0.964160
 Electronic spatial extent (au):  <R**2>=           1236.3437
 Charge=             -1.0000 electrons
 Dipole moment (field-independent basis, Debye):
    X=              4.3911    Y=             14.4498    Z=             -0.0000  Tot=             15.1023
 Quadrupole moment (field-independent basis, Debye-Ang):
   XX=            -41.4072   YY=            -94.4378   ZZ=            -41.8049
   XY=            -10.4109   XZ=              0.0000   YZ=              0.0000
 Traceless Quadrupole moment (field-independent basis, Debye-Ang):
   XX=             17.8094   YY=            -35.2212   ZZ=             17.4118
   XY=            -10.4109   XZ=              0.0000   YZ=              0.0000
 Octapole moment (field-independent basis, Debye-Ang**2):
  XXX=             75.0649  YYY=            535.6862  ZZZ=             -0.0000  XYY=             60.8283
  XXY=            124.9130  XXZ=             -0.0000  XZZ=             23.8403  YZZ=            117.3496
  YYZ=             -0.0000  XYZ=             -0.0000
 Hexadecapole moment (field-independent basis, Debye-Ang**3):
 XXXX=           -182.5031 YYYY=          -3112.7708 ZZZZ=            -77.5305 XXXY=           -256.2825
 XXXZ=              0.0000 YYYX=           -376.8720 YYYZ=              0.0000 ZZZX=              0.0000
 ZZZY=              0.0000 XXYY=           -471.0155 XXZZ=            -43.5429 YYZZ=           -427.8822
 XXYZ=              0.0000 YYXZ=              0.0000 ZZXY=            -83.7364
 N-N= 4.886799701321D+01 E-N=-9.110503369495D+02  KE= 1.876389062490D+02
 No NMR shielding tensors so no spin-rotation constants.
 Leave Link  601 at Tue Oct 12 16:21:11 2021, MaxMem=  1048576000 cpu:         2.2
 (Enter /usr/local/gaussian/g09/l607.exe)
 ******************************Gaussian NBO Version 3.1******************************
             N A T U R A L   A T O M I C   O R B I T A L   A N D
          N A T U R A L   B O N D   O R B I T A L   A N A L Y S I S
 ******************************Gaussian NBO Version 3.1******************************
       /RESON  / : Allow strongly delocalized NBO set

 Analyzing the MP2 density

 Job title: title                                                           

 Storage needed:    110417 in NPA,    146568 in NBO (1048575896 available)


 NATURAL POPULATIONS:  Natural atomic orbital occupancies 
                                                          
   NAO  Atom  No  lang   Type(AO)    Occupancy
 --------------------------------------------
     1    O    1  S      Cor( 1S)     1.99985
     2    O    1  S      Val( 2S)     1.84316
     3    O    1  S      Ryd( 3S)     0.00760
     4    O    1  S      Ryd( 4S)     0.00075
     5    O    1  S      Ryd( 5S)     0.00023
     6    O    1  px     Val( 2p)     1.66756
     7    O    1  px     Ryd( 3p)     0.01013
     8    O    1  px     Ryd( 4p)     0.00063
     9    O    1  px     Ryd( 5p)     0.00014
    10    O    1  py     Val( 2p)     1.72471
    11    O    1  py     Ryd( 3p)     0.01511
    12    O    1  py     Ryd( 4p)     0.00050
    13    O    1  py     Ryd( 5p)     0.00020
    14    O    1  pz     Val( 2p)     1.95519
    15    O    1  pz     Ryd( 3p)     0.01896
    16    O    1  pz     Ryd( 4p)     0.00053
    17    O    1  pz     Ryd( 5p)     0.00004
    18    O    1  dxy    Ryd( 3d)     0.00317
    19    O    1  dxy    Ryd( 4d)     0.00041
    20    O    1  dxy    Ryd( 5d)     0.00017
    21    O    1  dxz    Ryd( 3d)     0.00554
    22    O    1  dxz    Ryd( 4d)     0.00137
    23    O    1  dxz    Ryd( 5d)     0.00013
    24    O    1  dyz    Ryd( 3d)     0.00365
    25    O    1  dyz    Ryd( 4d)     0.00037
    26    O    1  dyz    Ryd( 5d)     0.00023
    27    O    1  dx2y2  Ryd( 3d)     0.00302
    28    O    1  dx2y2  Ryd( 4d)     0.00059
    29    O    1  dx2y2  Ryd( 5d)     0.00045
    30    O    1  dz2    Ryd( 3d)     0.00402
    31    O    1  dz2    Ryd( 4d)     0.00056
    32    O    1  dz2    Ryd( 5d)     0.00014
    33    O    1  f(0)   Ryd( 4f)     0.00068
    34    O    1  f(0)   Ryd( 5f)     0.00010
    35    O    1  f(C1)  Ryd( 4f)     0.00043
    36    O    1  f(C1)  Ryd( 5f)     0.00012
    37    O    1  f(S1)  Ryd( 4f)     0.00047
    38    O    1  f(S1)  Ryd( 5f)     0.00013
    39    O    1  f(C2)  Ryd( 4f)     0.00052
    40    O    1  f(C2)  Ryd( 5f)     0.00016
    41    O    1  f(S2)  Ryd( 4f)     0.00044
    42    O    1  f(S2)  Ryd( 5f)     0.00008
    43    O    1  f(C3)  Ryd( 4f)     0.00042
    44    O    1  f(C3)  Ryd( 5f)     0.00016
    45    O    1  f(S3)  Ryd( 4f)     0.00080
    46    O    1  f(S3)  Ryd( 5f)     0.00022

    47    H    2  S      Val( 1S)     0.33685
    48    H    2  S      Ryd( 2S)     0.00074
    49    H    2  S      Ryd( 3S)     0.00027
    50    H    2  S      Ryd( 4S)     0.00012
    51    H    2  px     Ryd( 3p)     0.00070
    52    H    2  px     Ryd( 2p)     0.00183
    53    H    2  px     Ryd( 4p)     0.00014
    54    H    2  py     Ryd( 2p)     0.00143
    55    H    2  py     Ryd( 3p)     0.00018
    56    H    2  py     Ryd( 4p)     0.00012
    57    H    2  pz     Ryd( 2p)     0.00367
    58    H    2  pz     Ryd( 3p)     0.00023
    59    H    2  pz     Ryd( 4p)     0.00009
    60    H    2  dxy    Ryd( 3d)     0.00029
    61    H    2  dxy    Ryd( 4d)     0.00005
    62    H    2  dxz    Ryd( 3d)     0.00039
    63    H    2  dxz    Ryd( 4d)     0.00025
    64    H    2  dyz    Ryd( 3d)     0.00013
    65    H    2  dyz    Ryd( 4d)     0.00011
    66    H    2  dx2y2  Ryd( 4d)     0.00010
    67    H    2  dx2y2  Ryd( 3d)     0.00014
    68    H    2  dz2    Ryd( 4d)     0.00011
    69    H    2  dz2    Ryd( 3d)     0.00017

    70    I    3  S      Cor( 4S)     2.00002
    71    I    3  S      Val( 5S)     1.98066
    72    I    3  S      Ryd( 6S)     0.00417
    73    I    3  S      Ryd( 7S)     0.00062
    74    I    3  S      Ryd( 8S)     0.00009
    75    I    3  S      Ryd( 9S)     0.00000
    76    I    3  px     Cor( 4p)     2.00007
    77    I    3  px     Val( 5p)     1.95128
    78    I    3  px     Ryd( 6p)     0.01129
    79    I    3  px     Ryd( 7p)     0.00076
    80    I    3  px     Ryd( 8p)     0.00008
    81    I    3  py     Cor( 4p)     2.00007
    82    I    3  py     Val( 5p)     1.94951
    83    I    3  py     Ryd( 6p)     0.01059
    84    I    3  py     Ryd( 7p)     0.00070
    85    I    3  py     Ryd( 8p)     0.00013
    86    I    3  pz     Cor( 4p)     2.00007
    87    I    3  pz     Val( 5p)     1.95169
    88    I    3  pz     Ryd( 6p)     0.01125
    89    I    3  pz     Ryd( 7p)     0.00076
    90    I    3  pz     Ryd( 8p)     0.00008
    91    I    3  dxy    Cor( 4d)     1.99676
    92    I    3  dxy    Ryd( 5d)     0.02044
    93    I    3  dxy    Ryd( 6d)     0.00158
    94    I    3  dxy    Ryd( 7d)     0.00021
    95    I    3  dxz    Cor( 4d)     1.99679
    96    I    3  dxz    Ryd( 5d)     0.02024
    97    I    3  dxz    Ryd( 6d)     0.00169
    98    I    3  dxz    Ryd( 7d)     0.00017
    99    I    3  dyz    Cor( 4d)     1.99677
   100    I    3  dyz    Ryd( 5d)     0.02031
   101    I    3  dyz    Ryd( 6d)     0.00156
   102    I    3  dyz    Ryd( 7d)     0.00021
   103    I    3  dx2y2  Cor( 4d)     1.99674
   104    I    3  dx2y2  Ryd( 5d)     0.02042
   105    I    3  dx2y2  Ryd( 6d)     0.00160
   106    I    3  dx2y2  Ryd( 7d)     0.00021
   107    I    3  dz2    Cor( 4d)     1.99677
   108    I    3  dz2    Ryd( 5d)     0.02032
   109    I    3  dz2    Ryd( 6d)     0.00166
   110    I    3  dz2    Ryd( 7d)     0.00018
   111    I    3  f(0)   Ryd( 4f)     0.00275
   112    I    3  f(0)   Ryd( 5f)     0.00045
   113    I    3  f(C1)  Ryd( 4f)     0.00277
   114    I    3  f(C1)  Ryd( 5f)     0.00043
   115    I    3  f(S1)  Ryd( 4f)     0.00276
   116    I    3  f(S1)  Ryd( 5f)     0.00046
   117    I    3  f(C2)  Ryd( 4f)     0.00275
   118    I    3  f(C2)  Ryd( 5f)     0.00046
   119    I    3  f(S2)  Ryd( 4f)     0.00278
   120    I    3  f(S2)  Ryd( 5f)     0.00044
   121    I    3  f(C3)  Ryd( 4f)     0.00272
   122    I    3  f(C3)  Ryd( 5f)     0.00048
   123    I    3  f(S3)  Ryd( 4f)     0.00273
   124    I    3  f(S3)  Ryd( 5f)     0.00048

   125    H    4  S      Val( 1S)     0.35430
   126    H    4  S      Ryd( 2S)     0.00499
   127    H    4  S      Ryd( 3S)     0.00076
   128    H    4  S      Ryd( 4S)     0.00011
   129    H    4  px     Ryd( 2p)     0.00680
   130    H    4  px     Ryd( 3p)     0.00072
   131    H    4  px     Ryd( 4p)     0.00024
   132    H    4  py     Ryd( 2p)     0.00451
   133    H    4  py     Ryd( 3p)     0.00154
   134    H    4  py     Ryd( 4p)     0.00039
   135    H    4  pz     Ryd( 2p)     0.00756
   136    H    4  pz     Ryd( 3p)     0.00061
   137    H    4  pz     Ryd( 4p)     0.00020
   138    H    4  dxy    Ryd( 3d)     0.00035
   139    H    4  dxy    Ryd( 4d)     0.00027
   140    H    4  dxz    Ryd( 3d)     0.00124
   141    H    4  dxz    Ryd( 4d)     0.00020
   142    H    4  dyz    Ryd( 3d)     0.00038
   143    H    4  dyz    Ryd( 4d)     0.00028
   144    H    4  dx2y2  Ryd( 3d)     0.00059
   145    H    4  dx2y2  Ryd( 4d)     0.00020
   146    H    4  dz2    Ryd( 3d)     0.00071
   147    H    4  dz2    Ryd( 4d)     0.00013

 [ 28 electrons found in the effective core potential]

 WARNING:  5 low occupancy (<1.9990e) core orbitals found on  I    3


 Summary of Natural Population Analysis:                  
                                                          
                                       Natural Population 
                Natural  -----------------------------------------------
    Atom  No    Charge         Core      Valence    Rydberg      Total
 -----------------------------------------------------------------------
      O    1   -1.27383      1.99985     7.19061    0.08337     9.27383
      H    2    0.65188      0.00000     0.33685    0.01126     0.34812
      I    3   -0.99099     45.98405     7.83314    0.17380    53.99099
      H    4    0.61293      0.00000     0.35430    0.03277     0.38707
 =======================================================================
   * Total *   -1.00000     47.98390    15.71491    0.30120    64.00000

                                 Natural Population      
 --------------------------------------------------------
   Effective Core            28.00000
   Core                      19.98390 ( 99.9195% of  20)
   Valence                   15.71491 ( 98.2182% of  16)
   Natural Minimal Basis     63.69880 ( 99.5294% of  64)
   Natural Rydberg Basis      0.30120 (  0.4706% of  64)
 --------------------------------------------------------

    Atom  No          Natural Electron Configuration
 ----------------------------------------------------------------------------
      O    1      [core]2S( 1.84)2p( 5.35)3S( 0.01)3p( 0.04)3d( 0.02)
      H    2            1S( 0.34)2p( 0.01)
      I    3      [core]5S( 1.98)5p( 5.85)4f( 0.02)5d( 0.10)6p( 0.03)6d( 0.01)
      H    4            1S( 0.35)2p( 0.02)


 NATURAL BOND ORBITAL ANALYSIS:
 Warning:  a bond orbital has occupanc of -0.00004

                       Occupancies       Lewis Structure    Low   High
           Occ.    -------------------  -----------------   occ   occ
  Cycle   Thresh.   Lewis   Non-Lewis     CR  BD  3C  LP    (L)   (NL)   Dev
 =============================================================================
   1(1)    1.90    63.68875   0.31125     10   2   0   6     0      0    0.00
 -----------------------------------------------------------------------------

 Structure accepted: No low occupancy Lewis orbitals

 WARNING:  5 low occupancy (<1.9990e) core orbitals found on  I    3

 --------------------------------------------------------
   Effective Core           28.00000
   Core                     19.98390 ( 99.919% of  20)
   Valence Lewis            15.70486 ( 98.155% of  16)
  ==================       ============================
   Total Lewis              63.68875 ( 99.514% of  64)
  -----------------------------------------------------
   Valence non-Lewis         0.02873 (  0.045% of  64)
   Rydberg non-Lewis         0.28252 (  0.441% of  64)
  ==================       ============================
   Total non-Lewis           0.31125 (  0.486% of  64)
 --------------------------------------------------------


       (Occupancy)   Bond orbital/ Coefficients/ Hybrids
 ---------------------------------------------------------------------------------
     1. (1.96545) BD ( 1) O   1 - H   2  
                ( 83.60%)   0.9143* O   1 s( 15.98%)p 5.25( 83.89%)d 0.01(  0.12%)
                                                  f 0.00(  0.01%)
                                            0.0002  0.3996  0.0039  0.0064 -0.0055
                                            0.9152 -0.0160 -0.0075  0.0010  0.0285
                                           -0.0132 -0.0003 -0.0032  0.0000  0.0000
                                            0.0000  0.0000 -0.0132 -0.0005  0.0024
                                            0.0000  0.0000  0.0000  0.0000  0.0000
                                            0.0000  0.0216 -0.0053  0.0081 -0.0196
                                            0.0066 -0.0013  0.0000  0.0000 -0.0014
                                           -0.0039  0.0031 -0.0001  0.0000  0.0000
                                            0.0000  0.0000 -0.0013  0.0034  0.0075
                                           -0.0008
                ( 16.40%)   0.4050* H   2 s( 99.56%)p 0.00(  0.44%)d 0.00(  0.01%)
                                            0.9978 -0.0042 -0.0013 -0.0009 -0.0107
                                            0.0643 -0.0033 -0.0088  0.0026  0.0028
                                            0.0000  0.0000  0.0000  0.0057  0.0037
                                            0.0000  0.0000  0.0000  0.0000 -0.0001
                                            0.0032 -0.0012 -0.0056
     2. (1.97436) BD ( 1) O   1 - H   4  
                ( 82.39%)   0.9077* O   1 s( 26.29%)p 2.80( 73.61%)d 0.00(  0.07%)
                                                  f 0.00(  0.02%)
                                           -0.0002 -0.5121  0.0232  0.0105  0.0027
                                            0.1964 -0.0130  0.0048  0.0025  0.8343
                                           -0.0368 -0.0027 -0.0035  0.0000  0.0000
                                            0.0000  0.0000  0.0044 -0.0073 -0.0029
                                            0.0000  0.0000  0.0000  0.0000  0.0000
                                            0.0000  0.0201  0.0025  0.0082  0.0125
                                            0.0036  0.0014  0.0000  0.0000  0.0013
                                           -0.0007  0.0004 -0.0039  0.0000  0.0000
                                            0.0000  0.0000 -0.0021 -0.0020  0.0113
                                           -0.0079
                ( 17.61%)   0.4197* H   4 s( 99.60%)p 0.00(  0.38%)d 0.00(  0.02%)
                                           -0.9979  0.0115 -0.0028  0.0007 -0.0323
                                           -0.0123  0.0070  0.0036 -0.0443 -0.0233
                                            0.0000  0.0000  0.0000 -0.0051 -0.0026
                                            0.0000  0.0000  0.0000  0.0000 -0.0127
                                           -0.0053  0.0019 -0.0028
     3. (1.99985) CR ( 1) O   1           s(100.00%)
                                            1.0000 -0.0003  0.0000  0.0000  0.0000
                                           -0.0000  0.0000  0.0000 -0.0000  0.0000
                                           -0.0000 -0.0000  0.0000  0.0000  0.0000
                                            0.0000  0.0000 -0.0000 -0.0000 -0.0000
                                            0.0000  0.0000  0.0000  0.0000  0.0000
                                            0.0000 -0.0000 -0.0000  0.0000  0.0000
                                            0.0000 -0.0000  0.0000  0.0000  0.0000
                                            0.0000  0.0000 -0.0000  0.0000  0.0000
                                            0.0000  0.0000  0.0000 -0.0000 -0.0000
                                           -0.0000
     4. (2.00002) CR ( 1) I   3           s(100.00%)
                                            1.0000 -0.0000  0.0000 -0.0000  0.0000
                                           -0.0000 -0.0000 -0.0000 -0.0000 -0.0000
                                            0.0000  0.0000 -0.0000 -0.0000  0.0000
                                           -0.0000  0.0000  0.0000  0.0000  0.0000
                                            0.0000  0.0000 -0.0000  0.0000 -0.0000
                                            0.0000  0.0000  0.0000  0.0000  0.0000
                                            0.0000  0.0000  0.0000 -0.0000  0.0000
                                            0.0000 -0.0000 -0.0000  0.0000 -0.0000
                                            0.0000  0.0000  0.0000  0.0000  0.0000
                                            0.0000  0.0000  0.0000  0.0000  0.0000
                                            0.0000  0.0000  0.0000  0.0000 -0.0000
     5. (2.00007) CR ( 2) I   3           s(  0.00%)p 1.00(100.00%)
                                           -0.0000  0.0000  0.0000 -0.0000  0.0000
                                           -0.0000  1.0000 -0.0000 -0.0000 -0.0000
                                            0.0000 -0.0000  0.0000 -0.0000 -0.0000
                                            0.0000  0.0000  0.0000  0.0000  0.0000
                                            0.0000  0.0000 -0.0000  0.0000  0.0000
                                            0.0000  0.0000  0.0000  0.0000  0.0000
                                            0.0000  0.0000  0.0000  0.0000 -0.0000
                                            0.0000 -0.0000  0.0000 -0.0000 -0.0000
                                            0.0000  0.0000  0.0000  0.0000  0.0000
                                           -0.0000 -0.0000  0.0000  0.0000  0.0000
                                            0.0000  0.0000  0.0000 -0.0000 -0.0000
     6. (2.00007) CR ( 3) I   3           s(  0.00%)p 1.00(100.00%)
                                            0.0000  0.0000 -0.0000  0.0000  0.0000
                                            0.0000 -0.0000  0.0000  0.0000  0.0000
                                           -0.0000  1.0000  0.0000  0.0000 -0.0000
                                            0.0000  0.0000  0.0000  0.0000  0.0000
                                            0.0000 -0.0000  0.0000 -0.0000  0.0000
                                            0.0000  0.0000  0.0000  0.0000  0.0000
                                            0.0000  0.0000  0.0000  0.0000 -0.0000
                                            0.0000  0.0000  0.0000 -0.0000  0.0000
                                            0.0000  0.0000  0.0000 -0.0000 -0.0000
                                           -0.0000 -0.0000  0.0000  0.0000  0.0000
                                            0.0000 -0.0000 -0.0000 -0.0000 -0.0000
     7. (2.00007) CR ( 4) I   3           s(  0.00%)p 1.00(100.00%)
                                            0.0000  0.0000  0.0000  0.0000  0.0000
                                            0.0000  0.0000  0.0000  0.0000  0.0000
                                            0.0000  0.0000  0.0000  0.0000  0.0000
                                            0.0000  1.0000 -0.0000  0.0000 -0.0000
                                           -0.0000  0.0000  0.0000  0.0000  0.0000
                                            0.0000 -0.0000  0.0000 -0.0000  0.0000
                                           -0.0000  0.0000  0.0000  0.0000  0.0000
                                            0.0000  0.0000  0.0000  0.0000  0.0000
                                            0.0000  0.0000  0.0000  0.0000  0.0000
                                            0.0000  0.0000  0.0000  0.0000 -0.0000
                                           -0.0000  0.0000  0.0000  0.0000  0.0000
     8. (1.99676) CR ( 5) I   3           s(  0.00%)p 0.00(  0.00%)d 1.00(100.00%)
                                            0.0000  0.0000 -0.0000  0.0000 -0.0000
                                            0.0000  0.0000  0.0000  0.0000  0.0000
                                           -0.0000 -0.0000  0.0000  0.0000 -0.0000
                                           -0.0000  0.0000  0.0000  0.0000  0.0000
                                            0.0000  1.0000  0.0000 -0.0000  0.0000
                                            0.0000  0.0000  0.0000  0.0000  0.0000
                                            0.0000  0.0000  0.0000  0.0000 -0.0000
                                           -0.0000  0.0000  0.0000 -0.0000  0.0000
                                           -0.0000  0.0000  0.0000 -0.0000 -0.0000
                                           -0.0000 -0.0000  0.0000  0.0000  0.0000
                                            0.0000 -0.0000 -0.0000 -0.0000  0.0000
     9. (1.99679) CR ( 6) I   3           s(  0.00%)p 0.00(  0.00%)d 1.00(100.00%)
                                            0.0000  0.0000  0.0000  0.0000  0.0000
                                            0.0000  0.0000  0.0000  0.0000  0.0000
                                            0.0000  0.0000  0.0000  0.0000  0.0000
                                            0.0000  0.0000  0.0000 -0.0000  0.0000
                                            0.0000  0.0000  0.0000  0.0000  0.0000
                                            1.0000  0.0000 -0.0000  0.0000 -0.0000
                                            0.0000 -0.0000 -0.0000  0.0000  0.0000
                                            0.0000  0.0000  0.0000  0.0000  0.0000
                                            0.0000 -0.0000 -0.0000  0.0000  0.0000
                                            0.0000  0.0000 -0.0000 -0.0000  0.0000
                                            0.0000  0.0000  0.0000  0.0000  0.0000
    10. (1.99677) CR ( 7) I   3           s(  0.00%)p 0.00(  0.00%)d 1.00(100.00%)
                                            0.0000  0.0000  0.0000  0.0000  0.0000
                                            0.0000  0.0000  0.0000  0.0000  0.0000
                                            0.0000  0.0000  0.0000  0.0000  0.0000
                                            0.0000  0.0000  0.0000 -0.0000  0.0000
                                            0.0000  0.0000  0.0000  0.0000  0.0000
                                           -0.0000  0.0000 -0.0000  0.0000  1.0000
                                            0.0000 -0.0000 -0.0000  0.0000  0.0000
                                            0.0000  0.0000  0.0000  0.0000  0.0000
                                            0.0000 -0.0000 -0.0000  0.0000  0.0000
                                            0.0000  0.0000 -0.0000 -0.0000  0.0000
                                            0.0000  0.0000  0.0000  0.0000  0.0000
    11. (1.99674) CR ( 8) I   3           s(  0.00%)p 0.00(  0.00%)d 1.00(100.00%)
                                           -0.0000 -0.0000  0.0000  0.0000 -0.0000
                                           -0.0000  0.0000  0.0000 -0.0000  0.0000
                                            0.0000  0.0000 -0.0000  0.0000  0.0000
                                           -0.0000  0.0000  0.0000  0.0000  0.0000
                                            0.0000  0.0000 -0.0000  0.0000 -0.0000
                                            0.0000  0.0000  0.0000  0.0000  0.0000
                                            0.0000  0.0000  0.0000  1.0000  0.0000
                                           -0.0000 -0.0000 -0.0000  0.0000 -0.0000
                                           -0.0000  0.0000  0.0000  0.0000  0.0000
                                            0.0000  0.0000  0.0000  0.0000  0.0000
                                            0.0000  0.0000  0.0000  0.0000  0.0000
    12. (1.99677) CR ( 9) I   3           s(  0.00%)p 0.00(  0.00%)d 1.00(100.00%)
                                           -0.0000 -0.0000  0.0000  0.0000 -0.0000
                                           -0.0000  0.0000 -0.0000 -0.0000 -0.0000
                                            0.0000  0.0000 -0.0000 -0.0000  0.0000
                                           -0.0000  0.0000  0.0000  0.0000  0.0000
                                            0.0000  0.0000 -0.0000  0.0000 -0.0000
                                            0.0000  0.0000  0.0000  0.0000  0.0000
                                            0.0000  0.0000  0.0000 -0.0000  0.0000
                                           -0.0000 -0.0000  1.0000  0.0000 -0.0000
                                           -0.0000  0.0000  0.0000  0.0000  0.0000
                                            0.0000  0.0000  0.0000  0.0000  0.0000
                                            0.0000  0.0000  0.0000  0.0000  0.0000
    13. (1.97103) LP ( 1) O   1           s( 57.73%)p 0.73( 42.22%)d 0.00(  0.05%)
                                                  f 0.00(  0.00%)
                                            0.0002  0.7597  0.0116  0.0030  0.0040
                                           -0.3484 -0.0087 -0.0024  0.0016  0.5482
                                            0.0151  0.0034 -0.0012  0.0000  0.0000
                                            0.0000  0.0000  0.0140 -0.0013 -0.0034
                                            0.0000  0.0000  0.0000  0.0000  0.0000
                                            0.0000  0.0056  0.0063 -0.0070  0.0080
                                           -0.0070  0.0034  0.0000  0.0000 -0.0004
                                           -0.0002 -0.0024  0.0007  0.0000  0.0000
                                            0.0000  0.0000 -0.0007  0.0030  0.0051
                                           -0.0028
    14. (1.96026) LP ( 2) O   1           s(  0.00%)p 1.00( 99.84%)d 0.00(  0.15%)
                                                  f 0.00(  0.02%)
                                            0.0000  0.0000  0.0000  0.0000  0.0000
                                            0.0000  0.0000  0.0000  0.0000  0.0000
                                            0.0000  0.0000  0.0000  0.9987  0.0305
                                            0.0043  0.0026  0.0000  0.0000  0.0000
                                            0.0247 -0.0212  0.0042 -0.0179 -0.0036
                                            0.0069  0.0000  0.0000  0.0000  0.0000
                                            0.0000  0.0000 -0.0106  0.0018  0.0000
                                            0.0000  0.0000  0.0000  0.0058 -0.0057
                                            0.0026 -0.0004  0.0000  0.0000  0.0000
                                            0.0000
    15. (1.98069) LP ( 1) I   3           s( 99.98%)p 0.00(  0.02%)d 0.00(  0.00%)
                                                  f 0.00(  0.00%)
                                            0.0000  0.9999  0.0000  0.0000 -0.0000
                                           -0.0000 -0.0000 -0.0003  0.0005 -0.0001
                                            0.0001 -0.0000 -0.0125  0.0006 -0.0007
                                            0.0002  0.0000  0.0000  0.0000  0.0000
                                            0.0000 -0.0000  0.0015 -0.0004 -0.0000
                                            0.0000  0.0000  0.0000  0.0000  0.0000
                                            0.0000  0.0000  0.0000  0.0000 -0.0021
                                            0.0004  0.0002  0.0000 -0.0017  0.0004
                                            0.0001  0.0000  0.0000 -0.0002 -0.0001
                                           -0.0007 -0.0005  0.0000  0.0000  0.0000
                                            0.0000 -0.0005 -0.0003 -0.0005 -0.0003
    16. (1.95175) LP ( 2) I   3           s(  0.00%)p 1.00(100.00%)d 0.00(  0.00%)
                                                  f 0.00(  0.00%)
                                            0.0000  0.0000  0.0000  0.0000  0.0000
                                            0.0000  0.0000  0.0000  0.0000  0.0000
                                            0.0000  0.0000  0.0000  0.0000  0.0000
                                            0.0000  0.0000  1.0000 -0.0007  0.0006
                                            0.0001  0.0000  0.0000  0.0000  0.0000
                                           -0.0000  0.0024 -0.0014  0.0011 -0.0000
                                            0.0035 -0.0010 -0.0007  0.0000  0.0000
                                            0.0000  0.0000  0.0000  0.0000  0.0000
                                            0.0000 -0.0012 -0.0010  0.0000  0.0000
                                            0.0000  0.0000 -0.0010 -0.0006  0.0009
                                            0.0009  0.0000  0.0000  0.0000  0.0000
    17. (1.95158) LP ( 3) I   3           s(  0.00%)p 1.00( 99.99%)d 0.00(  0.00%)
                                                  f 0.00(  0.00%)
                                           -0.0000  0.0032  0.0015 -0.0025  0.0022
                                           -0.0001 -0.0000 -0.9587 -0.0008 -0.0011
                                            0.0005  0.0000  0.2842 -0.0014 -0.0006
                                            0.0008 -0.0000 -0.0000 -0.0000 -0.0000
                                           -0.0000  0.0000 -0.0038  0.0010  0.0003
                                           -0.0000 -0.0000 -0.0000 -0.0000 -0.0000
                                           -0.0000 -0.0000 -0.0000  0.0000 -0.0040
                                            0.0018 -0.0008 -0.0000  0.0007 -0.0007
                                            0.0010 -0.0000 -0.0000  0.0006  0.0005
                                           -0.0002 -0.0001 -0.0000 -0.0000 -0.0000
                                           -0.0000  0.0008  0.0003 -0.0016 -0.0014
    18. (1.94974) LP ( 4) I   3           s(  0.01%)p99.99( 99.96%)d 1.30(  0.02%)
                                                  f 0.09(  0.00%)
                                            0.0000  0.0120 -0.0015 -0.0003  0.0003
                                            0.0001 -0.0000  0.2842  0.0016  0.0001
                                           -0.0006 -0.0000  0.9586 -0.0000 -0.0017
                                            0.0004  0.0000  0.0000  0.0000  0.0000
                                            0.0000 -0.0000  0.0073 -0.0015  0.0004
                                            0.0000  0.0000  0.0000  0.0000  0.0000
                                            0.0000  0.0000  0.0000  0.0000 -0.0088
                                            0.0005  0.0021  0.0000 -0.0073  0.0013
                                            0.0001  0.0000  0.0000 -0.0006 -0.0004
                                           -0.0022 -0.0014  0.0000  0.0000  0.0000
                                            0.0000 -0.0018 -0.0007 -0.0015 -0.0005
    19. (0.01735) RY*( 1) O   1           s(  0.00%)p 1.00( 98.64%)d 0.01(  1.30%)
                                                  f 0.00(  0.06%)
                                            0.0000  0.0000  0.0000  0.0000  0.0000
                                            0.0000  0.0000  0.0000  0.0000  0.0000
                                            0.0000  0.0000  0.0000 -0.0340  0.9925
                                           -0.0078  0.0068  0.0000  0.0000  0.0000
                                            0.0935 -0.0619  0.0085  0.0159  0.0044
                                            0.0092  0.0000  0.0000  0.0000  0.0000
                                            0.0000  0.0000 -0.0127  0.0107  0.0000
                                            0.0000  0.0000  0.0000  0.0151 -0.0109
                                            0.0016 -0.0037  0.0000  0.0000  0.0000
                                            0.0000
    20. (0.01407) RY*( 2) O   1           s( 12.82%)p 6.77( 86.79%)d 0.03(  0.33%)
                                                  f 0.01(  0.07%)
                                            0.0000 -0.0234  0.3562 -0.0272 -0.0037
                                            0.0139 -0.4233 -0.0002  0.0009  0.0029
                                            0.8288 -0.0347 -0.0179  0.0000  0.0000
                                            0.0000  0.0000  0.0325 -0.0095 -0.0070
                                            0.0000  0.0000  0.0000  0.0000  0.0000
                                            0.0000 -0.0098  0.0109 -0.0230 -0.0185
                                           -0.0308  0.0093  0.0000  0.0000 -0.0089
                                           -0.0006 -0.0053  0.0088  0.0000  0.0000
                                            0.0000  0.0000 -0.0019  0.0097  0.0187
                                           -0.0052
    21. (0.00894) RY*( 3) O   1           s(  3.57%)p26.10( 93.08%)d 0.92(  3.28%)
                                                  f 0.02(  0.08%)
                                           -0.0000  0.0063  0.1820 -0.0500 -0.0015
                                           -0.0268 -0.8232 -0.0234 -0.0049 -0.0293
                                           -0.4943  0.0677  0.0450 -0.0000 -0.0000
                                           -0.0000 -0.0000 -0.0989 -0.0018 -0.0038
                                           -0.0000 -0.0000 -0.0000 -0.0000 -0.0000
                                           -0.0000  0.0937  0.1064 -0.0361 -0.0243
                                           -0.0172  0.0254 -0.0000 -0.0000 -0.0051
                                           -0.0133  0.0059 -0.0076 -0.0000 -0.0000
                                           -0.0000 -0.0000  0.0176  0.0027 -0.0135
                                            0.0045
    22. (0.00582) RY*( 4) O   1           s( 68.65%)p 0.18( 12.61%)d 0.26( 17.98%)
                                                  f 0.01(  0.76%)
                                           -0.0000  0.0121  0.8272 -0.0452 -0.0083
                                            0.0039  0.2898  0.0174 -0.0251 -0.0259
                                           -0.1944  0.0520  0.0047  0.0000  0.0000
                                            0.0000  0.0000 -0.0153 -0.0086 -0.0066
                                            0.0000  0.0000  0.0000  0.0000  0.0000
                                            0.0000 -0.0447 -0.0033  0.0210  0.4181
                                            0.0452 -0.0127  0.0000  0.0000 -0.0055
                                            0.0234  0.0351 -0.0213  0.0000  0.0000
                                            0.0000  0.0000  0.0534 -0.0381  0.0299
                                           -0.0102
    23. (0.00437) RY*( 5) O   1           s(  0.00%)p 1.00(  0.97%)d99.99( 98.85%)
                                                  f 0.18(  0.18%)
                                            0.0000  0.0000  0.0000  0.0000  0.0000
                                            0.0000  0.0000  0.0000  0.0000  0.0000
                                            0.0000  0.0000  0.0000 -0.0276 -0.0932
                                            0.0141 -0.0082  0.0000  0.0000  0.0000
                                            0.9565 -0.0892 -0.0225 -0.2551  0.0105
                                            0.0082  0.0000  0.0000  0.0000  0.0000
                                            0.0000  0.0000 -0.0107  0.0014  0.0000
                                            0.0000  0.0000  0.0000  0.0294 -0.0183
                                           -0.0006 -0.0210  0.0000  0.0000  0.0000
                                            0.0000
    24. (0.00316) RY*( 6) O   1           s(  0.00%)p 1.00(  3.24%)d29.35( 95.17%)
                                                  f 0.49(  1.58%)
                                            0.0000  0.0000  0.0000  0.0000  0.0000
                                            0.0000  0.0000  0.0000  0.0000  0.0000
                                            0.0000  0.0000  0.0000  0.0122 -0.0351
                                            0.1305  0.1183  0.0000  0.0000  0.0000
                                            0.2468  0.0342 -0.0260  0.9282  0.1483
                                           -0.0735  0.0000  0.0000  0.0000  0.0000
                                            0.0000  0.0000 -0.0722  0.0326  0.0000
                                            0.0000  0.0000  0.0000 -0.0674  0.0322
                                            0.0613 -0.0146  0.0000  0.0000  0.0000
                                            0.0000
    25. (0.00304) RY*( 7) O   1           s(  6.60%)p 0.59(  3.92%)d13.24( 87.46%)
                                                  f 0.31(  2.02%)
                                            0.0000 -0.0010  0.2452 -0.0479 -0.0602
                                           -0.0202  0.1496 -0.0845 -0.0914  0.0163
                                           -0.0155 -0.0036 -0.0192 -0.0000 -0.0000
                                           -0.0000 -0.0000 -0.6808 -0.0896  0.0576
                                           -0.0000 -0.0000 -0.0000 -0.0000 -0.0000
                                           -0.0000 -0.0923 -0.0530  0.0507 -0.6207
                                           -0.0226 -0.0086 -0.0000 -0.0000  0.0654
                                           -0.0264 -0.0305  0.0162 -0.0000 -0.0000
                                           -0.0000 -0.0000 -0.0384 -0.0087 -0.1079
                                            0.0285
    26. (0.00253) RY*( 8) O   1           s(  7.27%)p 0.72(  5.23%)d11.59( 84.26%)
                                                  f 0.45(  3.25%)
                                           -0.0000 -0.0043  0.2595 -0.0211 -0.0697
                                           -0.0131  0.1282  0.1181  0.1210 -0.0165
                                           -0.0758  0.0277 -0.0183 -0.0000 -0.0000
                                           -0.0000 -0.0000  0.5087  0.0808 -0.0227
                                           -0.0000 -0.0000 -0.0000 -0.0000 -0.0000
                                           -0.0000  0.5222  0.1198  0.0117 -0.5352
                                           -0.0541 -0.0137 -0.0000 -0.0000  0.0621
                                           -0.0256 -0.0265  0.0092 -0.0000 -0.0000
                                           -0.0000 -0.0000 -0.1503  0.0537  0.0316
                                           -0.0261
    27. (0.00171) RY*( 9) O   1           s(  4.18%)p 1.16(  4.85%)d19.35( 80.83%)
                                                  f 2.43( 10.14%)
                                           -0.0000 -0.0002 -0.1159  0.1559  0.0634
                                           -0.0150  0.0573  0.0453  0.0346 -0.0133
                                            0.1216  0.1521  0.0606  0.0000  0.0000
                                            0.0000  0.0000 -0.4081 -0.1472 -0.0262
                                            0.0000  0.0000  0.0000  0.0000  0.0000
                                            0.0000  0.6793  0.2756  0.1024  0.2440
                                            0.1050  0.0304  0.0000  0.0000  0.1269
                                           -0.0321  0.1953 -0.0227  0.0000  0.0000
                                            0.0000  0.0000  0.1111  0.0075  0.1812
                                           -0.0204
    28. (0.00076) RY*(10) O   1           s( 49.34%)p 0.80( 39.25%)d 0.18(  9.09%)
                                                  f 0.05(  2.32%)
                                            0.0000 -0.0035  0.0417  0.6968 -0.0786
                                           -0.0044 -0.0368 -0.0162 -0.0900 -0.0057
                                           -0.0053  0.5216 -0.3326  0.0000  0.0000
                                            0.0000  0.0000  0.0226  0.1232 -0.0250
                                            0.0000  0.0000  0.0000  0.0000  0.0000
                                            0.0000 -0.0583 -0.2071 -0.0013 -0.0222
                                           -0.1667  0.0017  0.0000  0.0000  0.0074
                                            0.0173 -0.0026  0.0837  0.0000  0.0000
                                            0.0000  0.0000 -0.0290  0.0782  0.0079
                                            0.0940
    29. (0.00052) RY*(11) O   1           s(  0.00%)p 1.00( 73.66%)d 0.27( 19.95%)
                                                  f 0.09(  6.39%)
                                            0.0000  0.0000  0.0000  0.0000  0.0000
                                            0.0000  0.0000  0.0000  0.0000  0.0000
                                            0.0000  0.0000  0.0000 -0.0036  0.0128
                                            0.8550 -0.0732  0.0000  0.0000  0.0000
                                           -0.0138  0.0398 -0.0181 -0.0215 -0.4308
                                           -0.1066  0.0000  0.0000  0.0000  0.0000
                                            0.0000  0.0000  0.1272 -0.0073  0.0000
                                            0.0000  0.0000  0.0000  0.2172  0.0100
                                           -0.0167  0.0099  0.0000  0.0000  0.0000
                                            0.0000
    30. (0.00052) RY*(12) O   1           s(  1.15%)p56.87( 65.25%)d21.52( 24.68%)
                                                  f 7.77(  8.91%)
                                           -0.0000  0.0087 -0.0029  0.0787 -0.0721
                                           -0.0000 -0.0586  0.7946  0.0304 -0.0060
                                           -0.0336 -0.1242 -0.0142  0.0000  0.0000
                                            0.0000  0.0000 -0.0305 -0.4039 -0.0778
                                            0.0000  0.0000  0.0000  0.0000  0.0000
                                            0.0000 -0.0526 -0.2552  0.0239  0.0012
                                           -0.0465 -0.0779  0.0000  0.0000  0.2111
                                            0.0292 -0.1678 -0.0042  0.0000  0.0000
                                            0.0000  0.0000  0.0620 -0.0323  0.1031
                                           -0.0067
    31. (0.00050) RY*(13) O   1           s(  0.00%)p 1.00(  0.52%)d82.20( 42.75%)
                                                  f99.99( 56.73%)
                                            0.0000  0.0000  0.0000  0.0000  0.0000
                                            0.0000  0.0000  0.0000  0.0000  0.0000
                                            0.0000  0.0000  0.0000  0.0155  0.0434
                                           -0.0433  0.0346  0.0000  0.0000  0.0000
                                            0.0843  0.5930  0.1832 -0.0237 -0.1828
                                           -0.0348  0.0000  0.0000  0.0000  0.0000
                                            0.0000  0.0000  0.4765 -0.0058  0.0000
                                            0.0000  0.0000  0.0000 -0.5575  0.0018
                                            0.1700  0.0233  0.0000  0.0000  0.0000
                                            0.0000
    32. (0.00045) RY*(14) O   1           s(  0.25%)p19.30(  4.77%)d39.45(  9.75%)
                                                  f99.99( 85.23%)
                                            0.0000  0.0022 -0.0042  0.0364 -0.0335
                                            0.0056 -0.0087  0.2156  0.0161  0.0104
                                            0.0275 -0.0006  0.0020 -0.0000 -0.0000
                                           -0.0000 -0.0000  0.0370  0.2480  0.0885
                                           -0.0000 -0.0000 -0.0000 -0.0000 -0.0000
                                           -0.0000  0.0076  0.0599  0.0410  0.0076
                                            0.1451  0.0193 -0.0000 -0.0000  0.2812
                                            0.0388  0.2863  0.0229 -0.0000 -0.0000
                                           -0.0000 -0.0000  0.3401  0.0598 -0.7516
                                           -0.0717
    33. (0.00045) RY*(15) O   1           s(  0.00%)p 1.00(  0.31%)d41.86( 12.90%)
                                                  f99.99( 86.79%)
                                            0.0000  0.0000  0.0000  0.0000  0.0000
                                            0.0000  0.0000  0.0000  0.0000  0.0000
                                            0.0000  0.0000  0.0000  0.0060 -0.0043
                                           -0.0510  0.0207  0.0000  0.0000  0.0000
                                           -0.0050 -0.0569 -0.0290  0.0364  0.3450
                                            0.0675  0.0000  0.0000  0.0000  0.0000
                                            0.0000  0.0000  0.7582  0.1235  0.0000
[...]
                                           -0.0518  0.0216  0.6358 -0.2550  0.0797
                                            0.0000  0.0000  0.0000  0.0379 -0.0006
                                            0.0000  0.0000  0.0000  0.0000 -0.0724
                                           -0.0091  0.0362  0.0011
   128. (0.00100) RY*( 5) H   4           s(  0.00%)p 1.00( 17.12%)d 4.84( 82.88%)
                                            0.0000  0.0000  0.0000  0.0000  0.0000
                                            0.0000  0.0000  0.0000  0.0000  0.0000
                                           -0.1014 -0.3337  0.2227  0.0000  0.0000
                                            0.7829 -0.2184 -0.3236 -0.2520  0.0000
                                            0.0000  0.0000  0.0000
   129. (0.00096) RY*( 6) H   4           s( 12.62%)p 4.81( 60.71%)d 2.11( 26.67%)
                                           -0.0034  0.1026  0.3327 -0.0707 -0.1724
                                            0.7063 -0.2090  0.1023 -0.1550  0.0199
                                            0.0000  0.0000  0.0000  0.1994  0.2009
                                            0.0000  0.0000  0.0000  0.0000  0.2719
                                            0.0571 -0.3295 -0.0275
   130. (0.00076) RY*( 7) H   4           s( 30.64%)p 0.98( 30.16%)d 1.28( 39.20%)
                                           -0.0048  0.1227  0.5379 -0.0435 -0.0040
                                           -0.3615  0.2596  0.2184  0.2336  0.0351
                                            0.0000  0.0000  0.0000 -0.2533 -0.1275
                                            0.0000  0.0000  0.0000  0.0000  0.1781
                                           -0.1731 -0.4998 -0.0109
   131. (0.00069) RY*( 8) H   4           s(  0.00%)p 1.00( 58.45%)d 0.71( 41.55%)
                                            0.0000  0.0000  0.0000  0.0000  0.0000
                                            0.0000  0.0000  0.0000  0.0000  0.0000
                                           -0.2579  0.6974 -0.1780  0.0000  0.0000
                                            0.5225  0.0432  0.2783  0.2514  0.0000
                                            0.0000  0.0000  0.0000
   132. (0.00061) RY*( 9) H   4           s( 17.46%)p 2.71( 47.29%)d 2.02( 35.25%)
                                           -0.0326  0.0806  0.4040 -0.0615  0.1758
                                            0.2333  0.0456  0.2240  0.5645  0.1291
                                            0.0000  0.0000  0.0000  0.0535  0.0837
                                            0.0000  0.0000  0.0000  0.0000 -0.2421
                                            0.0584  0.5291  0.0274
   133. (0.00042) RY*(10) H   4           s( 28.18%)p 1.52( 42.79%)d 1.03( 29.03%)
                                            0.0349 -0.0200  0.5108 -0.1388  0.0475
                                           -0.1272  0.0661 -0.1023 -0.6176 -0.1151
                                           -0.0000 -0.0000 -0.0000  0.1338  0.0450
                                           -0.0000 -0.0000 -0.0000 -0.0000 -0.4808
                                           -0.1405  0.1392 -0.0074
   134. (0.00027) RY*(11) H   4           s(  9.49%)p 4.48( 42.54%)d 5.06( 47.98%)
                                            0.0158  0.0654  0.1771  0.2428  0.0387
                                           -0.0478 -0.1982  0.1051 -0.1364 -0.5938
                                            0.0000  0.0000  0.0000 -0.3240  0.0341
                                            0.0000  0.0000  0.0000  0.0000  0.4522
                                           -0.0739  0.4006 -0.0566
   135. (0.00019) RY*(12) H   4           s(  0.16%)p24.95(  4.06%)d99.99( 95.77%)
                                           -0.0010  0.0025  0.0162  0.0369 -0.0716
                                           -0.0557  0.1704  0.0115  0.0339 -0.0457
                                            0.0000  0.0000  0.0000  0.6782 -0.3654
                                            0.0000  0.0000  0.0000  0.0000  0.3236
                                           -0.4186  0.1664  0.2379
   136. (0.00020) RY*(13) H   4           s(  0.00%)p 1.00( 24.70%)d 3.05( 75.30%)
                                            0.0000  0.0000  0.0000  0.0000  0.0000
                                            0.0000  0.0000  0.0000  0.0000  0.0000
                                            0.0178 -0.2861 -0.4060  0.0000  0.0000
                                            0.1559  0.5269 -0.3927  0.5449  0.0000
                                            0.0000  0.0000  0.0000
   137. (0.00016) RY*(14) H   4           s(  0.00%)p 1.00( 35.45%)d 1.82( 64.55%)
                                            0.0000  0.0000  0.0000  0.0000  0.0000
                                            0.0000  0.0000  0.0000  0.0000  0.0000
                                           -0.0598 -0.4995 -0.3184  0.0000  0.0000
                                            0.1785  0.1388  0.7589 -0.1359  0.0000
                                            0.0000  0.0000  0.0000
   138. (0.00015) RY*(15) H   4           s(  2.40%)p26.82( 64.45%)d13.79( 33.14%)
                                           -0.0066  0.0002  0.1453 -0.0537 -0.0550
                                           -0.4880 -0.6194  0.0823  0.1137  0.0072
                                            0.0000  0.0000  0.0000  0.4154  0.1158
                                            0.0000  0.0000  0.0000  0.0000  0.0545
                                            0.3454 -0.0547 -0.1421
   139. (0.00011) RY*(16) H   4           s(  0.00%)p 1.00( 44.58%)d 1.24( 55.42%)
                                            0.0000  0.0000  0.0000  0.0000  0.0000
                                            0.0000  0.0000  0.0000  0.0000  0.0000
                                           -0.0536 -0.2119  0.6309  0.0000  0.0000
                                            0.0136 -0.1384  0.2651  0.6816  0.0000
                                            0.0000  0.0000  0.0000
   140. (0.00012) RY*(17) H   4           s(  1.47%)p26.95( 39.53%)d40.22( 59.00%)
                                            0.0068 -0.0025 -0.0245  0.1184 -0.0999
                                           -0.1527  0.5796  0.0162 -0.0021 -0.1605
                                            0.0000  0.0000  0.0000  0.2630  0.6454
                                            0.0000  0.0000  0.0000  0.0000  0.1443
                                            0.2880  0.0235  0.0069
   141. (0.00010) RY*(18) H   4           s(  1.45%)p14.61( 21.16%)d53.43( 77.39%)
   142. (0.00010) RY*(19) H   4           s(  0.00%)p 1.00( 27.03%)d 2.70( 72.97%)
   143. (0.00009) RY*(20) H   4           s(  1.70%)p 3.34(  5.68%)d54.55( 92.62%)
   144. (0.00005) RY*(21) H   4           s( 84.65%)p 0.15( 13.09%)d 0.03(  2.27%)
   145. (0.00002) RY*(22) H   4           s(  5.36%)p 8.05( 43.18%)d 9.60( 51.46%)
   146. (0.01908) BD*( 1) O   1 - H   2  
                ( 16.40%)   0.4050* O   1 s( 15.98%)p 5.25( 83.89%)d 0.01(  0.12%)
                                                  f 0.00(  0.01%)
                                           -0.0002 -0.3996 -0.0039 -0.0064  0.0055
                                           -0.9152  0.0160  0.0075 -0.0010 -0.0285
                                            0.0132  0.0003  0.0032 -0.0000 -0.0000
                                           -0.0000 -0.0000  0.0132  0.0005 -0.0024
                                           -0.0000 -0.0000 -0.0000 -0.0000 -0.0000
                                           -0.0000 -0.0216  0.0053 -0.0081  0.0196
                                           -0.0066  0.0013 -0.0000 -0.0000  0.0014
                                            0.0039 -0.0031  0.0001 -0.0000 -0.0000
                                           -0.0000 -0.0000  0.0013 -0.0034 -0.0075
                                            0.0008
                ( 83.60%)  -0.9143* H   2 s( 99.56%)p 0.00(  0.44%)d 0.00(  0.01%)
                                           -0.9978  0.0042  0.0013  0.0009  0.0107
                                           -0.0643  0.0033  0.0088 -0.0026 -0.0028
                                           -0.0000 -0.0000 -0.0000 -0.0057 -0.0037
                                           -0.0000 -0.0000 -0.0000 -0.0000  0.0001
                                           -0.0032  0.0012  0.0056
   147. (0.00965) BD*( 1) O   1 - H   4  
                ( 17.61%)   0.4197* O   1 s( 26.29%)p 2.80( 73.61%)d 0.00(  0.07%)
                                                  f 0.00(  0.02%)
                                            0.0002  0.5121 -0.0232 -0.0105 -0.0027
                                           -0.1964  0.0130 -0.0048 -0.0025 -0.8343
                                            0.0368  0.0027  0.0035 -0.0000 -0.0000
                                           -0.0000 -0.0000 -0.0044  0.0073  0.0029
                                           -0.0000 -0.0000 -0.0000 -0.0000 -0.0000
                                           -0.0000 -0.0201 -0.0025 -0.0082 -0.0125
                                           -0.0036 -0.0014 -0.0000 -0.0000 -0.0013
                                            0.0007 -0.0004  0.0039 -0.0000 -0.0000
                                           -0.0000 -0.0000  0.0021  0.0020 -0.0113
                                            0.0079
                ( 82.39%)  -0.9077* H   4 s( 99.60%)p 0.00(  0.38%)d 0.00(  0.02%)
                                            0.9979 -0.0115  0.0028 -0.0007  0.0323
                                            0.0123 -0.0070 -0.0036  0.0443  0.0233
                                           -0.0000 -0.0000 -0.0000  0.0051  0.0026
                                           -0.0000 -0.0000 -0.0000 -0.0000  0.0127
                                            0.0053 -0.0019  0.0028


 NHO Directionality and "Bond Bending" (deviations from line of nuclear centers)

         [Thresholds for printing:  angular deviation  >  1.0 degree]
                                    hybrid p-character > 25.0%
                                    orbital occupancy  >  0.10e

                                Line of Centers        Hybrid 1              Hybrid 2
                                ---------------  -------------------   ------------------
                NBO               Theta   Phi    Theta   Phi    Dev    Theta   Phi    Dev
 ========================================================================================
     2. BD (   1) O   1 - H   4    90.0  258.1    90.0  256.4   1.7      --     --    --
    13. LP (   1) O   1             --     --     90.0  122.3   --       --     --    --
    14. LP (   2) O   1             --     --      0.0    0.0   --       --     --    --
    16. LP (   2) I   3             --     --      0.0    0.0   --       --     --    --
    17. LP (   3) I   3             --     --     90.0  163.6   --       --     --    --
    18. LP (   4) I   3             --     --     90.0   73.4   --       --     --    --


 Natural Bond Orbitals (Summary):

           NBO                  Occupancy  
 -----------------------------------------------
 Molecular unit  1  (H2O)
     1. BD (   1) O   1 - H   2          1.96545
     2. BD (   1) O   1 - H   4          1.97436
     3. CR (   1) O   1                  1.99985
    13. LP (   1) O   1                  1.97103
    14. LP (   2) O   1                  1.96026
    19. RY*(   1) O   1                  0.01735
    20. RY*(   2) O   1                  0.01407
    21. RY*(   3) O   1                  0.00894
    22. RY*(   4) O   1                  0.00582
    23. RY*(   5) O   1                  0.00437
    24. RY*(   6) O   1                  0.00316
    25. RY*(   7) O   1                  0.00304
    26. RY*(   8) O   1                  0.00253
    27. RY*(   9) O   1                  0.00171
    28. RY*(  10) O   1                  0.00076
    29. RY*(  11) O   1                  0.00052
    30. RY*(  12) O   1                  0.00052
    31. RY*(  13) O   1                  0.00050
    32. RY*(  14) O   1                  0.00045
    33. RY*(  15) O   1                  0.00045
    34. RY*(  16) O   1                  0.00044
    35. RY*(  17) O   1                  0.00044
    36. RY*(  18) O   1                  0.00043
    37. RY*(  19) O   1                  0.00041
    38. RY*(  20) O   1                  0.00040
    39. RY*(  21) O   1                  0.00026
    40. RY*(  22) O   1                  0.00025
    41. RY*(  23) O   1                  0.00022
    42. RY*(  24) O   1                  0.00017
    43. RY*(  25) O   1                  0.00014
    44. RY*(  26) O   1                  0.00011
    45. RY*(  27) O   1                  0.00007
    46. RY*(  28) O   1                  0.00007
    47. RY*(  29) O   1                  0.00008
    48. RY*(  30) O   1                  0.00008
    49. RY*(  31) O   1                  0.00007
    50. RY*(  32) O   1                  0.00006
    51. RY*(  33) O   1                  0.00006
    52. RY*(  34) O   1                  0.00006
    53. RY*(  35) O   1                  0.00006
    54. RY*(  36) O   1                  0.00004
    55. RY*(  37) O   1                  0.00004
    56. RY*(  38) O   1                  0.00004
    57. RY*(  39) O   1                  0.00001
    58. RY*(  40) O   1                  0.00001
    59. RY*(  41) O   1                 -0.00004
    60. RY*(   1) H   2                  0.00415
    61. RY*(   2) H   2                  0.00204
    62. RY*(   3) H   2                  0.00126
    63. RY*(   4) H   2                  0.00053
    64. RY*(   5) H   2                  0.00036
    65. RY*(   6) H   2                  0.00033
    66. RY*(   7) H   2                  0.00018
    67. RY*(   8) H   2                  0.00019
    68. RY*(   9) H   2                  0.00015
    69. RY*(  10) H   2                  0.00012
    70. RY*(  11) H   2                  0.00009
    71. RY*(  12) H   2                  0.00008
    72. RY*(  13) H   2                  0.00006
    73. RY*(  14) H   2                  0.00004
    74. RY*(  15) H   2                  0.00004
    75. RY*(  16) H   2                  0.00004
    76. RY*(  17) H   2                  0.00003
    77. RY*(  18) H   2                  0.00003
    78. RY*(  19) H   2                  0.00001
    79. RY*(  20) H   2                  0.00001
    80. RY*(  21) H   2                  0.00002
    81. RY*(  22) H   2                  0.00001
   124. RY*(   1) H   4                  0.00839
   125. RY*(   2) H   4                  0.00820
   126. RY*(   3) H   4                  0.00635
   127. RY*(   4) H   4                  0.00247
   128. RY*(   5) H   4                  0.00100
   129. RY*(   6) H   4                  0.00096
   130. RY*(   7) H   4                  0.00076
   131. RY*(   8) H   4                  0.00069
   132. RY*(   9) H   4                  0.00061
   133. RY*(  10) H   4                  0.00042
   134. RY*(  11) H   4                  0.00027
   135. RY*(  12) H   4                  0.00019
   136. RY*(  13) H   4                  0.00020
   137. RY*(  14) H   4                  0.00016
   138. RY*(  15) H   4                  0.00015
   139. RY*(  16) H   4                  0.00011
   140. RY*(  17) H   4                  0.00012
   141. RY*(  18) H   4                  0.00010
   142. RY*(  19) H   4                  0.00010
   143. RY*(  20) H   4                  0.00009
   144. RY*(  21) H   4                  0.00005
   145. RY*(  22) H   4                  0.00002
   146. BD*(   1) O   1 - H   2          0.01908
   147. BD*(   1) O   1 - H   4          0.00965
       -------------------------------
              Total Lewis    9.87095  ( 98.6206%)
        Valence non-Lewis    0.02873  (  0.2870%)
        Rydberg non-Lewis    0.10933  (  1.0923%)
       -------------------------------
            Total unit  1   10.00901  (100.0000%)
           Charge unit  1   -0.00901

 Molecular unit  2  (I)
     4. CR (   1) I   3                  2.00002
     5. CR (   2) I   3                  2.00007
     6. CR (   3) I   3                  2.00007
     7. CR (   4) I   3                  2.00007
     8. CR (   5) I   3                  1.99676
     9. CR (   6) I   3                  1.99679
    10. CR (   7) I   3                  1.99677
    11. CR (   8) I   3                  1.99674
    12. CR (   9) I   3                  1.99677
    15. LP (   1) I   3                  1.98069
    16. LP (   2) I   3                  1.95175
    17. LP (   3) I   3                  1.95158
    18. LP (   4) I   3                  1.94974
    82. RY*(   1) I   3                  0.02034
    83. RY*(   2) I   3                  0.02032
    84. RY*(   3) I   3                  0.02027
    85. RY*(   4) I   3                  0.02020
    86. RY*(   5) I   3                  0.02021
    87. RY*(   6) I   3                  0.01130
    88. RY*(   7) I   3                  0.01125
    89. RY*(   8) I   3                  0.01058
    90. RY*(   9) I   3                  0.00458
    91. RY*(  10) I   3                  0.00279
    92. RY*(  11) I   3                  0.00279
    93. RY*(  12) I   3                  0.00277
    94. RY*(  13) I   3                  0.00277
    95. RY*(  14) I   3                  0.00274
    96. RY*(  15) I   3                  0.00274
    97. RY*(  16) I   3                  0.00271
    98. RY*(  17) I   3                  0.00169
    99. RY*(  18) I   3                  0.00169
   100. RY*(  19) I   3                  0.00156
   101. RY*(  20) I   3                  0.00155
   102. RY*(  21) I   3                  0.00131
   103. RY*(  22) I   3                  0.00076
   104. RY*(  23) I   3                  0.00076
   105. RY*(  24) I   3                  0.00073
   106. RY*(  25) I   3                  0.00053
   107. RY*(  26) I   3                  0.00049
   108. RY*(  27) I   3                  0.00047
   109. RY*(  28) I   3                  0.00044
   110. RY*(  29) I   3                  0.00044
   111. RY*(  30) I   3                  0.00043
   112. RY*(  31) I   3                  0.00043
   113. RY*(  32) I   3                  0.00038
   114. RY*(  33) I   3                  0.00020
   115. RY*(  34) I   3                  0.00020
   116. RY*(  35) I   3                  0.00016
   117. RY*(  36) I   3                  0.00016
   118. RY*(  37) I   3                  0.00015
   119. RY*(  38) I   3                  0.00008
   120. RY*(  39) I   3                  0.00008
   121. RY*(  40) I   3                  0.00008
   122. RY*(  41) I   3                  0.00006
   123. RY*(  42) I   3                  0.00000
       -------------------------------
              Total Lewis   53.81780  ( 99.6792%)
        Valence non-Lewis    0.00000  (  0.0000%)
        Rydberg non-Lewis    0.17318  (  0.3208%)
       -------------------------------
            Total unit  2   53.99099  (100.0000%)
           Charge unit  2   -0.99099
 Leave Link  607 at Tue Oct 12 16:21:11 2021, MaxMem=  1048576000 cpu:         5.6
 (Enter /usr/local/gaussian/g09/l9999.exe)
 1\1\GINC-KRYPTON\SP\RMP2-FC\Gen\H2I1O1(1-)\CGAVINH\12-Oct-2021\0\\#p p
 op=NBO SP NoSymm mp2/gen Pseudo=read density=current\\title\\-1,1\O\X,
 1,10.\H,1,0.9609077,2,90.\I,1,3.50850362,2,90.,3,101.85830594,0\H,1,0.
 75,2,90.,3,101.85830594,0\\Version=ES64L-G09RevE.01\HF=-370.7486839\MP
 2=-371.2344675\RMSD=2.963e-09\Dipole=0.7979683,1.0106376,0.\Quadrupole
 =13.2408461,-26.1860711,12.9452251,-7.7402749,0.,0.\PG=CS [SG(H2I1O1)]
 \\@


 COMMON SENSE IS NOT SO COMMON.   -- VOLTAIRE
 Job cpu time:       0 days  0 hours  2 minutes 37.2 seconds.
 File lengths (MBytes):  RWF=     15 Int=      0 D2E=      0 Chk=      3 Scr=      1
 Normal termination of Gaussian 09 at Tue Oct 12 16:21:11 2021.
