 Entering Gaussian System, Link 0=g16
 Input=ihod_rOH_135_sp.gjf
 Output=ihod_rOH_135_sp.log
 Initial command:
 /sw/contrib/gaussian/g16/B01/g16/l1.exe "/scr/Gau-28818.inp" -scrdir="/scr/"
 Entering Link 1 = /sw/contrib/gaussian/g16/B01/g16/l1.exe PID=     28819.
  
 Copyright (c) 1988-2017, Gaussian, Inc.  All Rights Reserved.
  
 This is part of the Gaussian(R) 16 program.  It is based on
 the Gaussian(R) 09 system (copyright 2009, Gaussian, Inc.),
 the Gaussian(R) 03 system (copyright 2003, Gaussian, Inc.),
 the Gaussian(R) 98 system (copyright 1998, Gaussian, Inc.),
 the Gaussian(R) 94 system (copyright 1995, Gaussian, Inc.),
 the Gaussian 92(TM) system (copyright 1992, Gaussian, Inc.),
 the Gaussian 90(TM) system (copyright 1990, Gaussian, Inc.),
 the Gaussian 88(TM) system (copyright 1988, Gaussian, Inc.),
 the Gaussian 86(TM) system (copyright 1986, Carnegie Mellon
 University), and the Gaussian 82(TM) system (copyright 1983,
 Carnegie Mellon University). Gaussian is a federally registered
 trademark of Gaussian, Inc.
  
 This software contains proprietary and confidential information,
 including trade secrets, belonging to Gaussian, Inc.
  
 This software is provided under written license and may be
 used, copied, transmitted, or stored only in accord with that
 written license.
  
 The following legend is applicable only to US Government
 contracts under FAR:
  
                    RESTRICTED RIGHTS LEGEND
  
 Use, reproduction and disclosure by the US Government is
 subject to restrictions as set forth in subparagraphs (a)
 and (c) of the Commercial Computer Software - Restricted
 Rights clause in FAR 52.227-19.
  
 Gaussian, Inc.
 340 Quinnipiac St., Bldg. 40, Wallingford CT 06492
  
  
 ---------------------------------------------------------------
 Warning -- This program may not be used in any manner that
 competes with the business of Gaussian, Inc. or will provide
 assistance to any competitor of Gaussian, Inc.  The licensee
 of this program is prohibited from giving any competitor of
 Gaussian, Inc. access to this program.  By using this program,
 the user acknowledges that Gaussian, Inc. is engaged in the
 business of creating and licensing software in the field of
 computational chemistry and represents and warrants to the
 licensee that it is not a competitor of Gaussian, Inc. and that
 it will not use this program in any manner prohibited above.
 ---------------------------------------------------------------
  

 Cite this work as:
 Gaussian 16, Revision B.01,
 M. J. Frisch, G. W. Trucks, H. B. Schlegel, G. E. Scuseria, 
 M. A. Robb, J. R. Cheeseman, G. Scalmani, V. Barone, 
 G. A. Petersson, H. Nakatsuji, X. Li, M. Caricato, A. V. Marenich, 
 J. Bloino, B. G. Janesko, R. Gomperts, B. Mennucci, H. P. Hratchian, 
 J. V. Ortiz, A. F. Izmaylov, J. L. Sonnenberg, D. Williams-Young, 
 F. Ding, F. Lipparini, F. Egidi, J. Goings, B. Peng, A. Petrone, 
 T. Henderson, D. Ranasinghe, V. G. Zakrzewski, J. Gao, N. Rega, 
 G. Zheng, W. Liang, M. Hada, M. Ehara, K. Toyota, R. Fukuda, 
 J. Hasegawa, M. Ishida, T. Nakajima, Y. Honda, O. Kitao, H. Nakai, 
 T. Vreven, K. Throssell, J. A. Montgomery, Jr., J. E. Peralta, 
 F. Ogliaro, M. J. Bearpark, J. J. Heyd, E. N. Brothers, K. N. Kudin, 
 V. N. Staroverov, T. A. Keith, R. Kobayashi, J. Normand, 
 K. Raghavachari, A. P. Rendell, J. C. Burant, S. S. Iyengar, 
 J. Tomasi, M. Cossi, J. M. Millam, M. Klene, C. Adamo, R. Cammi, 
 J. W. Ochterski, R. L. Martin, K. Morokuma, O. Farkas, 
 J. B. Foresman, and D. J. Fox, Gaussian, Inc., Wallingford CT, 2016.
 
 ******************************************
 Gaussian 16:  ES64L-G16RevB.01 20-Dec-2017
                26-Oct-2021 
 ******************************************
 %nproc=28
 Will use up to   28 processors via shared memory.
 %mem=120GB
 %chk=/gscratch/ilahie/mccoygrp/coire_hocl/rOH_s_oop_0/ihod/ihod_rOH_135.chk
 --------------------------------------------------------
 #p pop=NBO SP NoSymm mp2/gen Pseudo=read density=current
 --------------------------------------------------------
 1/30=1,38=1,172=1/1;
 2/12=2,15=1,17=6,18=5,40=1/2;
 3/5=7,11=9,16=1,17=8,25=1,30=1,71=1/1,2,3;
 4//1;
 5/5=2,38=5/2;
 8/6=4,10=1/1;
 9/15=1,16=-3/6;
 10/5=1,13=10,31=1/2;
 6/7=2,8=2,9=2,10=2,22=-1,40=1/1,7;
 99/5=1,9=1/99;
 Leave Link    1 at Tue Oct 26 13:22:18 2021, MaxMem= 16106127360 cpu:               2.4 elap:               0.1
 (Enter /sw/contrib/gaussian/g16/B01/g16/l101.exe)
 -----
 title
 -----
 Symbolic Z-matrix:
 Charge = -1 Multiplicity = 1
 O
 X                    1     10. 
 H(iso=2)             1    r1       2     90. 
 I                    1    r2       2     90.      3    a1       0
 H                    1    r3       2    oop      3    a1       0
       Variables:
  r1                    0.96091                  
  r2                    3.5085                   
  r3                    1.35                     
  a1                  101.85832                  
  OOP                  90.                       
 
 ITRead=  0  0  0  0
 MicOpt= -1 -1 -1 -1
 NAtoms=      4 NQM=        4 NQMF=       0 NMMI=      0 NMMIF=      0
                NMic=       0 NMicF=      0.
                    Isotopes and Nuclear Properties:
 (Nuclear quadrupole moments (NQMom) in fm**2, nuclear magnetic moments (NMagM)
  in nuclear magnetons)

  Atom         1           2           3           4
 IAtWgt=          16           2         127           1
 AtmWgt=  15.9949146   2.0141018 126.9004000   1.0078250
 NucSpn=           0           2           5           1
 AtZEff=  -0.0000000  -0.0000000  -0.0000000  -0.0000000
 NQMom=    0.0000000   0.2860000 -71.0000000   0.0000000
 NMagM=    0.0000000   0.8574380   2.8132800   2.7928460
 AtZNuc=   8.0000000   1.0000000  53.0000000   1.0000000
 Leave Link  101 at Tue Oct 26 13:22:18 2021, MaxMem= 16106127360 cpu:               2.5 elap:               0.1
 (Enter /sw/contrib/gaussian/g16/B01/g16/l202.exe)
                          Input orientation:                          
 ---------------------------------------------------------------------
 Center     Atomic      Atomic             Coordinates (Angstroms)
 Number     Number       Type             X           Y           Z
 ---------------------------------------------------------------------
      1          8           0        0.000000    0.000000    0.000000
      2          1           0        0.960908    0.000000    0.000000
      3         53           0       -0.720970   -3.433626    0.000000
      4          1           0       -0.277415   -1.321189    0.000000
 ---------------------------------------------------------------------
                    Distance matrix (angstroms):
                    1          2          3          4
     1  O    0.000000
     2  H    0.960908   0.000000
     3  I    3.508501   3.823414   0.000000
     4  H    1.350000   1.810796   2.158501   0.000000
 Symmetry turned off by external request.
 Stoichiometry    H2IO(1-)
 Framework group  CS[SG(H2IO)]
 Deg. of freedom     5
 Full point group                 CS      NOp   2
 Rotational constants (GHZ):         323.0006662           2.5293432           2.5096904
 Leave Link  202 at Tue Oct 26 13:22:18 2021, MaxMem= 16106127360 cpu:               0.9 elap:               0.1
 (Enter /sw/contrib/gaussian/g16/B01/g16/l301.exe)
 General basis read from cards:  (5D, 7F)
 Centers:       1      2      4
 aug-cc-pVTZ
 ****
 Centers:       3
 S 11 1.00
     Exponent=  5.5465000000D+03 Coefficients=  1.5600000000D-04
     Exponent=  8.3821400000D+02 Coefficients=  9.8600000000D-04
     Exponent=  1.8218700000D+02 Coefficients=  2.7920000000D-03
     Exponent=  3.1212300000D+01 Coefficients= -4.3251000000D-02
     Exponent=  1.9531400000D+01 Coefficients=  2.3413400000D-01
     Exponent=  8.2409900000D+00 Coefficients= -7.5094300000D-01
     Exponent=  2.1945500000D+00 Coefficients=  8.8296800000D-01
     Exponent=  1.1091100000D+00 Coefficients=  4.6206100000D-01
     Exponent=  3.7464100000D-01 Coefficients=  2.2286000000D-02
     Exponent=  1.7708000000D-01 Coefficients= -4.3530000000D-03
     Exponent=  8.1061000000D-02 Coefficients=  1.1020000000D-03
 S 11 1.00
     Exponent=  5.5465000000D+03 Coefficients= -7.3000000000D-05
     Exponent=  8.3821400000D+02 Coefficients= -5.0800000000D-04
     Exponent=  1.8218700000D+02 Coefficients= -1.1580000000D-03
     Exponent=  3.1212300000D+01 Coefficients=  1.2193000000D-02
     Exponent=  1.9531400000D+01 Coefficients= -8.7854000000D-02
     Exponent=  8.2409900000D+00 Coefficients=  3.3820000000D-01
     Exponent=  2.1945500000D+00 Coefficients= -5.7655000000D-01
     Exponent=  1.1091100000D+00 Coefficients= -4.0929800000D-01
     Exponent=  3.7464100000D-01 Coefficients=  5.6745900000D-01
     Exponent=  1.7708000000D-01 Coefficients=  6.1248900000D-01
     Exponent=  8.1061000000D-02 Coefficients=  1.4323100000D-01
 S 1 1.00
     Exponent=  3.7464100000D-01 Coefficients=  1.0000000000D+00
 S 1 1.00
     Exponent=  1.7708000000D-01 Coefficients=  1.0000000000D+00
 S 1 1.00
     Exponent=  1.0010000000D-01 Coefficients=  1.0000000000D+00
 S 1 1.00
     Exponent=  4.1200000000D-02 Coefficients=  1.0000000000D+00
 P 9 1.00
     Exponent=  1.8898800000D+02 Coefficients=  5.8500000000D-04
     Exponent=  2.1286800000D+01 Coefficients=  3.6923000000D-02
     Exponent=  1.0039600000D+01 Coefficients= -2.3532400000D-01
     Exponent=  3.4518000000D+00 Coefficients=  3.4148300000D-01
     Exponent=  1.9745600000D+00 Coefficients=  5.3478800000D-01
     Exponent=  1.0242000000D+00 Coefficients=  2.6514100000D-01
     Exponent=  4.4943700000D-01 Coefficients=  2.5787000000D-02
     Exponent=  1.8664800000D-01 Coefficients=  5.2200000000D-04
     Exponent=  7.3481000000D-02 Coefficients=  6.0600000000D-04
 P 9 1.00
     Exponent=  1.8898800000D+02 Coefficients= -2.5600000000D-04
     Exponent=  2.1286800000D+01 Coefficients= -1.1682000000D-02
     Exponent=  1.0039600000D+01 Coefficients=  8.3192000000D-02
     Exponent=  3.4518000000D+00 Coefficients= -1.5697000000D-01
     Exponent=  1.9745600000D+00 Coefficients= -2.2451800000D-01
     Exponent=  1.0242000000D+00 Coefficients= -1.1445100000D-01
     Exponent=  4.4943700000D-01 Coefficients=  3.7535600000D-01
     Exponent=  1.8664800000D-01 Coefficients=  5.7513600000D-01
     Exponent=  7.3481000000D-02 Coefficients=  2.4591700000D-01
 P 1 1.00
     Exponent=  5.9810000000D-01 Coefficients=  1.0000000000D+00
 P 1 1.00
     Exponent=  9.6180000000D-02 Coefficients=  1.0000000000D+00
 P 1 1.00
     Exponent=  3.5900000000D-02 Coefficients=  1.0000000000D+00
 D 9 1.00
     Exponent=  1.3266200000D+02 Coefficients=  5.7200000000D-04
     Exponent=  3.7605400000D+01 Coefficients=  4.4020000000D-03
     Exponent=  1.0389100000D+01 Coefficients= -4.0922000000D-02
     Exponent=  6.4901700000D+00 Coefficients=  9.9661000000D-02
     Exponent=  3.4545100000D+00 Coefficients=  3.2266300000D-01
     Exponent=  1.8441300000D+00 Coefficients=  4.0034300000D-01
     Exponent=  9.6247800000D-01 Coefficients=  2.6830600000D-01
     Exponent=  4.7285300000D-01 Coefficients=  8.4847000000D-02
     Exponent=  1.9320000000D-01 Coefficients=  7.6320000000D-03
 D 1 1.00
     Exponent=  4.7285300000D-01 Coefficients=  1.0000000000D+00
 D 1 1.00
     Exponent=  1.9320000000D-01 Coefficients=  1.0000000000D+00
 D 1 1.00
     Exponent=  7.8200000000D-02 Coefficients=  1.0000000000D+00
 F 1 1.00
     Exponent=  4.0640000000D-01 Coefficients=  1.0000000000D+00
 F 1 1.00
     Exponent=  1.8480000000D-01 Coefficients=  1.0000000000D+00
 ****
 ======================================================================================================
                                       Pseudopotential Parameters
 ======================================================================================================
  Center     Atomic      Valence      Angular      Power
  Number     Number     Electrons     Momentum     of R      Exponent        Coefficient   SO-Coeffient
 ======================================================================================================
    1          8
                                   No pseudopotential on this center.
    2          1
                                   No pseudopotential on this center.
    3         53           25
                                      G and up 
                                                     2        1.0000000        0.00000000    0.00000000
                                      S - G
                                                     2       40.0333760       49.98964900    0.00000000
                                                     2       17.3005760      281.00655600    0.00000000
                                                     2        8.8517200       61.41673900    0.00000000
                                      P - G
                                                     2       15.7201410       67.41623900    0.00000000
                                                     2       15.2082220      134.80769600    0.00000000
                                                     2        8.2941860       14.56654800    0.00000000
                                                     2        7.7539490       28.96842200    0.00000000
                                      D - G
                                                     2       13.8177510       35.53875600    0.00000000
                                                     2       13.5878050       53.33975900    0.00000000
                                                     2        6.9476300        9.71646600    0.00000000
                                                     2        6.9600990       14.97750000    0.00000000
                                      F - G
                                                     2       18.5229500      -20.17661800    0.00000000
                                                     2       18.2510350      -26.08807700    0.00000000
                                                     2        7.5579010       -0.22043400    0.00000000
                                                     2        7.5974040       -0.22164600    0.00000000
    4          1
                                   No pseudopotential on this center.
 ======================================================================================================
 Ernie: Thresh=  0.10000D-02 Tol=  0.10000D-05 Strict=F.
 Ernie:  10 primitive shells out of 113 were deleted.
   147 basis functions,   296 primitive gaussians,   170 cartesian basis functions
    18 alpha electrons       18 beta electrons
       nuclear repulsion energy        47.5882682945 Hartrees.
 IExCor=    0 DFT=F Ex=HF Corr=None ExCW=0 ScaHFX=  1.000000
 ScaDFX=  1.000000  1.000000  1.000000  1.000000 ScalE2=  1.000000  1.000000
 IRadAn=      5 IRanWt=     -1 IRanGd=            0 ICorTp=0 IEmpDi=  4
 NAtoms=    4 NActive=    4 NUniq=    4 SFac= 1.00D+00 NAtFMM=   60 NAOKFM=F Big=F
 Integral buffers will be    131072 words long.
 Raffenetti 1 integral format.
 Two-electron integral symmetry is turned off.
 Leave Link  301 at Tue Oct 26 13:22:18 2021, MaxMem= 16106127360 cpu:               2.5 elap:               0.1
 (Enter /sw/contrib/gaussian/g16/B01/g16/l302.exe)
 NPDir=0 NMtPBC=     1 NCelOv=     1 NCel=       1 NClECP=     1 NCelD=      1
         NCelK=      1 NCelE2=     1 NClLst=     1 CellRange=     0.0.
 One-electron integrals computed using PRISM.
   1 Symmetry operations used in ECPInt.
 ECPInt:  NShTT=    1225 NPrTT=    5557 LenC2=    1226 LenP2D=    4937.
 LDataN:  DoStor=T MaxTD1= 7 Len=  274
 NBasis=   147 RedAO= T EigKep=  2.78D-04  NBF=   147
 NBsUse=   147 1.00D-06 EigRej= -1.00D+00 NBFU=   147
 Leave Link  302 at Tue Oct 26 13:22:19 2021, MaxMem= 16106127360 cpu:               6.5 elap:               0.3
 (Enter /sw/contrib/gaussian/g16/B01/g16/l303.exe)
 DipDrv:  MaxL=1.
 Leave Link  303 at Tue Oct 26 13:22:19 2021, MaxMem= 16106127360 cpu:               1.5 elap:               0.1
 (Enter /sw/contrib/gaussian/g16/B01/g16/l401.exe)
 ExpMin= 2.53D-02 ExpMax= 1.53D+04 ExpMxC= 5.22D+02 IAcc=3 IRadAn=         5 AccDes= 0.00D+00
 Harris functional with IExCor=  205 and IRadAn=       5 diagonalized for initial guess.
 HarFok:  IExCor=  205 AccDes= 0.00D+00 IRadAn=         5 IDoV= 1 UseB2=F ITyADJ=14
 ICtDFT=  3500011 ScaDFX=  1.000000  1.000000  1.000000  1.000000
 Defaulting to unpruned grid for atomic number  53.
 FoFCou: FMM=F IPFlag=           0 FMFlag=      100000 FMFlg1=           0
         NFxFlg=           0 DoJE=T BraDBF=F KetDBF=T FulRan=T
         wScrn=  0.000000 ICntrl=       500 IOpCl=  0 I1Cent=   200000004 NGrid=           0
         NMat0=    1 NMatS0=      1 NMatT0=    0 NMatD0=    1 NMtDS0=    0 NMtDT0=    0
 Symmetry not used in FoFCou.
 Harris En= -372.650224127805    
 JPrj=0 DoOrth=F DoCkMO=F.
 Leave Link  401 at Tue Oct 26 13:22:19 2021, MaxMem= 16106127360 cpu:               6.2 elap:               0.3
 (Enter /sw/contrib/gaussian/g16/B01/g16/l502.exe)
 Keep R1 ints in memory in canonical form, NReq=117069463.
 FoFCou: FMM=F IPFlag=           0 FMFlag=           0 FMFlg1=           0
         NFxFlg=           0 DoJE=F BraDBF=F KetDBF=F FulRan=T
         wScrn=  0.000000 ICntrl=       600 IOpCl=  0 I1Cent=           0 NGrid=           0
         NMat0=    1 NMatS0=  10878 NMatT0=    0 NMatD0=    1 NMtDS0=    0 NMtDT0=    0
 Symmetry not used in FoFCou.
 Two-electron integral symmetry not used.
 Closed shell SCF:
 Using DIIS extrapolation, IDIIS=  1040.
 NGot= 16106127360 LenX= 16046892803 LenY= 16046863462
 Requested convergence on RMS density matrix=1.00D-08 within 128 cycles.
 Requested convergence on MAX density matrix=1.00D-06.
 Requested convergence on             energy=1.00D-06.
 No special actions if energy rises.

 Cycle   1  Pass 1  IDiag  1:
 E= -370.560876043161    
 DIIS: error= 3.57D-02 at cycle   1 NSaved=   1.
 NSaved= 1 IEnMin= 1 EnMin= -370.560876043161     IErMin= 1 ErrMin= 3.57D-02
 ErrMax= 3.57D-02  0.00D+00 EMaxC= 1.00D-01 BMatC= 4.11D-01 BMatP= 4.11D-01
 IDIUse=3 WtCom= 6.43D-01 WtEn= 3.57D-01
 Coeff-Com:  0.100D+01
 Coeff-En:   0.100D+01
 Coeff:      0.100D+01
 Gap=     0.526 Goal=   None    Shift=    0.000
 GapD=    0.526 DampG=2.000 DampE=0.500 DampFc=1.0000 IDamp=-1.
 RMSDP=4.43D-03 MaxDP=1.32D-01              OVMax= 2.06D-01

 Cycle   2  Pass 1  IDiag  1:
 E= -370.659412488098     Delta-E=       -0.098536444938 Rises=F Damp=F
 DIIS: error= 2.95D-02 at cycle   2 NSaved=   2.
 NSaved= 2 IEnMin= 2 EnMin= -370.659412488098     IErMin= 2 ErrMin= 2.95D-02
 ErrMax= 2.95D-02  0.00D+00 EMaxC= 1.00D-01 BMatC= 1.35D-01 BMatP= 4.11D-01
 IDIUse=3 WtCom= 7.05D-01 WtEn= 2.95D-01
 Coeff-Com:  0.340D+00 0.660D+00
 Coeff-En:   0.244D+00 0.756D+00
 Coeff:      0.312D+00 0.688D+00
 Gap=     0.468 Goal=   None    Shift=    0.000
 RMSDP=2.01D-03 MaxDP=8.24D-02 DE=-9.85D-02 OVMax= 1.06D-01

 Cycle   3  Pass 1  IDiag  1:
 E= -370.745468142110     Delta-E=       -0.086055654012 Rises=F Damp=F
 DIIS: error= 7.96D-03 at cycle   3 NSaved=   3.
 NSaved= 3 IEnMin= 3 EnMin= -370.745468142110     IErMin= 3 ErrMin= 7.96D-03
 ErrMax= 7.96D-03  0.00D+00 EMaxC= 1.00D-01 BMatC= 1.08D-02 BMatP= 1.35D-01
 IDIUse=3 WtCom= 9.20D-01 WtEn= 7.96D-02
 Coeff-Com:  0.356D-02 0.214D+00 0.782D+00
 Coeff-En:   0.000D+00 0.000D+00 0.100D+01
 Coeff:      0.328D-02 0.197D+00 0.800D+00
 Gap=     0.305 Goal=   None    Shift=    0.000
 RMSDP=5.27D-04 MaxDP=2.52D-02 DE=-8.61D-02 OVMax= 2.82D-02

 Cycle   4  Pass 1  IDiag  1:
 E= -370.752960347578     Delta-E=       -0.007492205468 Rises=F Damp=F
 DIIS: error= 1.11D-03 at cycle   4 NSaved=   4.
 NSaved= 4 IEnMin= 4 EnMin= -370.752960347578     IErMin= 4 ErrMin= 1.11D-03
 ErrMax= 1.11D-03  0.00D+00 EMaxC= 1.00D-01 BMatC= 1.88D-04 BMatP= 1.08D-02
 IDIUse=3 WtCom= 9.89D-01 WtEn= 1.11D-02
 Coeff-Com: -0.123D-01-0.400D-02 0.115D+00 0.901D+00
 Coeff-En:   0.000D+00 0.000D+00 0.000D+00 0.100D+01
 Coeff:     -0.122D-01-0.396D-02 0.114D+00 0.902D+00
 Gap=     0.308 Goal=   None    Shift=    0.000
 RMSDP=1.31D-04 MaxDP=9.58D-03 DE=-7.49D-03 OVMax= 6.31D-03

 Cycle   5  Pass 1  IDiag  1:
 E= -370.753174598362     Delta-E=       -0.000214250783 Rises=F Damp=F
 DIIS: error= 3.03D-04 at cycle   5 NSaved=   5.
 NSaved= 5 IEnMin= 5 EnMin= -370.753174598362     IErMin= 5 ErrMin= 3.03D-04
 ErrMax= 3.03D-04  0.00D+00 EMaxC= 1.00D-01 BMatC= 1.29D-05 BMatP= 1.88D-04
 IDIUse=3 WtCom= 9.97D-01 WtEn= 3.03D-03
 Coeff-Com:  0.267D-02-0.159D-01-0.714D-01-0.906D-01 0.118D+01
 Coeff-En:   0.000D+00 0.000D+00 0.000D+00 0.000D+00 0.100D+01
 Coeff:      0.266D-02-0.158D-01-0.712D-01-0.904D-01 0.117D+01
 Gap=     0.305 Goal=   None    Shift=    0.000
 RMSDP=7.57D-05 MaxDP=2.89D-03 DE=-2.14D-04 OVMax= 3.79D-03

 Cycle   6  Pass 1  IDiag  1:
 E= -370.753214886878     Delta-E=       -0.000040288516 Rises=F Damp=F
 DIIS: error= 1.29D-04 at cycle   6 NSaved=   6.
 NSaved= 6 IEnMin= 6 EnMin= -370.753214886878     IErMin= 6 ErrMin= 1.29D-04
 ErrMax= 1.29D-04  0.00D+00 EMaxC= 1.00D-01 BMatC= 1.49D-06 BMatP= 1.29D-05
 IDIUse=3 WtCom= 9.99D-01 WtEn= 1.29D-03
 Coeff-Com:  0.111D-04 0.564D-02 0.155D-01-0.811D-01-0.327D+00 0.139D+01
 Coeff-En:   0.000D+00 0.000D+00 0.000D+00 0.000D+00 0.000D+00 0.100D+01
 Coeff:      0.111D-04 0.564D-02 0.155D-01-0.810D-01-0.326D+00 0.139D+01
 Gap=     0.305 Goal=   None    Shift=    0.000
 RMSDP=3.05D-05 MaxDP=1.82D-03 DE=-4.03D-05 OVMax= 2.00D-03

 Cycle   7  Pass 1  IDiag  1:
 E= -370.753221203170     Delta-E=       -0.000006316292 Rises=F Damp=F
 DIIS: error= 2.51D-05 at cycle   7 NSaved=   7.
 NSaved= 7 IEnMin= 7 EnMin= -370.753221203170     IErMin= 7 ErrMin= 2.51D-05
 ErrMax= 2.51D-05  0.00D+00 EMaxC= 1.00D-01 BMatC= 9.19D-08 BMatP= 1.49D-06
 IDIUse=1 WtCom= 1.00D+00 WtEn= 0.00D+00
 Coeff-Com: -0.203D-03-0.306D-03 0.129D-02 0.331D-01-0.166D-01-0.360D+00
 Coeff-Com:  0.134D+01
 Coeff:     -0.203D-03-0.306D-03 0.129D-02 0.331D-01-0.166D-01-0.360D+00
 Coeff:      0.134D+01
 Gap=     0.305 Goal=   None    Shift=    0.000
 RMSDP=6.35D-06 MaxDP=2.30D-04 DE=-6.32D-06 OVMax= 4.30D-04

 Cycle   8  Pass 1  IDiag  1:
 E= -370.753221597394     Delta-E=       -0.000000394223 Rises=F Damp=F
 DIIS: error= 8.01D-06 at cycle   8 NSaved=   8.
 NSaved= 8 IEnMin= 8 EnMin= -370.753221597394     IErMin= 8 ErrMin= 8.01D-06
 ErrMax= 8.01D-06  0.00D+00 EMaxC= 1.00D-01 BMatC= 7.02D-09 BMatP= 9.19D-08
 IDIUse=1 WtCom= 1.00D+00 WtEn= 0.00D+00
 Coeff-Com:  0.384D-05-0.431D-03-0.840D-03 0.693D-02 0.208D-01-0.107D+00
 Coeff-Com:  0.682D-01 0.101D+01
 Coeff:      0.384D-05-0.431D-03-0.840D-03 0.693D-02 0.208D-01-0.107D+00
 Coeff:      0.682D-01 0.101D+01
 Gap=     0.305 Goal=   None    Shift=    0.000
 RMSDP=1.19D-06 MaxDP=4.64D-05 DE=-3.94D-07 OVMax= 8.65D-05

 Cycle   9  Pass 1  IDiag  1:
 E= -370.753221615271     Delta-E=       -0.000000017878 Rises=F Damp=F
 DIIS: error= 2.62D-06 at cycle   9 NSaved=   9.
 NSaved= 9 IEnMin= 9 EnMin= -370.753221615271     IErMin= 9 ErrMin= 2.62D-06
 ErrMax= 2.62D-06  0.00D+00 EMaxC= 1.00D-01 BMatC= 8.29D-10 BMatP= 7.02D-09
 IDIUse=1 WtCom= 1.00D+00 WtEn= 0.00D+00
 Coeff-Com:  0.177D-04 0.624D-04 0.249D-04-0.485D-02 0.202D-03 0.522D-01
 Coeff-Com: -0.175D+00-0.447D-01 0.117D+01
 Coeff:      0.177D-04 0.624D-04 0.249D-04-0.485D-02 0.202D-03 0.522D-01
 Coeff:     -0.175D+00-0.447D-01 0.117D+01
 Gap=     0.305 Goal=   None    Shift=    0.000
 RMSDP=5.89D-07 MaxDP=2.27D-05 DE=-1.79D-08 OVMax= 2.52D-05

 Cycle  10  Pass 1  IDiag  1:
 E= -370.753221617525     Delta-E=       -0.000000002253 Rises=F Damp=F
 DIIS: error= 5.07D-07 at cycle  10 NSaved=  10.
 NSaved=10 IEnMin=10 EnMin= -370.753221617525     IErMin=10 ErrMin= 5.07D-07
 ErrMax= 5.07D-07  0.00D+00 EMaxC= 1.00D-01 BMatC= 3.47D-11 BMatP= 8.29D-10
 IDIUse=1 WtCom= 1.00D+00 WtEn= 0.00D+00
 Coeff-Com: -0.278D-05 0.141D-04 0.139D-04 0.362D-03-0.963D-03-0.168D-02
 Coeff-Com:  0.223D-01-0.522D-01-0.183D+00 0.121D+01
 Coeff:     -0.278D-05 0.141D-04 0.139D-04 0.362D-03-0.963D-03-0.168D-02
 Coeff:      0.223D-01-0.522D-01-0.183D+00 0.121D+01
 Gap=     0.305 Goal=   None    Shift=    0.000
 RMSDP=1.32D-07 MaxDP=4.56D-06 DE=-2.25D-09 OVMax= 6.15D-06

 Cycle  11  Pass 1  IDiag  1:
 E= -370.753221617627     Delta-E=       -0.000000000103 Rises=F Damp=F
 DIIS: error= 1.40D-07 at cycle  11 NSaved=  11.
 NSaved=11 IEnMin=11 EnMin= -370.753221617627     IErMin=11 ErrMin= 1.40D-07
 ErrMax= 1.40D-07  0.00D+00 EMaxC= 1.00D-01 BMatC= 1.46D-12 BMatP= 3.47D-11
 IDIUse=1 WtCom= 1.00D+00 WtEn= 0.00D+00
 Coeff-Com: -0.463D-06-0.313D-05 0.596D-05 0.142D-03 0.200D-05-0.147D-02
 Coeff-Com:  0.314D-02 0.955D-02-0.138D-01-0.240D+00 0.124D+01
 Coeff:     -0.463D-06-0.313D-05 0.596D-05 0.142D-03 0.200D-05-0.147D-02
 Coeff:      0.314D-02 0.955D-02-0.138D-01-0.240D+00 0.124D+01
 Gap=     0.305 Goal=   None    Shift=    0.000
 RMSDP=2.43D-08 MaxDP=7.29D-07 DE=-1.03D-10 OVMax= 1.16D-06

 Cycle  12  Pass 1  IDiag  1:
 E= -370.753221617632     Delta-E=       -0.000000000005 Rises=F Damp=F
 DIIS: error= 3.66D-08 at cycle  12 NSaved=  12.
 NSaved=12 IEnMin=12 EnMin= -370.753221617632     IErMin=12 ErrMin= 3.66D-08
 ErrMax= 3.66D-08  0.00D+00 EMaxC= 1.00D-01 BMatC= 9.47D-14 BMatP= 1.46D-12
 IDIUse=1 WtCom= 1.00D+00 WtEn= 0.00D+00
 Coeff-Com:  0.266D-06-0.256D-06 0.468D-07-0.457D-04 0.437D-04 0.311D-03
 Coeff-Com: -0.179D-02 0.222D-02 0.135D-01-0.594D-01-0.891D-01 0.113D+01
 Coeff:      0.266D-06-0.256D-06 0.468D-07-0.457D-04 0.437D-04 0.311D-03
 Coeff:     -0.179D-02 0.222D-02 0.135D-01-0.594D-01-0.891D-01 0.113D+01
 Gap=     0.305 Goal=   None    Shift=    0.000
 RMSDP=6.18D-09 MaxDP=2.17D-07 DE=-4.83D-12 OVMax= 2.73D-07

 SCF Done:  E(RHF) =  -370.753221618     A.U. after   12 cycles
            NFock= 12  Conv=0.62D-08     -V/T= 2.9876
 KE= 1.865363583817D+02 PE=-9.085255309118D+02 EE= 3.036476826179D+02
 Leave Link  502 at Tue Oct 26 13:22:21 2021, MaxMem= 16106127360 cpu:              33.2 elap:               2.2
 (Enter /sw/contrib/gaussian/g16/B01/g16/l801.exe)
 ExpMin= 2.53D-02 ExpMax= 1.53D+04 ExpMxC= 5.22D+02 IAcc=3 IRadAn=         5 AccDes= 0.00D+00
 HarFok:  IExCor=  205 AccDes= 0.00D+00 IRadAn=         5 IDoV=-2 UseB2=F ITyADJ=14
 ICtDFT= 12500011 ScaDFX=  1.000000  1.000000  1.000000  1.000000
 Defaulting to unpruned grid for atomic number  53.
 Largest valence mixing into a core orbital is  1.31D-04
 Largest core mixing into a valence orbital is  2.43D-05
 Range of M.O.s used for correlation:     6   147
 NBasis=   147 NAE=    18 NBE=    18 NFC=     5 NFV=     0
 NROrb=    142 NOA=    13 NOB=    13 NVA=   129 NVB=   129

 **** Warning!!: The largest alpha MO coefficient is  0.16983509D+02

 Leave Link  801 at Tue Oct 26 13:22:21 2021, MaxMem= 16106127360 cpu:               2.0 elap:               0.1
 (Enter /sw/contrib/gaussian/g16/B01/g16/l906.exe)
 Frozen-core derivative calculation, NFC=   5 NFV=   0.
 FulOut=F Deriv=T AODrv=F NAtomX=     4
   MMem=         225  MDisk=          13 MDiskD=          13
  W3Min=      449820 MinDsk=      818995 NBas6D=         170
 NBas2D=       14925    NTT=       14535    LW2=    26219120
    MDV= 16105851505 MDiskM=      473642 NBas2p=       14925
 Fully in-core method, ICMem=   303093605.
 IMap=   1   2   3   4   5   6   7   8   9  10  11  12  13  14  15  16  17  18
 JobTyp=1 Pass  1 fully in-core, NPsUse= 28.
 Compute canonical integrals.
 FoFCou: FMM=F IPFlag=           0 FMFlag=           0 FMFlg1=           0
         NFxFlg=           0 DoJE=F BraDBF=F KetDBF=F FulRan=T
         wScrn=  0.000000 ICntrl=       600 IOpCl=  1 I1Cent=           0 NGrid=           0
         NMat0=    1 NMatS0=  14925 NMatT0=    0 NMatD0=    1 NMtDS0=    0 NMtDT0=    0
 Symmetry not used in FoFCou.
 Spin components of T(2) and E(2):
     alpha-alpha T2 =       0.2384119140D-01 E2=     -0.7064207644D-01
     alpha-beta  T2 =       0.1247213288D+00 E2=     -0.3762089053D+00
     beta-beta   T2 =       0.2384119140D-01 E2=     -0.7064207644D-01
 The integrals were generated   1 times.
 ANorm=    0.1082775929D+01
 E2 =    -0.5174930581D+00 EUMP2 =    -0.37127071467576D+03
 Leave Link  906 at Tue Oct 26 13:22:24 2021, MaxMem= 16106127360 cpu:              82.1 elap:               3.0
 (Enter /sw/contrib/gaussian/g16/B01/g16/l1002.exe)
 Minotr:  Closed shell wavefunction.
          Computing MP2/KS-MP2 derivatives.
          Using Z-Vector for PSCF gradient.
          Skipping F1 and S1 gradient terms here.
          Frozen-core window.
          Direct CPHF calculation.
          Differentiating once with respect to electric field.
                with respect to dipole field.
          Electric field/nuclear overlap derivatives assumed to be zero.
          Requested convergence is 1.0D-10 RMS, and 1.0D-09 maximum.
          NewPWx=F KeepS1=T KeepF1=T KeepIn=T MapXYZ=F SortEE=F KeepMc=T.
 Keep R1 ints in memory in canonical form, NReq=117072107.
 FoFCou: FMM=F IPFlag=           0 FMFlag=           0 FMFlg1=           0
         NFxFlg=           0 DoJE=F BraDBF=F KetDBF=F FulRan=T
         wScrn=  0.000000 ICntrl=       600 IOpCl=  0 I1Cent=           0 NGrid=           0
         NMat0=    1 NMatS0=  10878 NMatT0=    0 NMatD0=    1 NMtDS0=    0 NMtDT0=    0
 Symmetry not used in FoFCou.
 Two-electron integral symmetry not used.
          MDV=   16106127360 using IRadAn=       5.
          Solving linear equations separately, MaxMat=       0.
          There are     1 degrees of freedom in the 1st order CPHF.  IDoFFX=0 NUNeed=     1.
 LinEq1:  Iter=  0 NonCon=     1 RMS=3.58D-03 Max=7.74D-02 NDo=     1
 AX will form     1 AO Fock derivatives at one time.
 LinEq1:  Iter=  1 NonCon=     1 RMS=6.37D-04 Max=8.15D-03 NDo=     1
 LinEq1:  Iter=  2 NonCon=     1 RMS=2.33D-04 Max=2.59D-03 NDo=     1
 LinEq1:  Iter=  3 NonCon=     1 RMS=7.68D-05 Max=9.36D-04 NDo=     1
 LinEq1:  Iter=  4 NonCon=     1 RMS=4.34D-05 Max=6.10D-04 NDo=     1
 LinEq1:  Iter=  5 NonCon=     1 RMS=9.13D-06 Max=1.15D-04 NDo=     1
 LinEq1:  Iter=  6 NonCon=     1 RMS=1.83D-06 Max=1.80D-05 NDo=     1
 LinEq1:  Iter=  7 NonCon=     1 RMS=3.73D-07 Max=4.75D-06 NDo=     1
 LinEq1:  Iter=  8 NonCon=     1 RMS=9.45D-08 Max=1.11D-06 NDo=     1
 LinEq1:  Iter=  9 NonCon=     1 RMS=2.37D-08 Max=3.37D-07 NDo=     1
 LinEq1:  Iter= 10 NonCon=     1 RMS=5.29D-09 Max=6.29D-08 NDo=     1
 LinEq1:  Iter= 11 NonCon=     1 RMS=9.22D-10 Max=1.02D-08 NDo=     1
 LinEq1:  Iter= 12 NonCon=     1 RMS=2.47D-10 Max=3.27D-09 NDo=     1
 LinEq1:  Iter= 13 NonCon=     0 RMS=7.20D-11 Max=7.81D-10 NDo=     1
 Linear equations converged to 1.000D-10 1.000D-09 after    13 iterations.
 End of Minotr F.D. properties file   721 does not exist.
 End of Minotr F.D. properties file   722 does not exist.
 End of Minotr F.D. properties file   788 does not exist.
 Leave Link 1002 at Tue Oct 26 13:22:27 2021, MaxMem= 16106127360 cpu:              33.8 elap:               2.4
 (Enter /sw/contrib/gaussian/g16/B01/g16/l601.exe)
 Copying SCF densities to generalized density rwf, IOpCl= 0 IROHF=0.

 **********************************************************************

            Population analysis using the MP2 Density.

 **********************************************************************

 Alpha  occ. eigenvalues --  -20.36415  -7.49147  -5.31792  -5.31632  -5.31627
 Alpha  occ. eigenvalues --   -2.04568  -2.04482  -2.04476  -2.04301  -2.04301
 Alpha  occ. eigenvalues --   -1.08884  -0.65574  -0.43955  -0.35095  -0.28879
 Alpha  occ. eigenvalues --   -0.16863  -0.16373  -0.16326
 Alpha virt. eigenvalues --    0.14170   0.16941   0.22909   0.24160   0.24481
 Alpha virt. eigenvalues --    0.27899   0.29917   0.30446   0.31448   0.34262
 Alpha virt. eigenvalues --    0.36310   0.36472   0.36700   0.39166   0.39616
 Alpha virt. eigenvalues --    0.43430   0.44745   0.47474   0.49401   0.55277
 Alpha virt. eigenvalues --    0.57634   0.61077   0.66681   0.71471   0.75938
 Alpha virt. eigenvalues --    0.76012   0.76538   0.78072   0.78152   0.78965
 Alpha virt. eigenvalues --    0.81475   0.82843   0.84791   0.86157   0.86507
 Alpha virt. eigenvalues --    0.86657   0.87173   0.90835   0.91482   0.93435
 Alpha virt. eigenvalues --    0.95729   0.97926   1.04175   1.06915   1.08665
 Alpha virt. eigenvalues --    1.12130   1.13111   1.13272   1.17578   1.19235
 Alpha virt. eigenvalues --    1.21324   1.22943   1.27883   1.36926   1.37478
 Alpha virt. eigenvalues --    1.47185   1.49363   1.51303   1.59813   1.64742
 Alpha virt. eigenvalues --    1.72548   1.72996   1.73196   1.73624   1.74571
 Alpha virt. eigenvalues --    1.75155   1.78730   1.82459   1.86185   1.90744
 Alpha virt. eigenvalues --    1.99586   2.03725   2.03922   2.04273   2.07601
 Alpha virt. eigenvalues --    2.11343   2.15548   2.32966   2.43240   2.48451
 Alpha virt. eigenvalues --    2.56088   2.57588   2.61203   2.61824   2.72552
 Alpha virt. eigenvalues --    2.77023   2.88329   2.90988   2.98136   3.00840
 Alpha virt. eigenvalues --    3.24776   3.36418   3.36604   3.54545   3.88197
 Alpha virt. eigenvalues --    4.13683   4.16370   4.28750   4.28777   4.32887
 Alpha virt. eigenvalues --    4.39648   4.46216   4.53930   4.58375   4.60384
 Alpha virt. eigenvalues --    4.67760   4.78000   4.82639   5.02426   5.15821
 Alpha virt. eigenvalues --    5.40899   5.54946   5.56563   6.20099   6.54059
 Alpha virt. eigenvalues --    6.90426   6.98929   7.05060   7.20122   7.42659
 Alpha virt. eigenvalues --    7.46161   7.53327   7.54025   7.57994   7.76183
 Alpha virt. eigenvalues --    7.95863   8.45684  14.50262  59.19637
          Condensed to atoms (all electrons):
               1          2          3          4
     1  O    8.359297   0.183702  -0.100579   0.182886
     2  H    0.183702   0.619176  -0.002578   0.039893
     3  I   -0.100579  -0.002578  25.783361   0.002866
     4  H    0.182886   0.039893   0.002866   0.625784
 Mulliken charges:
               1
     1  O   -0.625306
     2  H    0.159806
     3  I   -0.683071
     4  H    0.148571
 Sum of Mulliken charges =  -1.00000
 Mulliken charges with hydrogens summed into heavy atoms:
               1
     1  O   -0.316929
     3  I   -0.683071
 Electronic spatial extent (au):  <R**2>=           1230.5854
 Charge=             -1.0000 electrons
 Dipole moment (field-independent basis, Debye):
    X=              3.4635    Y=             10.9641    Z=              0.0000  Tot=             11.4982
 Quadrupole moment (field-independent basis, Debye-Ang):
   XX=            -40.6210   YY=            -81.7034   ZZ=            -41.5303
   XY=             -8.0327   XZ=             -0.0000   YZ=             -0.0000
 Traceless Quadrupole moment (field-independent basis, Debye-Ang):
   XX=             13.9973   YY=            -27.0852   ZZ=             13.0880
   XY=             -8.0327   XZ=             -0.0000   YZ=             -0.0000
 Octapole moment (field-independent basis, Debye-Ang**2):
  XXX=             71.4799  YYY=            478.2436  ZZZ=             -0.0000  XYY=             51.2337
  XXY=            118.6775  XXZ=             -0.0000  XZZ=             22.8182  YZZ=            112.8131
  YYZ=              0.0000  XYZ=              0.0000
 Hexadecapole moment (field-independent basis, Debye-Ang**3):
 XXXX=           -172.7073 YYYY=          -2839.4765 ZZZZ=            -72.2276 XXXY=           -245.5514
 XXXZ=             -0.0000 YYYX=           -334.0749 YYYZ=             -0.0000 ZZZX=             -0.0000
 ZZZY=             -0.0000 XXYY=           -445.5444 XXZZ=            -41.0351 YYZZ=           -409.6792
 XXYZ=              0.0000 YYXZ=              0.0000 ZZXY=            -80.5712
 N-N= 4.758826829451D+01 E-N=-9.079605086772D+02  KE= 1.867694870198D+02
 No NMR shielding tensors so no spin-rotation constants.
 Leave Link  601 at Tue Oct 26 13:22:27 2021, MaxMem= 16106127360 cpu:               4.2 elap:               0.2
 (Enter /sw/contrib/gaussian/g16/B01/g16/l607.exe)
 ******************************Gaussian NBO Version 3.1******************************
             N A T U R A L   A T O M I C   O R B I T A L   A N D
          N A T U R A L   B O N D   O R B I T A L   A N A L Y S I S
 ******************************Gaussian NBO Version 3.1******************************
       /RESON  / : Allow strongly delocalized NBO set

 Analyzing the MP2 density

 Job title: title                                                           

 Storage needed:     65577 in NPA,     86948 in NBO (********** available)
 GSVD:  LWork=         -15 too small for GESVD, short by       42345 words or       42345 for optimal perf.


 NATURAL POPULATIONS:  Natural atomic orbital occupancies 
                                                          
   NAO  Atom  No  lang   Type(AO)    Occupancy
 --------------------------------------------
     1    O    1  S      Cor( 1S)     1.99971
     2    O    1  S      Val( 2S)     1.79888
     3    O    1  S      Ryd( 3S)     0.00776
     4    O    1  S      Ryd( 4S)     0.00037
     5    O    1  S      Ryd( 5S)     0.00019
     6    O    1  px     Val( 2p)     1.51899
     7    O    1  px     Ryd( 3p)     0.01290
     8    O    1  px     Ryd( 4p)     0.00057
     9    O    1  px     Ryd( 5p)     0.00013
    10    O    1  py     Val( 2p)     1.67756
    11    O    1  py     Ryd( 3p)     0.01397
    12    O    1  py     Ryd( 4p)     0.00056
    13    O    1  py     Ryd( 5p)     0.00015
    14    O    1  pz     Val( 2p)     1.95149
    15    O    1  pz     Ryd( 3p)     0.02447
    16    O    1  pz     Ryd( 4p)     0.00057
    17    O    1  pz     Ryd( 5p)     0.00000
    18    O    1  dxy    Ryd( 3d)     0.00816
    19    O    1  dxy    Ryd( 4d)     0.00051
    20    O    1  dxy    Ryd( 5d)     0.00009
    21    O    1  dxz    Ryd( 3d)     0.00884
    22    O    1  dxz    Ryd( 4d)     0.00053
    23    O    1  dxz    Ryd( 5d)     0.00008
    24    O    1  dyz    Ryd( 3d)     0.00689
    25    O    1  dyz    Ryd( 4d)     0.00058
    26    O    1  dyz    Ryd( 5d)     0.00008
    27    O    1  dx2y2  Ryd( 3d)     0.01169
    28    O    1  dx2y2  Ryd( 4d)     0.00046
    29    O    1  dx2y2  Ryd( 5d)     0.00011
    30    O    1  dz2    Ryd( 3d)     0.00799
    31    O    1  dz2    Ryd( 4d)     0.00059
    32    O    1  dz2    Ryd( 5d)     0.00011
    33    O    1  f(0)   Ryd( 4f)     0.00062
    34    O    1  f(0)   Ryd( 5f)     0.00011
    35    O    1  f(C1)  Ryd( 4f)     0.00057
    36    O    1  f(C1)  Ryd( 5f)     0.00009
    37    O    1  f(S1)  Ryd( 4f)     0.00061
    38    O    1  f(S1)  Ryd( 5f)     0.00011
    39    O    1  f(C2)  Ryd( 4f)     0.00049
    40    O    1  f(C2)  Ryd( 5f)     0.00010
    41    O    1  f(S2)  Ryd( 4f)     0.00047
    42    O    1  f(S2)  Ryd( 5f)     0.00008
    43    O    1  f(C3)  Ryd( 4f)     0.00047
    44    O    1  f(C3)  Ryd( 5f)     0.00013
    45    O    1  f(S3)  Ryd( 4f)     0.00047
    46    O    1  f(S3)  Ryd( 5f)     0.00011

    47    H    2  S      Val( 1S)     0.55938
    48    H    2  S      Ryd( 2S)     0.00242
    49    H    2  S      Ryd( 3S)     0.00021
    50    H    2  S      Ryd( 4S)     0.00009
    51    H    2  px     Ryd( 2p)     0.00225
    52    H    2  px     Ryd( 3p)     0.00078
    53    H    2  px     Ryd( 4p)     0.00014
    54    H    2  py     Ryd( 2p)     0.00235
    55    H    2  py     Ryd( 3p)     0.00026
    56    H    2  py     Ryd( 4p)     0.00013
    57    H    2  pz     Ryd( 2p)     0.00469
    58    H    2  pz     Ryd( 3p)     0.00019
    59    H    2  pz     Ryd( 4p)     0.00005
    60    H    2  dxy    Ryd( 3d)     0.00007
    61    H    2  dxy    Ryd( 4d)     0.00005
    62    H    2  dxz    Ryd( 3d)     0.00009
    63    H    2  dxz    Ryd( 4d)     0.00007
    64    H    2  dyz    Ryd( 3d)     0.00012
    65    H    2  dyz    Ryd( 4d)     0.00005
    66    H    2  dx2y2  Ryd( 3d)     0.00011
    67    H    2  dx2y2  Ryd( 4d)     0.00006
    68    H    2  dz2    Ryd( 3d)     0.00013
    69    H    2  dz2    Ryd( 4d)     0.00007

    70    I    3  S      Cor( 4S)     1.99958
    71    I    3  S      Val( 5S)     1.95478
    72    I    3  S      Ryd( 6S)     0.00169
    73    I    3  S      Ryd( 7S)     0.00047
    74    I    3  S      Ryd( 8S)     0.00009
    75    I    3  S      Ryd( 9S)     0.00001
    76    I    3  px     Cor( 4p)     1.99995
    77    I    3  px     Val( 5p)     1.94256
    78    I    3  px     Ryd( 6p)     0.01023
    79    I    3  px     Ryd( 7p)     0.00071
    80    I    3  px     Ryd( 8p)     0.00008
    81    I    3  py     Cor( 4p)     1.99968
    82    I    3  py     Val( 5p)     1.74909
    83    I    3  py     Ryd( 6p)     0.00877
    84    I    3  py     Ryd( 7p)     0.00067
    85    I    3  py     Ryd( 8p)     0.00019
    86    I    3  pz     Cor( 4p)     1.99996
    87    I    3  pz     Val( 5p)     1.95184
    88    I    3  pz     Ryd( 6p)     0.01026
    89    I    3  pz     Ryd( 7p)     0.00070
    90    I    3  pz     Ryd( 8p)     0.00006
    91    I    3  dxy    Cor( 4d)     1.99669
    92    I    3  dxy    Ryd( 5d)     0.01961
    93    I    3  dxy    Ryd( 6d)     0.00124
    94    I    3  dxy    Ryd( 7d)     0.00021
    95    I    3  dxz    Cor( 4d)     1.99679
    96    I    3  dxz    Ryd( 5d)     0.01975
    97    I    3  dxz    Ryd( 6d)     0.00158
    98    I    3  dxz    Ryd( 7d)     0.00015
    99    I    3  dyz    Cor( 4d)     1.99674
   100    I    3  dyz    Ryd( 5d)     0.01958
   101    I    3  dyz    Ryd( 6d)     0.00124
   102    I    3  dyz    Ryd( 7d)     0.00021
   103    I    3  dx2y2  Cor( 4d)     1.99651
   104    I    3  dx2y2  Ryd( 5d)     0.01971
   105    I    3  dx2y2  Ryd( 6d)     0.00146
   106    I    3  dx2y2  Ryd( 7d)     0.00018
   107    I    3  dz2    Cor( 4d)     1.99668
   108    I    3  dz2    Ryd( 5d)     0.01979
   109    I    3  dz2    Ryd( 6d)     0.00156
   110    I    3  dz2    Ryd( 7d)     0.00016
   111    I    3  f(0)   Ryd( 4f)     0.00269
   112    I    3  f(0)   Ryd( 5f)     0.00041
   113    I    3  f(C1)  Ryd( 4f)     0.00274
   114    I    3  f(C1)  Ryd( 5f)     0.00041
   115    I    3  f(S1)  Ryd( 4f)     0.00282
   116    I    3  f(S1)  Ryd( 5f)     0.00044
   117    I    3  f(C2)  Ryd( 4f)     0.00266
   118    I    3  f(C2)  Ryd( 5f)     0.00041
   119    I    3  f(S2)  Ryd( 4f)     0.00272
   120    I    3  f(S2)  Ryd( 5f)     0.00041
   121    I    3  f(C3)  Ryd( 4f)     0.00267
   122    I    3  f(C3)  Ryd( 5f)     0.00042
   123    I    3  f(S3)  Ryd( 4f)     0.00278
   124    I    3  f(S3)  Ryd( 5f)     0.00043

   125    H    4  S      Val( 1S)     0.60023
   126    H    4  S      Ryd( 2S)     0.00611
   127    H    4  S      Ryd( 3S)     0.00054
   128    H    4  S      Ryd( 4S)     0.00022
   129    H    4  px     Ryd( 2p)     0.00410
   130    H    4  px     Ryd( 3p)     0.00041
   131    H    4  px     Ryd( 4p)     0.00006
   132    H    4  py     Ryd( 2p)     0.00411
   133    H    4  py     Ryd( 3p)     0.00122
   134    H    4  py     Ryd( 4p)     0.00017
   135    H    4  pz     Ryd( 2p)     0.00430
   136    H    4  pz     Ryd( 3p)     0.00034
   137    H    4  pz     Ryd( 4p)     0.00005
   138    H    4  dxy    Ryd( 3d)     0.00038
   139    H    4  dxy    Ryd( 4d)     0.00008
   140    H    4  dxz    Ryd( 3d)     0.00022
   141    H    4  dxz    Ryd( 4d)     0.00004
   142    H    4  dyz    Ryd( 3d)     0.00040
   143    H    4  dyz    Ryd( 4d)     0.00009
   144    H    4  dx2y2  Ryd( 3d)     0.00025
   145    H    4  dx2y2  Ryd( 4d)     0.00011
   146    H    4  dz2    Ryd( 3d)     0.00024
   147    H    4  dz2    Ryd( 4d)     0.00006

 [ 28 electrons found in the effective core potential]

 WARNING:  5 low occupancy (<1.9990e) core orbitals found on  I    3


 Summary of Natural Population Analysis:                  
                                                          
                                       Natural Population 
                Natural  -----------------------------------------------
    Atom  No    Charge         Core      Valence    Rydberg      Total
 -----------------------------------------------------------------------
      O    1   -1.05941      1.99971     6.94691    0.11279     9.05941
      H    2    0.42624      0.00000     0.55938    0.01438     0.57376
      I    3   -0.74323     45.98257     7.59827    0.16239    53.74323
      H    4    0.37628      0.00000     0.60023    0.02349     0.62372
 =======================================================================
   * Total *   -1.00012     47.98229    15.70480    0.31304    64.00012

                                 Natural Population      
 --------------------------------------------------------
   Effective Core            28.00000
   Core                      19.98229 ( 99.9114% of  20)
   Valence                   15.70480 ( 98.1550% of  16)
   Natural Minimal Basis     63.68708 ( 99.5111% of  64)
   Natural Rydberg Basis      0.31304 (  0.4891% of  64)
 --------------------------------------------------------

    Atom  No          Natural Electron Configuration
 ----------------------------------------------------------------------------
      O    1      [core]2S( 1.80)2p( 5.15)3S( 0.01)3p( 0.05)3d( 0.04)
      H    2            1S( 0.56)2p( 0.01)
      I    3      [core]5S( 1.95)5p( 5.64)4f( 0.02)5d( 0.10)6p( 0.03)6d( 0.01)
      H    4            1S( 0.60)2S( 0.01)2p( 0.01)


 NATURAL BOND ORBITAL ANALYSIS:
 Warning:  a bond orbital has occupanc of -0.00024

                       Occupancies       Lewis Structure    Low   High
           Occ.    -------------------  -----------------   occ   occ
  Cycle   Thresh.   Lewis   Non-Lewis     CR  BD  3C  LP    (L)   (NL)   Dev
 =============================================================================
   1(1)    1.90    63.41982   0.58018     10   2   0   6     1      1    0.32
 Warning:  a bond orbital has occupanc of -0.00024
   2(2)    1.90    63.31881   0.68119     10   2   0   6     1      1    0.45
 Warning:  a bond orbital has occupanc of -0.00024
   3(3)    1.90    63.41982   0.58018     10   2   0   6     1      1    0.32
 Warning:  a bond orbital has occupanc of -0.00024
   4(1)    1.80    63.41982   0.58018     10   2   0   6     1      1    0.32
 Warning:  a bond orbital has occupanc of -0.00024
   5(2)    1.80    63.31881   0.68119     10   2   0   6     1      1    0.45
 Warning:  a bond orbital has occupanc of -0.00024
   6(3)    1.80    63.41982   0.58018     10   2   0   6     1      1    0.32
 Warning:  a bond orbital has occupanc of -0.00024
   7(1)    1.70    63.41982   0.58018     10   2   0   6     0      1    0.32
 Warning:  a bond orbital has occupanc of -0.00024
   8(2)    1.70    63.41982   0.58018     10   2   0   6     0      1    0.32
 Warning:  a bond orbital has occupanc of -0.00024
   9(1)    1.60    63.08815   0.91185     10   1   0   7     0      1    0.45
 Warning:  a bond orbital has occupanc of -0.00024
  10(2)    1.60    63.08815   0.91185     10   1   0   7     0      1    0.45
 Warning:  a bond orbital has occupanc of -0.00024
  11(1)    1.50    63.08815   0.91185     10   1   0   7     0      1    0.45
 Warning:  a bond orbital has occupanc of -0.00024
  12(2)    1.50    63.08815   0.91185     10   1   0   7     0      1    0.45
 Warning:  a bond orbital has occupanc of -0.00024
  13(1)    1.90    63.41982   0.58018     10   2   0   6     1      1    0.32
 -----------------------------------------------------------------------------

 Structure accepted: RESONANCE keyword permits strongly delocalized structure

 WARNING:  5 low occupancy (<1.9990e) core orbitals found on  I    3

 --------------------------------------------------------
   Effective Core           28.00000
   Core                     19.98228 ( 99.911% of  20)
   Valence Lewis            15.43754 ( 96.485% of  16)
  ==================       ============================
   Total Lewis              63.41982 ( 99.093% of  64)
  -----------------------------------------------------
   Valence non-Lewis         0.29091 (  0.455% of  64)
   Rydberg non-Lewis         0.28927 (  0.452% of  64)
  ==================       ============================
   Total non-Lewis           0.58018 (  0.907% of  64)
 --------------------------------------------------------


       (Occupancy)   Bond orbital/ Coefficients/ Hybrids
 ---------------------------------------------------------------------------------
     1. (1.96232) BD ( 1) O   1 - H   2  
                ( 72.29%)   0.8502* O   1 s( 21.61%)p 3.60( 77.89%)d 0.02(  0.49%)
                                                  f 0.00(  0.01%)
                                            0.0003  0.4647 -0.0098 -0.0036 -0.0012
                                            0.8813 -0.0406 -0.0094 -0.0063  0.0211
                                           -0.0047  0.0018 -0.0019  0.0000  0.0000
                                            0.0000  0.0000 -0.0137  0.0041 -0.0023
                                            0.0000  0.0000  0.0000  0.0000  0.0000
                                            0.0000  0.0591 -0.0060  0.0040 -0.0336
                                            0.0011 -0.0000  0.0000  0.0000 -0.0097
                                            0.0005 -0.0005  0.0001  0.0000  0.0000
                                            0.0000  0.0000  0.0057  0.0032  0.0004
                                           -0.0002
                ( 27.71%)   0.5264* H   2 s( 99.82%)p 0.00(  0.17%)d 0.00(  0.00%)
                                            0.9991  0.0053  0.0002 -0.0003  0.0233
                                           -0.0337 -0.0041 -0.0071  0.0003  0.0004
                                            0.0000  0.0000  0.0000  0.0000  0.0024
                                            0.0000  0.0000  0.0000  0.0000  0.0026
                                            0.0034 -0.0029 -0.0017
     2. (1.94984) BD ( 1) O   1 - H   4  
                ( 80.28%)   0.8960* O   1 s( 15.28%)p 5.53( 84.47%)d 0.02(  0.25%)
                                                  f 0.00(  0.01%)
                                           -0.0002 -0.3908 -0.0049 -0.0002 -0.0009
                                            0.1825 -0.0138 -0.0015 -0.0017  0.9006
                                            0.0068 -0.0021 -0.0036  0.0000  0.0000
                                            0.0000  0.0000  0.0175 -0.0028  0.0012
                                            0.0000  0.0000  0.0000  0.0000  0.0000
                                            0.0000  0.0385 -0.0057  0.0002  0.0246
                                           -0.0039 -0.0009  0.0000  0.0000 -0.0013
                                           -0.0001 -0.0084  0.0026  0.0000  0.0000
                                            0.0000  0.0000 -0.0027  0.0003 -0.0008
                                            0.0010
                ( 19.72%)   0.4440* H   4 s( 99.83%)p 0.00(  0.16%)d 0.00(  0.01%)
                                           -0.9986 -0.0318  0.0125  0.0042 -0.0212
                                           -0.0047 -0.0022  0.0056 -0.0309 -0.0114
                                            0.0000  0.0000  0.0000  0.0004 -0.0017
                                            0.0000  0.0000  0.0000  0.0000  0.0046
                                            0.0056  0.0043  0.0036
     3. (1.99972) CR ( 1) O   1           s(100.00%)p 0.00(  0.00%)
                                            1.0000 -0.0004  0.0000  0.0000  0.0000
                                           -0.0001  0.0000  0.0000  0.0000  0.0001
                                            0.0000 -0.0000 -0.0000  0.0000  0.0000
                                            0.0000  0.0000  0.0000 -0.0000  0.0000
                                            0.0000  0.0000  0.0000  0.0000  0.0000
                                            0.0000 -0.0000 -0.0000 -0.0000  0.0000
                                           -0.0000 -0.0000  0.0000  0.0000  0.0000
                                            0.0000 -0.0000  0.0000  0.0000  0.0000
                                            0.0000  0.0000 -0.0000 -0.0000 -0.0000
                                            0.0000
     4. (1.99958) CR ( 1) I   3           s(100.00%)p 0.00(  0.00%)
                                            1.0000 -0.0004  0.0000 -0.0000  0.0000
                                            0.0000  0.0000  0.0000 -0.0000  0.0000
                                            0.0000  0.0000  0.0001 -0.0000  0.0000
                                            0.0000  0.0000  0.0000  0.0000  0.0000
                                            0.0000  0.0000  0.0000 -0.0000 -0.0000
                                            0.0000  0.0000  0.0000  0.0000  0.0000
                                            0.0000  0.0000  0.0000 -0.0000 -0.0000
                                            0.0000  0.0000 -0.0000 -0.0000  0.0000
                                            0.0000  0.0000  0.0000 -0.0000  0.0000
                                           -0.0000  0.0000  0.0000  0.0000  0.0000
                                            0.0000 -0.0000  0.0000 -0.0000  0.0000
     5. (1.99994) CR ( 2) I   3           s(  0.00%)p 1.00(100.00%)
                                            0.0000  0.0001 -0.0000 -0.0000  0.0000
                                           -0.0000  1.0000 -0.0006 -0.0000 -0.0000
                                            0.0000  0.0000  0.0001  0.0000 -0.0000
                                            0.0000  0.0000  0.0000  0.0000  0.0000
                                            0.0000  0.0000 -0.0000  0.0000  0.0000
                                            0.0000  0.0000  0.0000  0.0000  0.0000
                                            0.0000  0.0000  0.0000  0.0000 -0.0000
                                           -0.0000  0.0000  0.0000  0.0000  0.0000
                                            0.0000  0.0000  0.0000  0.0000  0.0000
                                           -0.0000 -0.0000  0.0000  0.0000  0.0000
                                            0.0000  0.0000  0.0000 -0.0000 -0.0000
     6. (1.99968) CR ( 3) I   3           s(  0.00%)p 1.00(100.00%)
                                            0.0000  0.0003 -0.0000  0.0000 -0.0000
                                           -0.0000  0.0000  0.0001  0.0000  0.0000
                                           -0.0000  1.0000 -0.0001  0.0000 -0.0000
                                           -0.0000  0.0000  0.0000  0.0000  0.0000
                                            0.0000 -0.0000  0.0000 -0.0000 -0.0000
                                            0.0000  0.0000  0.0000  0.0000  0.0000
                                            0.0000  0.0000  0.0000  0.0000  0.0000
                                            0.0000 -0.0000  0.0000  0.0000 -0.0000
                                           -0.0000  0.0000  0.0000 -0.0000 -0.0000
                                            0.0000 -0.0000  0.0000  0.0000  0.0000
                                            0.0000 -0.0000 -0.0000  0.0000  0.0000
     7. (1.99996) CR ( 4) I   3           s(  0.00%)p 1.00(100.00%)
                                            0.0000  0.0000  0.0000  0.0000  0.0000
                                            0.0000  0.0000  0.0000  0.0000  0.0000
                                            0.0000  0.0000  0.0000  0.0000  0.0000
                                            0.0000  1.0000 -0.0006 -0.0000 -0.0000
                                            0.0000  0.0000  0.0000  0.0000  0.0000
                                            0.0000 -0.0000 -0.0000 -0.0000  0.0000
                                           -0.0000  0.0000  0.0000  0.0000  0.0000
                                            0.0000  0.0000  0.0000  0.0000  0.0000
                                            0.0000  0.0000  0.0000  0.0000  0.0000
                                            0.0000  0.0000  0.0000  0.0000 -0.0000
                                           -0.0000  0.0000  0.0000  0.0000  0.0000
     8. (1.99669) CR ( 5) I   3           s(  0.00%)p 0.00(  0.00%)d 1.00(100.00%)
                                            0.0000  0.0000 -0.0000  0.0000 -0.0000
                                           -0.0000  0.0000  0.0000  0.0000  0.0000
                                           -0.0000 -0.0000 -0.0000  0.0000 -0.0000
                                           -0.0000  0.0000  0.0000  0.0000  0.0000
                                            0.0000  1.0000  0.0000 -0.0000 -0.0000
                                            0.0000  0.0000  0.0000  0.0000  0.0000
                                            0.0000  0.0000  0.0000  0.0000  0.0000
                                            0.0000 -0.0000  0.0000  0.0000 -0.0000
                                           -0.0000  0.0000  0.0000 -0.0000 -0.0000
                                            0.0000 -0.0000  0.0000  0.0000  0.0000
                                            0.0000 -0.0000 -0.0000  0.0000  0.0000
     9. (1.99679) CR ( 6) I   3           s(  0.00%)p 0.00(  0.00%)d 1.00(100.00%)
                                            0.0000  0.0000  0.0000  0.0000  0.0000
                                            0.0000  0.0000  0.0000  0.0000  0.0000
                                            0.0000  0.0000  0.0000  0.0000  0.0000
                                            0.0000  0.0000  0.0000  0.0000  0.0000
                                           -0.0000  0.0000  0.0000  0.0000  0.0000
                                            1.0000  0.0000  0.0000  0.0000 -0.0000
                                            0.0000 -0.0000 -0.0000  0.0000  0.0000
                                            0.0000  0.0000  0.0000  0.0000  0.0000
                                            0.0000 -0.0000 -0.0000  0.0000  0.0000
                                            0.0000  0.0000 -0.0000 -0.0000  0.0000
                                            0.0000  0.0000  0.0000  0.0000  0.0000
    10. (1.99674) CR ( 7) I   3           s(  0.00%)p 0.00(  0.00%)d 1.00(100.00%)
                                            0.0000  0.0000  0.0000  0.0000  0.0000
                                            0.0000  0.0000  0.0000  0.0000  0.0000
                                            0.0000  0.0000  0.0000  0.0000  0.0000
                                            0.0000  0.0000  0.0000  0.0000  0.0000
                                           -0.0000  0.0000  0.0000  0.0000  0.0000
                                           -0.0000  0.0000  0.0000  0.0000  1.0000
                                            0.0000 -0.0000 -0.0000  0.0000  0.0000
                                            0.0000  0.0000  0.0000  0.0000  0.0000
                                            0.0000 -0.0000 -0.0000  0.0000  0.0000
                                            0.0000  0.0000 -0.0000 -0.0000  0.0000
                                            0.0000  0.0000  0.0000  0.0000  0.0000
    11. (1.99651) CR ( 8) I   3           s(  0.00%)p 0.00(  0.00%)d 1.00(100.00%)
                                           -0.0000 -0.0001  0.0000 -0.0000  0.0000
                                            0.0000  0.0000  0.0000  0.0000  0.0000
                                           -0.0000  0.0000  0.0000 -0.0000  0.0000
                                            0.0000  0.0000  0.0000  0.0000  0.0000
                                            0.0000  0.0000  0.0000 -0.0000 -0.0000
                                            0.0000  0.0000  0.0000  0.0000  0.0000
                                            0.0000  0.0000  0.0000  1.0000 -0.0000
                                            0.0000  0.0000 -0.0000 -0.0000  0.0000
                                           -0.0000  0.0000  0.0000 -0.0000 -0.0000
                                           -0.0000  0.0000  0.0000  0.0000  0.0000
                                            0.0000 -0.0000 -0.0000  0.0000  0.0000
    12. (1.99668) CR ( 9) I   3           s(  0.00%)p 0.00(  0.00%)d 1.00(100.00%)
                                           -0.0000 -0.0001  0.0000 -0.0000  0.0000
                                            0.0000  0.0000  0.0000 -0.0000 -0.0000
                                            0.0000  0.0000  0.0000 -0.0000  0.0000
                                            0.0000  0.0000  0.0000  0.0000  0.0000
                                            0.0000  0.0000  0.0000 -0.0000  0.0000
                                            0.0000  0.0000  0.0000  0.0000  0.0000
                                            0.0000  0.0000  0.0000 -0.0000 -0.0000
                                            0.0000  0.0000  1.0000 -0.0000  0.0000
                                            0.0000  0.0000  0.0000 -0.0000  0.0000
                                           -0.0000  0.0000  0.0000  0.0000  0.0000
                                            0.0000 -0.0000  0.0000 -0.0000  0.0000
    13. (1.96831) LP ( 1) O   1           s( 63.06%)p 0.58( 36.87%)d 0.00(  0.07%)
                                                  f 0.00(  0.00%)
                                            0.0003  0.7941  0.0008  0.0013 -0.0003
                                           -0.4279 -0.0007 -0.0027  0.0013  0.4307
                                            0.0042  0.0028  0.0018  0.0000  0.0000
                                            0.0000  0.0000  0.0235 -0.0035 -0.0006
                                            0.0000  0.0000  0.0000  0.0000  0.0000
                                            0.0000 -0.0044  0.0009 -0.0006  0.0107
                                           -0.0021  0.0017  0.0000  0.0000  0.0028
                                           -0.0009 -0.0014  0.0003  0.0000  0.0000
                                            0.0000  0.0000  0.0004 -0.0015  0.0019
                                           -0.0003
    14. (1.95614) LP ( 2) O   1           s(  0.00%)p 1.00( 99.82%)d 0.00(  0.17%)
                                                  f 0.00(  0.01%)
                                            0.0000  0.0000  0.0000  0.0000  0.0000
                                            0.0000  0.0000  0.0000  0.0000  0.0000
                                            0.0000  0.0000  0.0000  0.9988  0.0224
                                            0.0050  0.0059  0.0000  0.0000  0.0000
                                            0.0373 -0.0035 -0.0015 -0.0181  0.0026
                                            0.0012  0.0000  0.0000  0.0000  0.0000
                                            0.0000  0.0000 -0.0086  0.0029  0.0000
                                            0.0000  0.0000  0.0000  0.0016  0.0010
                                            0.0016 -0.0006  0.0000  0.0000  0.0000
                                            0.0000
    15. (1.97716) LP ( 1) I   3           s( 91.34%)p 0.09(  8.66%)d 0.00(  0.00%)
                                                  f 0.00(  0.00%)
                                            0.0004  0.9557 -0.0002  0.0013 -0.0006
                                           -0.0002 -0.0001 -0.0599  0.0007  0.0000
                                           -0.0000 -0.0003 -0.2881  0.0027 -0.0001
                                           -0.0002  0.0000  0.0000  0.0000  0.0000
                                            0.0000 -0.0000 -0.0010  0.0002  0.0001
                                            0.0000  0.0000  0.0000  0.0000  0.0000
                                            0.0000  0.0000  0.0000  0.0001  0.0022
                                           -0.0001 -0.0002  0.0001  0.0014 -0.0001
                                           -0.0000  0.0000  0.0000  0.0001 -0.0000
                                            0.0004 -0.0001  0.0000  0.0000  0.0000
                                            0.0000  0.0003 -0.0001  0.0005 -0.0001
    16. (1.95202) LP ( 2) I   3           s(  0.00%)p 1.00( 99.99%)d 0.00(  0.00%)
                                                  f 0.00(  0.00%)
                                            0.0000  0.0000  0.0000  0.0000  0.0000
                                            0.0000  0.0000  0.0000  0.0000  0.0000
                                            0.0000  0.0000  0.0000  0.0000  0.0000
                                            0.0000  0.0006  1.0000  0.0038  0.0019
                                           -0.0002  0.0000  0.0000  0.0000  0.0000
                                           -0.0000  0.0021  0.0006  0.0001 -0.0000
                                            0.0040 -0.0013 -0.0045  0.0000  0.0000
                                            0.0000  0.0000  0.0000  0.0000  0.0000
                                            0.0000 -0.0030 -0.0015  0.0000  0.0000
                                            0.0000  0.0000 -0.0031 -0.0013  0.0016
                                            0.0010  0.0000  0.0000  0.0000  0.0000
    17. (1.95180) LP ( 3) I   3           s(  0.00%)p 1.00( 99.99%)d 0.00(  0.01%)
                                                  f 0.00(  0.00%)
                                           -0.0000 -0.0010  0.0002  0.0015 -0.0013
                                            0.0000  0.0006  0.9784  0.0047  0.0024
                                           -0.0008 -0.0001 -0.2066 -0.0004  0.0001
                                           -0.0004  0.0000  0.0000  0.0000  0.0000
                                            0.0000 -0.0000  0.0044 -0.0012 -0.0040
                                            0.0000  0.0000  0.0000  0.0000  0.0000
                                            0.0000  0.0000  0.0000 -0.0000  0.0039
                                            0.0005 -0.0008  0.0000 -0.0005 -0.0005
                                           -0.0008  0.0000  0.0000 -0.0013 -0.0007
                                            0.0003  0.0000  0.0000  0.0000  0.0000
                                            0.0000 -0.0033 -0.0012  0.0028  0.0014
    18. (1.71997) LP ( 4) I   3           s(  8.66%)p10.53( 91.22%)d 0.01(  0.10%)
                                                  f 0.00(  0.02%)
                                            0.0000  0.2942  0.0009 -0.0048  0.0021
                                            0.0007 -0.0000  0.1977 -0.0017 -0.0011
                                            0.0003  0.0000  0.9344 -0.0090 -0.0050
                                            0.0010  0.0000  0.0000  0.0000  0.0000
                                            0.0000  0.0000  0.0111  0.0009 -0.0011
                                            0.0000  0.0000  0.0000  0.0000  0.0000
                                            0.0000  0.0000  0.0000  0.0000 -0.0240
                                           -0.0023  0.0029 -0.0000 -0.0159 -0.0018
                                            0.0012  0.0000  0.0000 -0.0017 -0.0006
                                           -0.0084 -0.0031  0.0000  0.0000  0.0000
                                            0.0000 -0.0060 -0.0017 -0.0086 -0.0027
    19. (0.02375) RY*( 1) O   1           s(  0.00%)p 1.00( 98.77%)d 0.01(  1.20%)
                                                  f 0.00(  0.03%)
                                            0.0000  0.0000  0.0000  0.0000  0.0000
                                            0.0000  0.0000  0.0000  0.0000  0.0000
                                            0.0000  0.0000  0.0000 -0.0265  0.9929
                                           -0.0246 -0.0219  0.0000  0.0000  0.0000
                                            0.0846 -0.0175  0.0066 -0.0631  0.0189
                                           -0.0106  0.0000  0.0000  0.0000  0.0000
                                            0.0000  0.0000 -0.0117  0.0124  0.0000
                                            0.0000  0.0000  0.0000 -0.0035  0.0021
                                            0.0002 -0.0018  0.0000  0.0000  0.0000
                                            0.0000
    20. (0.01807) RY*( 2) O   1           s( 19.07%)p 4.12( 78.48%)d 0.12(  2.38%)
                                                  f 0.00(  0.07%)
                                           -0.0000 -0.0052  0.4365  0.0062 -0.0115
                                           -0.0066 -0.4906  0.0053  0.0170 -0.0149
                                            0.7370 -0.0089 -0.0155  0.0000  0.0000
                                            0.0000  0.0000  0.1487 -0.0277  0.0114
                                            0.0000  0.0000  0.0000  0.0000  0.0000
                                            0.0000 -0.0078  0.0046  0.0008  0.0233
                                           -0.0120  0.0060  0.0000  0.0000  0.0028
                                           -0.0029  0.0015  0.0029  0.0000  0.0000
                                            0.0000  0.0000  0.0196 -0.0116  0.0119
                                           -0.0046
    21. (0.00959) RY*( 3) O   1           s(  9.35%)p 9.14( 85.40%)d 0.54(  5.05%)
                                                  f 0.02(  0.21%)
                                            0.0000 -0.0101  0.3032 -0.0203  0.0320
                                           -0.0375 -0.6873  0.0190  0.0289 -0.0060
                                           -0.6133 -0.0116 -0.0513 -0.0000 -0.0000
                                           -0.0000 -0.0000 -0.1329 -0.0162  0.0065
                                           -0.0000 -0.0000 -0.0000 -0.0000 -0.0000
                                           -0.0000  0.1665  0.0549 -0.0209  0.0319
                                            0.0173 -0.0063 -0.0000 -0.0000 -0.0084
                                            0.0040  0.0136 -0.0141 -0.0000 -0.0000
                                           -0.0000 -0.0000  0.0307 -0.0242  0.0023
                                           -0.0074
    22. (0.00662) RY*( 4) O   1           s( 23.85%)p 0.28(  6.67%)d 2.88( 68.73%)
                                                  f 0.03(  0.76%)
                                           -0.0000  0.0154  0.4881  0.0028 -0.0003
                                            0.0313  0.2508 -0.0057 -0.0033  0.0325
                                            0.0123 -0.0160 -0.0360 -0.0000 -0.0000
                                           -0.0000 -0.0000 -0.7029 -0.0184 -0.0002
                                           -0.0000 -0.0000 -0.0000 -0.0000 -0.0000
                                           -0.0000 -0.3982 -0.0026 -0.0025  0.1823
                                            0.0298 -0.0121 -0.0000 -0.0000  0.0087
                                            0.0022  0.0358 -0.0244 -0.0000 -0.0000
                                           -0.0000 -0.0000 -0.0657  0.0310 -0.0163
                                           -0.0070
    23. (0.00639) RY*( 5) O   1           s(  0.00%)p 1.00(  0.02%)d99.99( 98.84%)
                                                  f58.05(  1.14%)
                                            0.0000  0.0000  0.0000  0.0000  0.0000
                                            0.0000  0.0000  0.0000  0.0000  0.0000
                                            0.0000  0.0000  0.0000 -0.0065  0.0031
                                           -0.0119 -0.0014  0.0000  0.0000  0.0000
                                            0.5695  0.0392 -0.0112  0.8124  0.0482
                                           -0.0025  0.0000  0.0000  0.0000  0.0000
                                            0.0000  0.0000  0.0081 -0.0122  0.0000
                                            0.0000  0.0000  0.0000  0.0901 -0.0547
                                            0.0045  0.0039  0.0000  0.0000  0.0000
                                            0.0000
    24. (0.00600) RY*( 6) O   1           s(  0.00%)p 1.00(  1.26%)d77.84( 97.76%)
                                                  f 0.78(  0.98%)
                                            0.0000  0.0000  0.0000  0.0000  0.0000
                                            0.0000  0.0000  0.0000  0.0000  0.0000
                                            0.0000  0.0000  0.0000 -0.0384 -0.1033
                                            0.0179  0.0096  0.0000  0.0000  0.0000
                                            0.8036  0.0790 -0.0301 -0.5674 -0.0526
                                            0.0115  0.0000  0.0000  0.0000  0.0000
                                            0.0000  0.0000 -0.0723  0.0394  0.0000
                                            0.0000  0.0000  0.0000  0.0351 -0.0134
                                           -0.0368  0.0163  0.0000  0.0000  0.0000
                                            0.0000
    25. (0.00587) RY*( 7) O   1           s(  4.76%)p 1.02(  4.86%)d18.86( 89.71%)
                                                  f 0.14(  0.68%)
                                           -0.0000  0.0142  0.2173 -0.0120  0.0016
                                            0.0339  0.1874 -0.0210 -0.0009 -0.0317
                                           -0.1025  0.0090 -0.0152  0.0000  0.0000
                                            0.0000  0.0000  0.3682  0.0203 -0.0017
                                            0.0000  0.0000  0.0000  0.0000  0.0000
                                            0.0000  0.1255  0.0185 -0.0033  0.8576
                                            0.0942 -0.0247  0.0000  0.0000  0.0554
                                           -0.0287 -0.0449  0.0252  0.0000  0.0000
                                            0.0000  0.0000  0.0095 -0.0042  0.0127
                                           -0.0017
    26. (0.00534) RY*( 8) O   1           s( 12.00%)p 0.66(  7.94%)d 6.48( 77.74%)
                                                  f 0.19(  2.32%)
                                           -0.0000 -0.0009  0.3463  0.0077 -0.0065
                                            0.0464  0.1060 -0.0196  0.0003  0.0197
                                           -0.2473 -0.0098 -0.0632 -0.0000 -0.0000
                                           -0.0000 -0.0000  0.5552  0.0208  0.0046
                                           -0.0000 -0.0000 -0.0000 -0.0000 -0.0000
                                           -0.0000 -0.6200 -0.0053 -0.0028 -0.2897
                                           -0.0196  0.0050 -0.0000 -0.0000  0.0307
                                           -0.0208  0.0499 -0.0398 -0.0000 -0.0000
                                           -0.0000 -0.0000  0.0149 -0.0218  0.1124
                                           -0.0662
    27. (0.00245) RY*( 9) O   1           s( 28.68%)p 0.61( 17.47%)d 1.84( 52.77%)
                                                  f 0.04(  1.08%)
                                            0.0000 -0.0050  0.5337 -0.0429 -0.0136
                                           -0.0253  0.4116  0.0090  0.0012 -0.0052
                                           -0.0441  0.0172 -0.0471  0.0000  0.0000
                                            0.0000  0.0000  0.0705  0.0114 -0.0103
                                            0.0000  0.0000  0.0000  0.0000  0.0000
                                            0.0000  0.6110  0.1416  0.0512 -0.3385
                                           -0.1079 -0.0154  0.0000  0.0000 -0.0335
                                            0.0488  0.0104 -0.0066  0.0000  0.0000
                                            0.0000  0.0000  0.0559 -0.0628 -0.0102
                                            0.0002
    28. (0.00061) RY*(10) O   1           s( 22.24%)p 3.12( 69.40%)d 0.29(  6.34%)
                                                  f 0.09(  2.02%)
                                            0.0000 -0.0050  0.0123  0.4558 -0.1200
                                           -0.0028 -0.0267 -0.1755 -0.0711  0.0015
                                           -0.0063  0.8107 -0.0136  0.0000  0.0000
                                            0.0000  0.0000 -0.0209  0.2241 -0.0749
                                            0.0000  0.0000  0.0000  0.0000  0.0000
                                            0.0000  0.0109  0.0026  0.0378  0.0062
                                           -0.0121  0.0735  0.0000  0.0000  0.0284
                                            0.0029  0.1331 -0.0157  0.0000  0.0000
                                            0.0000  0.0000 -0.0021  0.0000  0.0376
                                            0.0062
    29. (0.00056) RY*(11) O   1           s(  0.00%)p 1.00( 29.30%)d 2.21( 64.67%)
                                                  f 0.21(  6.02%)
                                            0.0000  0.0000  0.0000  0.0000  0.0000
                                            0.0000  0.0000  0.0000  0.0000  0.0000
                                            0.0000  0.0000  0.0000  0.0028  0.0410
                                            0.5362 -0.0616  0.0000  0.0000  0.0000
                                           -0.0435  0.3290 -0.0227  0.0453 -0.7301
                                            0.0303  0.0000  0.0000  0.0000  0.0000
                                            0.0000  0.0000  0.1219 -0.0198  0.0000
                                            0.0000  0.0000  0.0000  0.1531 -0.0102
                                            0.1465  0.0027  0.0000  0.0000  0.0000
                                            0.0000
    30. (0.00055) RY*(12) O   1           s(  5.90%)p 0.45(  2.66%)d13.69( 80.71%)
                                                  f 1.82( 10.74%)
                                           -0.0000  0.0014 -0.0143  0.2422 -0.0107
                                            0.0025 -0.0020 -0.0111 -0.0302 -0.0078
                                           -0.0252 -0.1260 -0.0947 -0.0000 -0.0000
                                           -0.0000 -0.0000 -0.0305 -0.2482 -0.0465
                                           -0.0000 -0.0000 -0.0000 -0.0000 -0.0000
                                           -0.0000  0.0112 -0.3099  0.0489  0.1044
                                           -0.7871  0.1159 -0.0000 -0.0000  0.1586
                                           -0.0014  0.0464 -0.0016 -0.0000 -0.0000
                                           -0.0000 -0.0000  0.2209 -0.0162  0.1756
                                           -0.0134
    31. (0.00053) RY*(13) O   1           s(  0.00%)p 1.00( 68.05%)d 0.42( 28.61%)
                                                  f 0.05(  3.34%)
                                            0.0000  0.0000  0.0000  0.0000  0.0000
                                            0.0000  0.0000  0.0000  0.0000  0.0000
                                            0.0000  0.0000  0.0000 -0.0051  0.0027
                                            0.8020 -0.1929  0.0000  0.0000  0.0000
                                            0.0040 -0.0424  0.0010 -0.0131  0.5329
                                            0.0116  0.0000  0.0000  0.0000  0.0000
                                            0.0000  0.0000 -0.0546  0.0023  0.0000
                                            0.0000  0.0000  0.0000 -0.0471  0.0168
                                           -0.1670 -0.0039  0.0000  0.0000  0.0000
                                            0.0000
    32. (0.00046) RY*(14) O   1           s(  1.60%)p40.17( 64.20%)d 2.91(  4.65%)
                                                  f18.49( 29.55%)
                                            0.0000 -0.0042 -0.0245  0.1056  0.0649
                                           -0.0104 -0.0146 -0.7432  0.0092 -0.0035
                                            0.0162 -0.2650 -0.1372 -0.0000 -0.0000
                                           -0.0000 -0.0000 -0.0372  0.0520 -0.0604
[...]
                                            0.0000  0.0000  0.0000 -0.0460 -0.0033
                                            0.0000  0.0000  0.0000  0.0000  0.0331
                                            0.0155  0.0129  0.0090
   125. (0.00441) RY*( 2) H   4           s(  0.00%)p 1.00( 98.09%)d 0.02(  1.91%)
                                            0.0000  0.0000  0.0000  0.0000  0.0000
                                            0.0000  0.0000  0.0000  0.0000  0.0000
                                            0.9866  0.0832 -0.0251  0.0000  0.0000
                                           -0.0183  0.0159 -0.1157  0.0720  0.0000
                                            0.0000  0.0000  0.0000
   126. (0.00397) RY*( 3) H   4           s(  2.23%)p43.10( 96.16%)d 0.72(  1.61%)
                                           -0.0203 -0.0056 -0.0945  0.1137  0.6431
                                           -0.0023 -0.0357 -0.7356  0.0675 -0.0327
                                           -0.0000 -0.0000 -0.0000 -0.1004  0.0245
                                           -0.0000 -0.0000 -0.0000 -0.0000 -0.0551
                                            0.0131 -0.0460  0.0109
   127. (0.00329) RY*( 4) H   4           s( 21.45%)p 3.61( 77.44%)d 0.05(  1.11%)
                                           -0.0099  0.4411 -0.1003  0.0987 -0.6593
                                            0.0228 -0.0001 -0.5475  0.1980 -0.0169
                                           -0.0000 -0.0000 -0.0000  0.1006 -0.0305
                                           -0.0000 -0.0000 -0.0000 -0.0000  0.0039
                                            0.0052  0.0009 -0.0057
   128. (0.00185) RY*( 5) H   4           s( 32.51%)p 1.96( 63.56%)d 0.12(  3.94%)
                                            0.0216  0.2415  0.5041  0.1104 -0.0170
                                           -0.2051  0.0106 -0.1315 -0.7587 -0.0126
                                           -0.0000 -0.0000 -0.0000  0.0708  0.0524
                                           -0.0000 -0.0000 -0.0000 -0.0000 -0.0935
                                           -0.1028 -0.0947 -0.0578
   129. (0.00039) RY*( 6) H   4           s(  1.10%)p82.23( 90.51%)d 7.62(  8.39%)
                                            0.0005 -0.0431  0.0734 -0.0613  0.0382
                                           -0.9006  0.1188 -0.0068  0.2485 -0.1289
                                           -0.0000 -0.0000 -0.0000  0.1869 -0.1194
                                           -0.0000 -0.0000 -0.0000 -0.0000  0.1286
                                            0.0105  0.1343  0.0054
   130. (0.00037) RY*( 7) H   4           s(  0.00%)p 1.00( 12.41%)d 7.05( 87.59%)
                                            0.0000  0.0000  0.0000  0.0000  0.0000
                                            0.0000  0.0000  0.0000  0.0000  0.0000
                                            0.0861  0.2780  0.1987  0.0000  0.0000
                                            0.1388  0.0427  0.9215  0.0748  0.0000
                                            0.0000  0.0000  0.0000
   131. (0.00033) RY*( 8) H   4           s(  0.44%)p23.75( 10.49%)d99.99( 89.07%)
                                            0.0004  0.0133  0.0475 -0.0446 -0.1374
                                           -0.2264 -0.1703  0.0137  0.0483  0.0570
                                           -0.0000 -0.0000 -0.0000 -0.8301 -0.0575
                                           -0.0000 -0.0000 -0.0000 -0.0000 -0.4300
                                           -0.0090  0.1130 -0.0231
   132. (0.00031) RY*( 9) H   4           s(  0.00%)p 1.00( 92.31%)d 0.08(  7.69%)
                                            0.0000  0.0000  0.0000  0.0000  0.0000
                                            0.0000  0.0000  0.0000  0.0000  0.0000
                                           -0.1202  0.9470 -0.1083  0.0000  0.0000
                                            0.0048  0.0206 -0.2603  0.0934  0.0000
                                            0.0000  0.0000  0.0000
   133. (0.00023) RY*(10) H   4           s(  0.00%)p 1.00(  0.34%)d99.99( 99.66%)
                                            0.0000  0.0000  0.0000  0.0000  0.0000
                                            0.0000  0.0000  0.0000  0.0000  0.0000
                                            0.0096 -0.0362 -0.0443  0.0000  0.0000
                                            0.9675 -0.2172 -0.1162  0.0020  0.0000
                                            0.0000  0.0000  0.0000
   134. (0.00023) RY*(11) H   4           s(  0.87%)p40.68( 35.50%)d72.90( 63.62%)
                                            0.0151  0.0340 -0.0186  0.0837 -0.0413
                                            0.0337 -0.1722  0.0027 -0.1411 -0.5501
                                            0.0000  0.0000  0.0000 -0.3682 -0.0653
                                            0.0000  0.0000  0.0000  0.0000  0.6672
                                            0.1281 -0.0192  0.1858
   135. (0.00021) RY*(12) H   4           s(  3.54%)p 2.49(  8.83%)d24.73( 87.62%)
                                            0.0084  0.0274 -0.1245  0.1383  0.0395
                                            0.1070 -0.0424  0.0008 -0.1766 -0.2058
                                            0.0000  0.0000  0.0000  0.1364 -0.0669
                                            0.0000  0.0000  0.0000  0.0000 -0.1427
                                            0.1413  0.8936 -0.1196
   136. (0.00012) RY*(13) H   4           s( 82.07%)p 0.11(  9.32%)d 0.10(  8.61%)
                                           -0.0003 -0.0422 -0.1859  0.8857 -0.0092
                                           -0.1172  0.0411  0.1440  0.0169  0.2380
                                            0.0000  0.0000  0.0000 -0.0861  0.0886
                                            0.0000  0.0000  0.0000  0.0000  0.1297
                                           -0.2067 -0.0278 -0.1025
   137. (0.00010) RY*(14) H   4           s( 68.66%)p 0.38( 26.09%)d 0.08(  5.25%)
   138. (0.00006) RY*(15) H   4           s(  2.30%)p 6.49( 14.97%)d35.89( 82.73%)
   139. (0.00007) RY*(16) H   4           s(  0.00%)p 1.00( 13.80%)d 6.25( 86.20%)
   140. (0.00004) RY*(17) H   4           s(  7.68%)p 5.93( 45.54%)d 6.09( 46.77%)
   141. (0.00004) RY*(18) H   4           s(  2.96%)p 4.21( 12.46%)d28.56( 84.58%)
   142. (0.00003) RY*(19) H   4           s(  0.00%)p 1.00( 83.03%)d 0.20( 16.97%)
   143. (0.00003) RY*(20) H   4           s(  0.00%)p 1.00( 82.14%)d 0.22( 17.86%)
   144. (0.00002) RY*(21) H   4           s(  0.00%)p 1.00(  0.92%)d99.99( 99.08%)
   145. (0.00002) RY*(22) H   4           s(  0.06%)p 9.03(  0.58%)d99.99( 99.35%)
   146. (0.02302) BD*( 1) O   1 - H   2  
                ( 27.71%)   0.5264* O   1 s( 21.61%)p 3.60( 77.89%)d 0.02(  0.49%)
                                                  f 0.00(  0.01%)
                                           -0.0003 -0.4647  0.0098  0.0036  0.0012
                                           -0.8813  0.0406  0.0094  0.0063 -0.0211
                                            0.0047 -0.0018  0.0019 -0.0000 -0.0000
                                           -0.0000 -0.0000  0.0137 -0.0041  0.0023
                                           -0.0000 -0.0000 -0.0000 -0.0000 -0.0000
                                           -0.0000 -0.0591  0.0060 -0.0040  0.0336
                                           -0.0011  0.0000 -0.0000 -0.0000  0.0097
                                           -0.0005  0.0005 -0.0001 -0.0000 -0.0000
                                           -0.0000 -0.0000 -0.0057 -0.0032 -0.0004
                                            0.0002
                ( 72.29%)  -0.8502* H   2 s( 99.82%)p 0.00(  0.17%)d 0.00(  0.00%)
                                           -0.9991 -0.0053 -0.0002  0.0003 -0.0233
                                            0.0337  0.0041  0.0071 -0.0003 -0.0004
                                           -0.0000 -0.0000 -0.0000 -0.0000 -0.0024
                                           -0.0000 -0.0000 -0.0000 -0.0000 -0.0026
                                           -0.0034  0.0029  0.0017
   147. (0.26789) BD*( 1) O   1 - H   4  
                ( 19.72%)   0.4440* O   1 s( 15.28%)p 5.53( 84.47%)d 0.02(  0.25%)
                                                  f 0.00(  0.01%)
                                            0.0002  0.3908  0.0049  0.0002  0.0009
                                           -0.1825  0.0138  0.0015  0.0017 -0.9006
                                           -0.0068  0.0021  0.0036 -0.0000 -0.0000
                                           -0.0000 -0.0000 -0.0175  0.0028 -0.0012
                                           -0.0000 -0.0000 -0.0000 -0.0000 -0.0000
                                           -0.0000 -0.0385  0.0057 -0.0002 -0.0246
                                            0.0039  0.0009 -0.0000 -0.0000  0.0013
                                            0.0001  0.0084 -0.0026 -0.0000 -0.0000
                                           -0.0000 -0.0000  0.0027 -0.0003  0.0008
                                           -0.0010
                ( 80.28%)  -0.8960* H   4 s( 99.83%)p 0.00(  0.16%)d 0.00(  0.01%)
                                            0.9986  0.0318 -0.0125 -0.0042  0.0212
                                            0.0047  0.0022 -0.0056  0.0309  0.0114
                                           -0.0000 -0.0000 -0.0000 -0.0004  0.0017
                                           -0.0000 -0.0000 -0.0000 -0.0000 -0.0046
                                           -0.0056 -0.0043 -0.0036


 NHO Directionality and "Bond Bending" (deviations from line of nuclear centers)

         [Thresholds for printing:  angular deviation  >  1.0 degree]
                                    hybrid p-character > 25.0%
                                    orbital occupancy  >  0.10e

                                Line of Centers        Hybrid 1              Hybrid 2
                                ---------------  -------------------   ------------------
                NBO               Theta   Phi    Theta   Phi    Dev    Theta   Phi    Dev
 ========================================================================================
     1. BD (   1) O   1 - H   2    90.0    0.0    90.0    1.1   1.1      --     --    --
     2. BD (   1) O   1 - H   4    90.0  258.1    90.0  259.6   1.5      --     --    --
    13. LP (   1) O   1             --     --     90.0  134.4   --       --     --    --
    14. LP (   2) O   1             --     --      0.0    0.0   --       --     --    --
    16. LP (   2) I   3             --     --      0.0    0.0   --       --     --    --
    17. LP (   3) I   3             --     --     90.0  348.1   --       --     --    --
    18. LP (   4) I   3             --     --     90.0   78.0   --       --     --    --
   147. BD*(   1) O   1 - H   4    90.0  258.1    90.0  259.6   1.5      --     --    --


 Natural Bond Orbitals (Summary):

           NBO                  Occupancy  
 -----------------------------------------------
 Molecular unit  1  (H2O)
     1. BD (   1) O   1 - H   2          1.96232
     2. BD (   1) O   1 - H   4          1.94984
     3. CR (   1) O   1                  1.99972
    13. LP (   1) O   1                  1.96831
    14. LP (   2) O   1                  1.95614
    19. RY*(   1) O   1                  0.02375
    20. RY*(   2) O   1                  0.01807
    21. RY*(   3) O   1                  0.00959
    22. RY*(   4) O   1                  0.00662
    23. RY*(   5) O   1                  0.00639
    24. RY*(   6) O   1                  0.00600
    25. RY*(   7) O   1                  0.00587
    26. RY*(   8) O   1                  0.00534
    27. RY*(   9) O   1                  0.00245
    28. RY*(  10) O   1                  0.00061
    29. RY*(  11) O   1                  0.00056
    30. RY*(  12) O   1                  0.00055
    31. RY*(  13) O   1                  0.00053
    32. RY*(  14) O   1                  0.00046
    33. RY*(  15) O   1                  0.00047
    34. RY*(  16) O   1                  0.00047
    35. RY*(  17) O   1                  0.00046
    36. RY*(  18) O   1                  0.00045
    37. RY*(  19) O   1                  0.00044
    38. RY*(  20) O   1                  0.00041
    39. RY*(  21) O   1                  0.00042
    40. RY*(  22) O   1                  0.00042
    41. RY*(  23) O   1                  0.00034
    42. RY*(  24) O   1                  0.00032
    43. RY*(  25) O   1                  0.00024
    44. RY*(  26) O   1                  0.00015
    45. RY*(  27) O   1                  0.00008
    46. RY*(  28) O   1                  0.00008
    47. RY*(  29) O   1                  0.00009
    48. RY*(  30) O   1                  0.00008
    49. RY*(  31) O   1                  0.00009
    50. RY*(  32) O   1                  0.00007
    51. RY*(  33) O   1                  0.00008
    52. RY*(  34) O   1                  0.00006
    53. RY*(  35) O   1                  0.00007
    54. RY*(  36) O   1                  0.00005
    55. RY*(  37) O   1                  0.00006
    56. RY*(  38) O   1                  0.00002
    57. RY*(  39) O   1                  0.00003
    58. RY*(  40) O   1                  0.00000
    59. RY*(  41) O   1                 -0.00024
    60. RY*(   1) H   2                  0.00477
    61. RY*(   2) H   2                  0.00268
    62. RY*(   3) H   2                  0.00258
    63. RY*(   4) H   2                  0.00166
    64. RY*(   5) H   2                  0.00030
    65. RY*(   6) H   2                  0.00020
    66. RY*(   7) H   2                  0.00020
    67. RY*(   8) H   2                  0.00015
    68. RY*(   9) H   2                  0.00012
    69. RY*(  10) H   2                  0.00012
    70. RY*(  11) H   2                  0.00011
    71. RY*(  12) H   2                  0.00010
    72. RY*(  13) H   2                  0.00007
    73. RY*(  14) H   2                  0.00007
    74. RY*(  15) H   2                  0.00005
    75. RY*(  16) H   2                  0.00005
    76. RY*(  17) H   2                  0.00004
    77. RY*(  18) H   2                  0.00004
    78. RY*(  19) H   2                  0.00002
    79. RY*(  20) H   2                  0.00001
    80. RY*(  21) H   2                  0.00002
    81. RY*(  22) H   2                  0.00002
   124. RY*(   1) H   4                  0.00807
   125. RY*(   2) H   4                  0.00441
   126. RY*(   3) H   4                  0.00397
   127. RY*(   4) H   4                  0.00329
   128. RY*(   5) H   4                  0.00185
   129. RY*(   6) H   4                  0.00039
   130. RY*(   7) H   4                  0.00037
   131. RY*(   8) H   4                  0.00033
   132. RY*(   9) H   4                  0.00031
   133. RY*(  10) H   4                  0.00023
   134. RY*(  11) H   4                  0.00023
   135. RY*(  12) H   4                  0.00021
   136. RY*(  13) H   4                  0.00012
   137. RY*(  14) H   4                  0.00010
   138. RY*(  15) H   4                  0.00006
   139. RY*(  16) H   4                  0.00007
   140. RY*(  17) H   4                  0.00004
   141. RY*(  18) H   4                  0.00004
   142. RY*(  19) H   4                  0.00003
   143. RY*(  20) H   4                  0.00003
   144. RY*(  21) H   4                  0.00002
   145. RY*(  22) H   4                  0.00002
   146. BD*(   1) O   1 - H   2          0.02302
   147. BD*(   1) O   1 - H   4          0.26789
       -------------------------------
              Total Lewis    9.83631  ( 95.9007%)
        Valence non-Lewis    0.29091  (  2.8362%)
        Rydberg non-Lewis    0.12955  (  1.2631%)
       -------------------------------
            Total unit  1   10.25677  (100.0000%)
           Charge unit  1   -0.25677

 Molecular unit  2  (I)
     4. CR (   1) I   3                  1.99958
     5. CR (   2) I   3                  1.99994
     6. CR (   3) I   3                  1.99968
     7. CR (   4) I   3                  1.99996
     8. CR (   5) I   3                  1.99669
     9. CR (   6) I   3                  1.99679
    10. CR (   7) I   3                  1.99674
    11. CR (   8) I   3                  1.99651
    12. CR (   9) I   3                  1.99668
    15. LP (   1) I   3                  1.97716
    16. LP (   2) I   3                  1.95202
    17. LP (   3) I   3                  1.95180
    18. LP (   4) I   3                  1.71997
    82. RY*(   1) I   3                  0.01975
    83. RY*(   2) I   3                  0.01975
    84. RY*(   3) I   3                  0.01957
    85. RY*(   4) I   3                  0.01950
    86. RY*(   5) I   3                  0.01888
    87. RY*(   6) I   3                  0.01026
    88. RY*(   7) I   3                  0.01023
    89. RY*(   8) I   3                  0.00814
    90. RY*(   9) I   3                  0.00274
    91. RY*(  10) I   3                  0.00274
    92. RY*(  11) I   3                  0.00273
    93. RY*(  12) I   3                  0.00273
    94. RY*(  13) I   3                  0.00274
    95. RY*(  14) I   3                  0.00264
    96. RY*(  15) I   3                  0.00264
    97. RY*(  16) I   3                  0.00220
    98. RY*(  17) I   3                  0.00160
    99. RY*(  18) I   3                  0.00160
   100. RY*(  19) I   3                  0.00122
   101. RY*(  20) I   3                  0.00120
   102. RY*(  21) I   3                  0.00100
   103. RY*(  22) I   3                  0.00069
   104. RY*(  23) I   3                  0.00070
   105. RY*(  24) I   3                  0.00057
   106. RY*(  25) I   3                  0.00041
   107. RY*(  26) I   3                  0.00041
   108. RY*(  27) I   3                  0.00041
   109. RY*(  28) I   3                  0.00041
   110. RY*(  29) I   3                  0.00041
   111. RY*(  30) I   3                  0.00035
   112. RY*(  31) I   3                  0.00035
   113. RY*(  32) I   3                  0.00028
   114. RY*(  33) I   3                  0.00014
   115. RY*(  34) I   3                  0.00014
   116. RY*(  35) I   3                  0.00011
   117. RY*(  36) I   3                  0.00012
   118. RY*(  37) I   3                  0.00008
   119. RY*(  38) I   3                  0.00008
   120. RY*(  39) I   3                  0.00006
   121. RY*(  40) I   3                  0.00006
   122. RY*(  41) I   3                  0.00005
   123. RY*(  42) I   3                  0.00001
       -------------------------------
              Total Lewis   53.58351  ( 99.7028%)
        Valence non-Lewis    0.00000  (  0.0000%)
        Rydberg non-Lewis    0.15972  (  0.2972%)
       -------------------------------
            Total unit  2   53.74323  (100.0000%)
           Charge unit  2   -0.74323
 Leave Link  607 at Tue Oct 26 13:22:30 2021, MaxMem= 16106127360 cpu:              75.1 elap:               2.7
 (Enter /sw/contrib/gaussian/g16/B01/g16/l9999.exe)
 1\1\GINC-N2097\SP\RMP2-FC\Gen\H2I1O1(1-)\CGAVINH\26-Oct-2021\0\\#p pop
 =NBO SP NoSymm mp2/gen Pseudo=read density=current\\title\\-1,1\O\X,1,
 10.\H,1,0.96090774,2,90.\I,1,3.50850138,2,90.,3,101.85832019,0\H,1,1.3
 5,2,90.,3,101.85832019,0\\Version=ES64L-G16RevB.01\HF=-370.7532216\MP2
 =-371.2707147\RMSD=6.181e-09\Dipole=0.4263789,-0.3924356,0.\Quadrupole
 =10.406615,-20.1371893,9.7305742,-5.9720932,0.,0.\PG=CS [SG(H2I1O1)]\\
 @


 QED = W**5 (WHICH WAS WHAT WE WANTED)
 Job cpu time:       0 days  0 hours  4 minutes 15.0 seconds.
 Elapsed time:       0 days  0 hours  0 minutes 11.7 seconds.
 File lengths (MBytes):  RWF=     11 Int=      0 D2E=      0 Chk=      8 Scr=      1
 Normal termination of Gaussian 16 at Tue Oct 26 13:22:30 2021.
