 Entering Gaussian System, Link 0=g16
 Input=ihod_rOH_150_sp.gjf
 Output=ihod_rOH_150_sp.log
 Initial command:
 /sw/contrib/gaussian/g16/B01/g16/l1.exe "/scr/Gau-30146.inp" -scrdir="/scr/"
 Entering Link 1 = /sw/contrib/gaussian/g16/B01/g16/l1.exe PID=     30147.
  
 Copyright (c) 1988-2017, Gaussian, Inc.  All Rights Reserved.
  
 This is part of the Gaussian(R) 16 program.  It is based on
 the Gaussian(R) 09 system (copyright 2009, Gaussian, Inc.),
 the Gaussian(R) 03 system (copyright 2003, Gaussian, Inc.),
 the Gaussian(R) 98 system (copyright 1998, Gaussian, Inc.),
 the Gaussian(R) 94 system (copyright 1995, Gaussian, Inc.),
 the Gaussian 92(TM) system (copyright 1992, Gaussian, Inc.),
 the Gaussian 90(TM) system (copyright 1990, Gaussian, Inc.),
 the Gaussian 88(TM) system (copyright 1988, Gaussian, Inc.),
 the Gaussian 86(TM) system (copyright 1986, Carnegie Mellon
 University), and the Gaussian 82(TM) system (copyright 1983,
 Carnegie Mellon University). Gaussian is a federally registered
 trademark of Gaussian, Inc.
  
 This software contains proprietary and confidential information,
 including trade secrets, belonging to Gaussian, Inc.
  
 This software is provided under written license and may be
 used, copied, transmitted, or stored only in accord with that
 written license.
  
 The following legend is applicable only to US Government
 contracts under FAR:
  
                    RESTRICTED RIGHTS LEGEND
  
 Use, reproduction and disclosure by the US Government is
 subject to restrictions as set forth in subparagraphs (a)
 and (c) of the Commercial Computer Software - Restricted
 Rights clause in FAR 52.227-19.
  
 Gaussian, Inc.
 340 Quinnipiac St., Bldg. 40, Wallingford CT 06492
  
  
 ---------------------------------------------------------------
 Warning -- This program may not be used in any manner that
 competes with the business of Gaussian, Inc. or will provide
 assistance to any competitor of Gaussian, Inc.  The licensee
 of this program is prohibited from giving any competitor of
 Gaussian, Inc. access to this program.  By using this program,
 the user acknowledges that Gaussian, Inc. is engaged in the
 business of creating and licensing software in the field of
 computational chemistry and represents and warrants to the
 licensee that it is not a competitor of Gaussian, Inc. and that
 it will not use this program in any manner prohibited above.
 ---------------------------------------------------------------
  

 Cite this work as:
 Gaussian 16, Revision B.01,
 M. J. Frisch, G. W. Trucks, H. B. Schlegel, G. E. Scuseria, 
 M. A. Robb, J. R. Cheeseman, G. Scalmani, V. Barone, 
 G. A. Petersson, H. Nakatsuji, X. Li, M. Caricato, A. V. Marenich, 
 J. Bloino, B. G. Janesko, R. Gomperts, B. Mennucci, H. P. Hratchian, 
 J. V. Ortiz, A. F. Izmaylov, J. L. Sonnenberg, D. Williams-Young, 
 F. Ding, F. Lipparini, F. Egidi, J. Goings, B. Peng, A. Petrone, 
 T. Henderson, D. Ranasinghe, V. G. Zakrzewski, J. Gao, N. Rega, 
 G. Zheng, W. Liang, M. Hada, M. Ehara, K. Toyota, R. Fukuda, 
 J. Hasegawa, M. Ishida, T. Nakajima, Y. Honda, O. Kitao, H. Nakai, 
 T. Vreven, K. Throssell, J. A. Montgomery, Jr., J. E. Peralta, 
 F. Ogliaro, M. J. Bearpark, J. J. Heyd, E. N. Brothers, K. N. Kudin, 
 V. N. Staroverov, T. A. Keith, R. Kobayashi, J. Normand, 
 K. Raghavachari, A. P. Rendell, J. C. Burant, S. S. Iyengar, 
 J. Tomasi, M. Cossi, J. M. Millam, M. Klene, C. Adamo, R. Cammi, 
 J. W. Ochterski, R. L. Martin, K. Morokuma, O. Farkas, 
 J. B. Foresman, and D. J. Fox, Gaussian, Inc., Wallingford CT, 2016.
 
 ******************************************
 Gaussian 16:  ES64L-G16RevB.01 20-Dec-2017
                26-Oct-2021 
 ******************************************
 %nproc=28
 Will use up to   28 processors via shared memory.
 %mem=120GB
 %chk=/gscratch/ilahie/mccoygrp/coire_hocl/rOH_s_oop_0/ihod/ihod_rOH_150.chk
 --------------------------------------------------------
 #p pop=NBO SP NoSymm mp2/gen Pseudo=read density=current
 --------------------------------------------------------
 1/30=1,38=1,172=1/1;
 2/12=2,15=1,17=6,18=5,40=1/2;
 3/5=7,11=9,16=1,17=8,25=1,30=1,71=1/1,2,3;
 4//1;
 5/5=2,38=5/2;
 8/6=4,10=1/1;
 9/15=1,16=-3/6;
 10/5=1,13=10,31=1/2;
 6/7=2,8=2,9=2,10=2,22=-1,40=1/1,7;
 99/5=1,9=1/99;
 Leave Link    1 at Tue Oct 26 13:22:55 2021, MaxMem= 16106127360 cpu:               2.0 elap:               0.1
 (Enter /sw/contrib/gaussian/g16/B01/g16/l101.exe)
 -----
 title
 -----
 Symbolic Z-matrix:
 Charge = -1 Multiplicity = 1
 O
 X                    1     10. 
 H(iso=2)             1    r1       2     90. 
 I                    1    r2       2     90.      3    a1       0
 H                    1    r3       2    oop      3    a1       0
       Variables:
  r1                    0.96091                  
  r2                    3.5085                   
  r3                    1.5                      
  a1                  101.85832                  
  OOP                  90.                       
 
 ITRead=  0  0  0  0
 MicOpt= -1 -1 -1 -1
 NAtoms=      4 NQM=        4 NQMF=       0 NMMI=      0 NMMIF=      0
                NMic=       0 NMicF=      0.
                    Isotopes and Nuclear Properties:
 (Nuclear quadrupole moments (NQMom) in fm**2, nuclear magnetic moments (NMagM)
  in nuclear magnetons)

  Atom         1           2           3           4
 IAtWgt=          16           2         127           1
 AtmWgt=  15.9949146   2.0141018 126.9004000   1.0078250
 NucSpn=           0           2           5           1
 AtZEff=  -0.0000000  -0.0000000  -0.0000000  -0.0000000
 NQMom=    0.0000000   0.2860000 -71.0000000   0.0000000
 NMagM=    0.0000000   0.8574380   2.8132800   2.7928460
 AtZNuc=   8.0000000   1.0000000  53.0000000   1.0000000
 Leave Link  101 at Tue Oct 26 13:22:55 2021, MaxMem= 16106127360 cpu:               2.0 elap:               0.1
 (Enter /sw/contrib/gaussian/g16/B01/g16/l202.exe)
                          Input orientation:                          
 ---------------------------------------------------------------------
 Center     Atomic      Atomic             Coordinates (Angstroms)
 Number     Number       Type             X           Y           Z
 ---------------------------------------------------------------------
      1          8           0        0.000000    0.000000    0.000000
      2          1           0        0.960908    0.000000    0.000000
      3         53           0       -0.720970   -3.433626    0.000000
      4          1           0       -0.308238   -1.467988    0.000000
 ---------------------------------------------------------------------
                    Distance matrix (angstroms):
                    1          2          3          4
     1  O    0.000000
     2  H    0.960908   0.000000
     3  I    3.508501   3.823414   0.000000
     4  H    1.500000   1.940547   2.008501   0.000000
 Symmetry turned off by external request.
 Stoichiometry    H2IO(1-)
 Framework group  CS[SG(H2IO)]
 Deg. of freedom     5
 Full point group                 CS      NOp   2
 Rotational constants (GHZ):         323.1249408           2.5356026           2.5158604
 Leave Link  202 at Tue Oct 26 13:22:55 2021, MaxMem= 16106127360 cpu:               1.0 elap:               0.1
 (Enter /sw/contrib/gaussian/g16/B01/g16/l301.exe)
 General basis read from cards:  (5D, 7F)
 Centers:       1      2      4
 aug-cc-pVTZ
 ****
 Centers:       3
 S 11 1.00
     Exponent=  5.5465000000D+03 Coefficients=  1.5600000000D-04
     Exponent=  8.3821400000D+02 Coefficients=  9.8600000000D-04
     Exponent=  1.8218700000D+02 Coefficients=  2.7920000000D-03
     Exponent=  3.1212300000D+01 Coefficients= -4.3251000000D-02
     Exponent=  1.9531400000D+01 Coefficients=  2.3413400000D-01
     Exponent=  8.2409900000D+00 Coefficients= -7.5094300000D-01
     Exponent=  2.1945500000D+00 Coefficients=  8.8296800000D-01
     Exponent=  1.1091100000D+00 Coefficients=  4.6206100000D-01
     Exponent=  3.7464100000D-01 Coefficients=  2.2286000000D-02
     Exponent=  1.7708000000D-01 Coefficients= -4.3530000000D-03
     Exponent=  8.1061000000D-02 Coefficients=  1.1020000000D-03
 S 11 1.00
     Exponent=  5.5465000000D+03 Coefficients= -7.3000000000D-05
     Exponent=  8.3821400000D+02 Coefficients= -5.0800000000D-04
     Exponent=  1.8218700000D+02 Coefficients= -1.1580000000D-03
     Exponent=  3.1212300000D+01 Coefficients=  1.2193000000D-02
     Exponent=  1.9531400000D+01 Coefficients= -8.7854000000D-02
     Exponent=  8.2409900000D+00 Coefficients=  3.3820000000D-01
     Exponent=  2.1945500000D+00 Coefficients= -5.7655000000D-01
     Exponent=  1.1091100000D+00 Coefficients= -4.0929800000D-01
     Exponent=  3.7464100000D-01 Coefficients=  5.6745900000D-01
     Exponent=  1.7708000000D-01 Coefficients=  6.1248900000D-01
     Exponent=  8.1061000000D-02 Coefficients=  1.4323100000D-01
 S 1 1.00
     Exponent=  3.7464100000D-01 Coefficients=  1.0000000000D+00
 S 1 1.00
     Exponent=  1.7708000000D-01 Coefficients=  1.0000000000D+00
 S 1 1.00
     Exponent=  1.0010000000D-01 Coefficients=  1.0000000000D+00
 S 1 1.00
     Exponent=  4.1200000000D-02 Coefficients=  1.0000000000D+00
 P 9 1.00
     Exponent=  1.8898800000D+02 Coefficients=  5.8500000000D-04
     Exponent=  2.1286800000D+01 Coefficients=  3.6923000000D-02
     Exponent=  1.0039600000D+01 Coefficients= -2.3532400000D-01
     Exponent=  3.4518000000D+00 Coefficients=  3.4148300000D-01
     Exponent=  1.9745600000D+00 Coefficients=  5.3478800000D-01
     Exponent=  1.0242000000D+00 Coefficients=  2.6514100000D-01
     Exponent=  4.4943700000D-01 Coefficients=  2.5787000000D-02
     Exponent=  1.8664800000D-01 Coefficients=  5.2200000000D-04
     Exponent=  7.3481000000D-02 Coefficients=  6.0600000000D-04
 P 9 1.00
     Exponent=  1.8898800000D+02 Coefficients= -2.5600000000D-04
     Exponent=  2.1286800000D+01 Coefficients= -1.1682000000D-02
     Exponent=  1.0039600000D+01 Coefficients=  8.3192000000D-02
     Exponent=  3.4518000000D+00 Coefficients= -1.5697000000D-01
     Exponent=  1.9745600000D+00 Coefficients= -2.2451800000D-01
     Exponent=  1.0242000000D+00 Coefficients= -1.1445100000D-01
     Exponent=  4.4943700000D-01 Coefficients=  3.7535600000D-01
     Exponent=  1.8664800000D-01 Coefficients=  5.7513600000D-01
     Exponent=  7.3481000000D-02 Coefficients=  2.4591700000D-01
 P 1 1.00
     Exponent=  5.9810000000D-01 Coefficients=  1.0000000000D+00
 P 1 1.00
     Exponent=  9.6180000000D-02 Coefficients=  1.0000000000D+00
 P 1 1.00
     Exponent=  3.5900000000D-02 Coefficients=  1.0000000000D+00
 D 9 1.00
     Exponent=  1.3266200000D+02 Coefficients=  5.7200000000D-04
     Exponent=  3.7605400000D+01 Coefficients=  4.4020000000D-03
     Exponent=  1.0389100000D+01 Coefficients= -4.0922000000D-02
     Exponent=  6.4901700000D+00 Coefficients=  9.9661000000D-02
     Exponent=  3.4545100000D+00 Coefficients=  3.2266300000D-01
     Exponent=  1.8441300000D+00 Coefficients=  4.0034300000D-01
     Exponent=  9.6247800000D-01 Coefficients=  2.6830600000D-01
     Exponent=  4.7285300000D-01 Coefficients=  8.4847000000D-02
     Exponent=  1.9320000000D-01 Coefficients=  7.6320000000D-03
 D 1 1.00
     Exponent=  4.7285300000D-01 Coefficients=  1.0000000000D+00
 D 1 1.00
     Exponent=  1.9320000000D-01 Coefficients=  1.0000000000D+00
 D 1 1.00
     Exponent=  7.8200000000D-02 Coefficients=  1.0000000000D+00
 F 1 1.00
     Exponent=  4.0640000000D-01 Coefficients=  1.0000000000D+00
 F 1 1.00
     Exponent=  1.8480000000D-01 Coefficients=  1.0000000000D+00
 ****
 ======================================================================================================
                                       Pseudopotential Parameters
 ======================================================================================================
  Center     Atomic      Valence      Angular      Power
  Number     Number     Electrons     Momentum     of R      Exponent        Coefficient   SO-Coeffient
 ======================================================================================================
    1          8
                                   No pseudopotential on this center.
    2          1
                                   No pseudopotential on this center.
    3         53           25
                                      G and up 
                                                     2        1.0000000        0.00000000    0.00000000
                                      S - G
                                                     2       40.0333760       49.98964900    0.00000000
                                                     2       17.3005760      281.00655600    0.00000000
                                                     2        8.8517200       61.41673900    0.00000000
                                      P - G
                                                     2       15.7201410       67.41623900    0.00000000
                                                     2       15.2082220      134.80769600    0.00000000
                                                     2        8.2941860       14.56654800    0.00000000
                                                     2        7.7539490       28.96842200    0.00000000
                                      D - G
                                                     2       13.8177510       35.53875600    0.00000000
                                                     2       13.5878050       53.33975900    0.00000000
                                                     2        6.9476300        9.71646600    0.00000000
                                                     2        6.9600990       14.97750000    0.00000000
                                      F - G
                                                     2       18.5229500      -20.17661800    0.00000000
                                                     2       18.2510350      -26.08807700    0.00000000
                                                     2        7.5579010       -0.22043400    0.00000000
                                                     2        7.5974040       -0.22164600    0.00000000
    4          1
                                   No pseudopotential on this center.
 ======================================================================================================
 Ernie: Thresh=  0.10000D-02 Tol=  0.10000D-05 Strict=F.
 Ernie:  10 primitive shells out of 113 were deleted.
   147 basis functions,   296 primitive gaussians,   170 cartesian basis functions
    18 alpha electrons       18 beta electrons
       nuclear repulsion energy        47.7128706781 Hartrees.
 IExCor=    0 DFT=F Ex=HF Corr=None ExCW=0 ScaHFX=  1.000000
 ScaDFX=  1.000000  1.000000  1.000000  1.000000 ScalE2=  1.000000  1.000000
 IRadAn=      5 IRanWt=     -1 IRanGd=            0 ICorTp=0 IEmpDi=  4
 NAtoms=    4 NActive=    4 NUniq=    4 SFac= 1.00D+00 NAtFMM=   60 NAOKFM=F Big=F
 Integral buffers will be    131072 words long.
 Raffenetti 1 integral format.
 Two-electron integral symmetry is turned off.
 Leave Link  301 at Tue Oct 26 13:22:55 2021, MaxMem= 16106127360 cpu:               2.3 elap:               0.1
 (Enter /sw/contrib/gaussian/g16/B01/g16/l302.exe)
 NPDir=0 NMtPBC=     1 NCelOv=     1 NCel=       1 NClECP=     1 NCelD=      1
         NCelK=      1 NCelE2=     1 NClLst=     1 CellRange=     0.0.
 One-electron integrals computed using PRISM.
   1 Symmetry operations used in ECPInt.
 ECPInt:  NShTT=    1225 NPrTT=    5557 LenC2=    1226 LenP2D=    4936.
 LDataN:  DoStor=T MaxTD1= 7 Len=  274
 NBasis=   147 RedAO= T EigKep=  2.01D-04  NBF=   147
 NBsUse=   147 1.00D-06 EigRej= -1.00D+00 NBFU=   147
 Leave Link  302 at Tue Oct 26 13:22:55 2021, MaxMem= 16106127360 cpu:               6.6 elap:               0.3
 (Enter /sw/contrib/gaussian/g16/B01/g16/l303.exe)
 DipDrv:  MaxL=1.
 Leave Link  303 at Tue Oct 26 13:22:55 2021, MaxMem= 16106127360 cpu:               0.9 elap:               0.1
 (Enter /sw/contrib/gaussian/g16/B01/g16/l401.exe)
 ExpMin= 2.53D-02 ExpMax= 1.53D+04 ExpMxC= 5.22D+02 IAcc=3 IRadAn=         5 AccDes= 0.00D+00
 Harris functional with IExCor=  205 and IRadAn=       5 diagonalized for initial guess.
 HarFok:  IExCor=  205 AccDes= 0.00D+00 IRadAn=         5 IDoV= 1 UseB2=F ITyADJ=14
 ICtDFT=  3500011 ScaDFX=  1.000000  1.000000  1.000000  1.000000
 Defaulting to unpruned grid for atomic number  53.
 FoFCou: FMM=F IPFlag=           0 FMFlag=      100000 FMFlg1=           0
         NFxFlg=           0 DoJE=T BraDBF=F KetDBF=T FulRan=T
         wScrn=  0.000000 ICntrl=       500 IOpCl=  0 I1Cent=   200000004 NGrid=           0
         NMat0=    1 NMatS0=      1 NMatT0=    0 NMatD0=    1 NMtDS0=    0 NMtDT0=    0
 Symmetry not used in FoFCou.
 Harris En= -372.646035802636    
 JPrj=0 DoOrth=F DoCkMO=F.
 Leave Link  401 at Tue Oct 26 13:22:56 2021, MaxMem= 16106127360 cpu:               6.5 elap:               0.3
 (Enter /sw/contrib/gaussian/g16/B01/g16/l502.exe)
 Keep R1 ints in memory in canonical form, NReq=117069155.
 FoFCou: FMM=F IPFlag=           0 FMFlag=           0 FMFlg1=           0
         NFxFlg=           0 DoJE=F BraDBF=F KetDBF=F FulRan=T
         wScrn=  0.000000 ICntrl=       600 IOpCl=  0 I1Cent=           0 NGrid=           0
         NMat0=    1 NMatS0=  10878 NMatT0=    0 NMatD0=    1 NMtDS0=    0 NMtDT0=    0
 Symmetry not used in FoFCou.
 Two-electron integral symmetry not used.
 Closed shell SCF:
 Using DIIS extrapolation, IDIIS=  1040.
 NGot= 16106127360 LenX= 16046892803 LenY= 16046863462
 Requested convergence on RMS density matrix=1.00D-08 within 128 cycles.
 Requested convergence on MAX density matrix=1.00D-06.
 Requested convergence on             energy=1.00D-06.
 No special actions if energy rises.

 Cycle   1  Pass 1  IDiag  1:
 E= -370.506651707656    
 DIIS: error= 3.58D-02 at cycle   1 NSaved=   1.
 NSaved= 1 IEnMin= 1 EnMin= -370.506651707656     IErMin= 1 ErrMin= 3.58D-02
 ErrMax= 3.58D-02  0.00D+00 EMaxC= 1.00D-01 BMatC= 4.51D-01 BMatP= 4.51D-01
 IDIUse=3 WtCom= 6.42D-01 WtEn= 3.58D-01
 Coeff-Com:  0.100D+01
 Coeff-En:   0.100D+01
 Coeff:      0.100D+01
 Gap=     0.551 Goal=   None    Shift=    0.000
 GapD=    0.551 DampG=2.000 DampE=0.500 DampFc=1.0000 IDamp=-1.
 RMSDP=4.92D-03 MaxDP=1.77D-01              OVMax= 2.58D-01

 Cycle   2  Pass 1  IDiag  1:
 E= -370.589343157998     Delta-E=       -0.082691450341 Rises=F Damp=F
 DIIS: error= 3.69D-02 at cycle   2 NSaved=   2.
 NSaved= 2 IEnMin= 2 EnMin= -370.589343157998     IErMin= 1 ErrMin= 3.58D-02
 ErrMax= 3.69D-02  0.00D+00 EMaxC= 1.00D-01 BMatC= 1.92D-01 BMatP= 4.51D-01
 IDIUse=3 WtCom= 6.31D-01 WtEn= 3.69D-01
 Coeff-Com:  0.377D+00 0.623D+00
 Coeff-En:   0.349D+00 0.651D+00
 Coeff:      0.366D+00 0.634D+00
 Gap=     0.434 Goal=   None    Shift=    0.000
 RMSDP=2.28D-03 MaxDP=8.75D-02 DE=-8.27D-02 OVMax= 1.28D-01

 Cycle   3  Pass 1  IDiag  1:
 E= -370.721343441827     Delta-E=       -0.132000283830 Rises=F Damp=F
 DIIS: error= 8.02D-03 at cycle   3 NSaved=   3.
 NSaved= 3 IEnMin= 3 EnMin= -370.721343441827     IErMin= 3 ErrMin= 8.02D-03
 ErrMax= 8.02D-03  0.00D+00 EMaxC= 1.00D-01 BMatC= 1.11D-02 BMatP= 1.92D-01
 IDIUse=3 WtCom= 9.20D-01 WtEn= 8.02D-02
 Coeff-Com:  0.744D-02 0.187D+00 0.805D+00
 Coeff-En:   0.000D+00 0.000D+00 0.100D+01
 Coeff:      0.684D-02 0.172D+00 0.821D+00
 Gap=     0.325 Goal=   None    Shift=    0.000
 RMSDP=5.90D-04 MaxDP=2.41D-02 DE=-1.32D-01 OVMax= 3.32D-02

 Cycle   4  Pass 1  IDiag  1:
 E= -370.729247309428     Delta-E=       -0.007903867601 Rises=F Damp=F
 DIIS: error= 1.25D-03 at cycle   4 NSaved=   4.
 NSaved= 4 IEnMin= 4 EnMin= -370.729247309428     IErMin= 4 ErrMin= 1.25D-03
 ErrMax= 1.25D-03  0.00D+00 EMaxC= 1.00D-01 BMatC= 2.34D-04 BMatP= 1.11D-02
 IDIUse=3 WtCom= 9.87D-01 WtEn= 1.25D-02
 Coeff-Com: -0.143D-01-0.368D-02 0.128D+00 0.890D+00
 Coeff-En:   0.000D+00 0.000D+00 0.000D+00 0.100D+01
 Coeff:     -0.141D-01-0.363D-02 0.126D+00 0.891D+00
 Gap=     0.325 Goal=   None    Shift=    0.000
 RMSDP=1.50D-04 MaxDP=1.12D-02 DE=-7.90D-03 OVMax= 6.17D-03

 Cycle   5  Pass 1  IDiag  1:
 E= -370.729502860458     Delta-E=       -0.000255551029 Rises=F Damp=F
 DIIS: error= 3.23D-04 at cycle   5 NSaved=   5.
 NSaved= 5 IEnMin= 5 EnMin= -370.729502860458     IErMin= 5 ErrMin= 3.23D-04
 ErrMax= 3.23D-04  0.00D+00 EMaxC= 1.00D-01 BMatC= 1.48D-05 BMatP= 2.34D-04
 IDIUse=3 WtCom= 9.97D-01 WtEn= 3.23D-03
 Coeff-Com:  0.294D-02-0.127D-01-0.712D-01-0.105D+00 0.119D+01
 Coeff-En:   0.000D+00 0.000D+00 0.000D+00 0.000D+00 0.100D+01
 Coeff:      0.293D-02-0.127D-01-0.709D-01-0.105D+00 0.119D+01
 Gap=     0.324 Goal=   None    Shift=    0.000
 RMSDP=8.10D-05 MaxDP=3.30D-03 DE=-2.56D-04 OVMax= 3.71D-03

 Cycle   6  Pass 1  IDiag  1:
 E= -370.729547663717     Delta-E=       -0.000044803260 Rises=F Damp=F
 DIIS: error= 1.54D-04 at cycle   6 NSaved=   6.
 NSaved= 6 IEnMin= 6 EnMin= -370.729547663717     IErMin= 6 ErrMin= 1.54D-04
 ErrMax= 1.54D-04  0.00D+00 EMaxC= 1.00D-01 BMatC= 1.63D-06 BMatP= 1.48D-05
 IDIUse=3 WtCom= 9.98D-01 WtEn= 1.54D-03
 Coeff-Com: -0.279D-04 0.385D-02 0.140D-01-0.577D-01-0.310D+00 0.135D+01
 Coeff-En:   0.000D+00 0.000D+00 0.000D+00 0.000D+00 0.000D+00 0.100D+01
 Coeff:     -0.279D-04 0.384D-02 0.139D-01-0.576D-01-0.309D+00 0.135D+01
 Gap=     0.324 Goal=   None    Shift=    0.000
 RMSDP=3.28D-05 MaxDP=1.99D-03 DE=-4.48D-05 OVMax= 1.96D-03

 Cycle   7  Pass 1  IDiag  1:
 E= -370.729554783827     Delta-E=       -0.000007120110 Rises=F Damp=F
 DIIS: error= 3.89D-05 at cycle   7 NSaved=   7.
 NSaved= 7 IEnMin= 7 EnMin= -370.729554783827     IErMin= 7 ErrMin= 3.89D-05
 ErrMax= 3.89D-05  0.00D+00 EMaxC= 1.00D-01 BMatC= 1.61D-07 BMatP= 1.63D-06
 IDIUse=1 WtCom= 1.00D+00 WtEn= 0.00D+00
 Coeff-Com: -0.323D-03 0.534D-03 0.481D-02 0.249D-01-0.801D-01-0.229D+00
 Coeff-Com:  0.128D+01
 Coeff:     -0.323D-03 0.534D-03 0.481D-02 0.249D-01-0.801D-01-0.229D+00
 Coeff:      0.128D+01
 Gap=     0.324 Goal=   None    Shift=    0.000
 RMSDP=8.99D-06 MaxDP=3.64D-04 DE=-7.12D-06 OVMax= 6.18D-04

 Cycle   8  Pass 1  IDiag  1:
 E= -370.729555533125     Delta-E=       -0.000000749298 Rises=F Damp=F
 DIIS: error= 1.21D-05 at cycle   8 NSaved=   8.
 NSaved= 8 IEnMin= 8 EnMin= -370.729555533125     IErMin= 8 ErrMin= 1.21D-05
 ErrMax= 1.21D-05  0.00D+00 EMaxC= 1.00D-01 BMatC= 1.86D-08 BMatP= 1.61D-07
 IDIUse=1 WtCom= 1.00D+00 WtEn= 0.00D+00
 Coeff-Com:  0.798D-05-0.477D-03-0.117D-02 0.919D-02 0.291D-01-0.171D+00
 Coeff-Com:  0.101D+00 0.103D+01
 Coeff:      0.798D-05-0.477D-03-0.117D-02 0.919D-02 0.291D-01-0.171D+00
 Coeff:      0.101D+00 0.103D+01
 Gap=     0.324 Goal=   None    Shift=    0.000
 RMSDP=2.08D-06 MaxDP=5.59D-05 DE=-7.49D-07 OVMax= 1.73D-04

 Cycle   9  Pass 1  IDiag  1:
 E= -370.729555590421     Delta-E=       -0.000000057296 Rises=F Damp=F
 DIIS: error= 4.09D-06 at cycle   9 NSaved=   9.
 NSaved= 9 IEnMin= 9 EnMin= -370.729555590421     IErMin= 9 ErrMin= 4.09D-06
 ErrMax= 4.09D-06  0.00D+00 EMaxC= 1.00D-01 BMatC= 2.08D-09 BMatP= 1.86D-08
 IDIUse=1 WtCom= 1.00D+00 WtEn= 0.00D+00
 Coeff-Com:  0.176D-04 0.266D-04 0.493D-04-0.469D-02 0.595D-03 0.604D-01
 Coeff-Com: -0.158D+00-0.193D+00 0.129D+01
 Coeff:      0.176D-04 0.266D-04 0.493D-04-0.469D-02 0.595D-03 0.604D-01
 Coeff:     -0.158D+00-0.193D+00 0.129D+01
 Gap=     0.324 Goal=   None    Shift=    0.000
 RMSDP=8.89D-07 MaxDP=2.96D-05 DE=-5.73D-08 OVMax= 4.57D-05

 Cycle  10  Pass 1  IDiag  1:
 E= -370.729555596199     Delta-E=       -0.000000005778 Rises=F Damp=F
 DIIS: error= 7.82D-07 at cycle  10 NSaved=  10.
 NSaved=10 IEnMin=10 EnMin= -370.729555596199     IErMin=10 ErrMin= 7.82D-07
 ErrMax= 7.82D-07  0.00D+00 EMaxC= 1.00D-01 BMatC= 7.30D-11 BMatP= 2.08D-09
 IDIUse=1 WtCom= 1.00D+00 WtEn= 0.00D+00
 Coeff-Com: -0.369D-05 0.170D-04-0.137D-05 0.488D-03-0.119D-02-0.345D-02
 Coeff-Com:  0.274D-01-0.153D-01-0.277D+00 0.127D+01
 Coeff:     -0.369D-05 0.170D-04-0.137D-05 0.488D-03-0.119D-02-0.345D-02
 Coeff:      0.274D-01-0.153D-01-0.277D+00 0.127D+01
 Gap=     0.324 Goal=   None    Shift=    0.000
 RMSDP=1.71D-07 MaxDP=5.44D-06 DE=-5.78D-09 OVMax= 9.36D-06

 Cycle  11  Pass 1  IDiag  1:
 E= -370.729555596434     Delta-E=       -0.000000000235 Rises=F Damp=F
 DIIS: error= 2.10D-07 at cycle  11 NSaved=  11.
 NSaved=11 IEnMin=11 EnMin= -370.729555596434     IErMin=11 ErrMin= 2.10D-07
 ErrMax= 2.10D-07  0.00D+00 EMaxC= 1.00D-01 BMatC= 3.58D-12 BMatP= 7.30D-11
 IDIUse=1 WtCom= 1.00D+00 WtEn= 0.00D+00
 Coeff-Com: -0.252D-06-0.261D-05 0.104D-04 0.121D-03 0.149D-04-0.154D-02
 Coeff-Com:  0.180D-02 0.859D-02 0.437D-02-0.291D+00 0.128D+01
 Coeff:     -0.252D-06-0.261D-05 0.104D-04 0.121D-03 0.149D-04-0.154D-02
 Coeff:      0.180D-02 0.859D-02 0.437D-02-0.291D+00 0.128D+01
 Gap=     0.324 Goal=   None    Shift=    0.000
 RMSDP=3.31D-08 MaxDP=7.71D-07 DE=-2.35D-10 OVMax= 1.89D-06

 Cycle  12  Pass 1  IDiag  1:
 E= -370.729555596447     Delta-E=       -0.000000000012 Rises=F Damp=F
 DIIS: error= 5.22D-08 at cycle  12 NSaved=  12.
 NSaved=12 IEnMin=12 EnMin= -370.729555596447     IErMin=12 ErrMin= 5.22D-08
 ErrMax= 5.22D-08  0.00D+00 EMaxC= 1.00D-01 BMatC= 2.35D-13 BMatP= 3.58D-12
 IDIUse=1 WtCom= 1.00D+00 WtEn= 0.00D+00
 Coeff-Com:  0.270D-06-0.645D-06 0.244D-05-0.432D-04 0.487D-04 0.314D-03
 Coeff-Com: -0.179D-02 0.382D-03 0.184D-01-0.788D-01-0.232D-01 0.108D+01
 Coeff:      0.270D-06-0.645D-06 0.244D-05-0.432D-04 0.487D-04 0.314D-03
 Coeff:     -0.179D-02 0.382D-03 0.184D-01-0.788D-01-0.232D-01 0.108D+01
 Gap=     0.324 Goal=   None    Shift=    0.000
 RMSDP=1.07D-08 MaxDP=3.90D-07 DE=-1.23D-11 OVMax= 4.04D-07

 Cycle  13  Pass 1  IDiag  1:
 E= -370.729555596446     Delta-E=        0.000000000001 Rises=F Damp=F
 DIIS: error= 7.01D-09 at cycle  13 NSaved=  13.
 NSaved=13 IEnMin=12 EnMin= -370.729555596447     IErMin=13 ErrMin= 7.01D-09
 ErrMax= 7.01D-09  0.00D+00 EMaxC= 1.00D-01 BMatC= 1.16D-14 BMatP= 2.35D-13
 IDIUse=1 WtCom= 1.00D+00 WtEn= 0.00D+00
 Coeff-Com:  0.530D-07 0.414D-07-0.144D-05-0.852D-05 0.146D-04 0.599D-04
 Coeff-Com: -0.105D-03-0.434D-03-0.202D-03 0.174D-01-0.739D-01-0.297D-01
 Coeff-Com:  0.109D+01
 Coeff:      0.530D-07 0.414D-07-0.144D-05-0.852D-05 0.146D-04 0.599D-04
 Coeff:     -0.105D-03-0.434D-03-0.202D-03 0.174D-01-0.739D-01-0.297D-01
 Coeff:      0.109D+01
 Gap=     0.324 Goal=   None    Shift=    0.000
 RMSDP=3.54D-09 MaxDP=1.42D-07 DE= 9.09D-13 OVMax= 1.27D-07

 SCF Done:  E(RHF) =  -370.729555596     A.U. after   13 cycles
            NFock= 13  Conv=0.35D-08     -V/T= 2.9875
 KE= 1.865276791537D+02 PE=-9.086420675636D+02 EE= 3.036719621353D+02
 Leave Link  502 at Tue Oct 26 13:22:58 2021, MaxMem= 16106127360 cpu:              32.6 elap:               2.2
 (Enter /sw/contrib/gaussian/g16/B01/g16/l801.exe)
 ExpMin= 2.53D-02 ExpMax= 1.53D+04 ExpMxC= 5.22D+02 IAcc=3 IRadAn=         5 AccDes= 0.00D+00
 HarFok:  IExCor=  205 AccDes= 0.00D+00 IRadAn=         5 IDoV=-2 UseB2=F ITyADJ=14
 ICtDFT= 12500011 ScaDFX=  1.000000  1.000000  1.000000  1.000000
 Defaulting to unpruned grid for atomic number  53.
 Largest valence mixing into a core orbital is  1.31D-04
 Largest core mixing into a valence orbital is  2.45D-05
 Range of M.O.s used for correlation:     6   147
 NBasis=   147 NAE=    18 NBE=    18 NFC=     5 NFV=     0
 NROrb=    142 NOA=    13 NOB=    13 NVA=   129 NVB=   129

 **** Warning!!: The largest alpha MO coefficient is  0.18577321D+02

 Leave Link  801 at Tue Oct 26 13:22:58 2021, MaxMem= 16106127360 cpu:               1.9 elap:               0.1
 (Enter /sw/contrib/gaussian/g16/B01/g16/l906.exe)
 Frozen-core derivative calculation, NFC=   5 NFV=   0.
 FulOut=F Deriv=T AODrv=F NAtomX=     4
   MMem=         225  MDisk=          13 MDiskD=          13
  W3Min=      449820 MinDsk=      818995 NBas6D=         170
 NBas2D=       14925    NTT=       14535    LW2=    26219120
    MDV= 16105851463 MDiskM=      473642 NBas2p=       14925
 Fully in-core method, ICMem=   303093605.
 IMap=   1   2   3   4   5   6   7   8   9  10  11  12  13  14  15  16  17  18
 JobTyp=1 Pass  1 fully in-core, NPsUse= 28.
 Compute canonical integrals.
 FoFCou: FMM=F IPFlag=           0 FMFlag=           0 FMFlg1=           0
         NFxFlg=           0 DoJE=F BraDBF=F KetDBF=F FulRan=T
         wScrn=  0.000000 ICntrl=       600 IOpCl=  1 I1Cent=           0 NGrid=           0
         NMat0=    1 NMatS0=  14925 NMatT0=    0 NMatD0=    1 NMtDS0=    0 NMtDT0=    0
 Symmetry not used in FoFCou.
 Spin components of T(2) and E(2):
     alpha-alpha T2 =       0.2450025610D-01 E2=     -0.7162607115D-01
     alpha-beta  T2 =       0.1283131350D+00 E2=     -0.3805438770D+00
     beta-beta   T2 =       0.2450025610D-01 E2=     -0.7162607115D-01
 The integrals were generated   1 times.
 ANorm=    0.1085040850D+01
 E2 =    -0.5237960193D+00 EUMP2 =    -0.37125335161577D+03
 Leave Link  906 at Tue Oct 26 13:23:01 2021, MaxMem= 16106127360 cpu:              82.3 elap:               3.0
 (Enter /sw/contrib/gaussian/g16/B01/g16/l1002.exe)
 Minotr:  Closed shell wavefunction.
          Computing MP2/KS-MP2 derivatives.
          Using Z-Vector for PSCF gradient.
          Skipping F1 and S1 gradient terms here.
          Frozen-core window.
          Direct CPHF calculation.
          Differentiating once with respect to electric field.
                with respect to dipole field.
          Electric field/nuclear overlap derivatives assumed to be zero.
          Requested convergence is 1.0D-10 RMS, and 1.0D-09 maximum.
          NewPWx=F KeepS1=T KeepF1=T KeepIn=T MapXYZ=F SortEE=F KeepMc=T.
 Keep R1 ints in memory in canonical form, NReq=117071799.
 FoFCou: FMM=F IPFlag=           0 FMFlag=           0 FMFlg1=           0
         NFxFlg=           0 DoJE=F BraDBF=F KetDBF=F FulRan=T
         wScrn=  0.000000 ICntrl=       600 IOpCl=  0 I1Cent=           0 NGrid=           0
         NMat0=    1 NMatS0=  10878 NMatT0=    0 NMatD0=    1 NMtDS0=    0 NMtDT0=    0
 Symmetry not used in FoFCou.
 Two-electron integral symmetry not used.
          MDV=   16106127360 using IRadAn=       5.
          Solving linear equations separately, MaxMat=       0.
          There are     1 degrees of freedom in the 1st order CPHF.  IDoFFX=0 NUNeed=     1.
 LinEq1:  Iter=  0 NonCon=     1 RMS=4.09D-03 Max=9.01D-02 NDo=     1
 AX will form     1 AO Fock derivatives at one time.
 LinEq1:  Iter=  1 NonCon=     1 RMS=7.49D-04 Max=1.15D-02 NDo=     1
 LinEq1:  Iter=  2 NonCon=     1 RMS=3.04D-04 Max=4.48D-03 NDo=     1
 LinEq1:  Iter=  3 NonCon=     1 RMS=1.21D-04 Max=1.47D-03 NDo=     1
 LinEq1:  Iter=  4 NonCon=     1 RMS=5.89D-05 Max=9.59D-04 NDo=     1
 LinEq1:  Iter=  5 NonCon=     1 RMS=9.60D-06 Max=1.12D-04 NDo=     1
 LinEq1:  Iter=  6 NonCon=     1 RMS=2.08D-06 Max=2.09D-05 NDo=     1
 LinEq1:  Iter=  7 NonCon=     1 RMS=6.00D-07 Max=9.69D-06 NDo=     1
 LinEq1:  Iter=  8 NonCon=     1 RMS=1.75D-07 Max=2.06D-06 NDo=     1
 LinEq1:  Iter=  9 NonCon=     1 RMS=3.90D-08 Max=6.36D-07 NDo=     1
 LinEq1:  Iter= 10 NonCon=     1 RMS=7.55D-09 Max=9.72D-08 NDo=     1
 LinEq1:  Iter= 11 NonCon=     1 RMS=1.30D-09 Max=1.38D-08 NDo=     1
 LinEq1:  Iter= 12 NonCon=     1 RMS=3.25D-10 Max=4.12D-09 NDo=     1
 LinEq1:  Iter= 13 NonCon=     1 RMS=9.76D-11 Max=1.05D-09 NDo=     1
 LinEq1:  Iter= 14 NonCon=     0 RMS=1.63D-11 Max=1.24D-10 NDo=     1
 Linear equations converged to 1.000D-10 1.000D-09 after    14 iterations.
 End of Minotr F.D. properties file   721 does not exist.
 End of Minotr F.D. properties file   722 does not exist.
 End of Minotr F.D. properties file   788 does not exist.
 Leave Link 1002 at Tue Oct 26 13:23:05 2021, MaxMem= 16106127360 cpu:              58.6 elap:               3.4
 (Enter /sw/contrib/gaussian/g16/B01/g16/l601.exe)
 Copying SCF densities to generalized density rwf, IOpCl= 0 IROHF=0.

 **********************************************************************

            Population analysis using the MP2 Density.

 **********************************************************************

 Alpha  occ. eigenvalues --  -20.32956  -7.50887  -5.33601  -5.33339  -5.33334
 Alpha  occ. eigenvalues --   -2.06402  -2.06260  -2.06254  -2.05967  -2.05967
 Alpha  occ. eigenvalues --   -1.04964  -0.67488  -0.40151  -0.32305  -0.25396
 Alpha  occ. eigenvalues --   -0.17849  -0.17769  -0.17634
 Alpha virt. eigenvalues --    0.14784   0.16720   0.22503   0.23766   0.23959
 Alpha virt. eigenvalues --    0.28353   0.30240   0.31216   0.31594   0.34372
 Alpha virt. eigenvalues --    0.35783   0.35858   0.36217   0.38863   0.39563
 Alpha virt. eigenvalues --    0.44432   0.45799   0.46351   0.49423   0.55447
 Alpha virt. eigenvalues --    0.57644   0.62641   0.65824   0.70371   0.74746
 Alpha virt. eigenvalues --    0.74824   0.75847   0.76865   0.76965   0.78055
 Alpha virt. eigenvalues --    0.81543   0.82840   0.84074   0.85563   0.85591
 Alpha virt. eigenvalues --    0.86027   0.88168   0.92425   0.93154   0.94469
 Alpha virt. eigenvalues --    0.95634   1.00664   1.04623   1.09030   1.10112
 Alpha virt. eigenvalues --    1.12672   1.14589   1.14872   1.19103   1.22023
 Alpha virt. eigenvalues --    1.24062   1.25182   1.25889   1.37377   1.37698
 Alpha virt. eigenvalues --    1.50332   1.50372   1.51877   1.57116   1.68172
 Alpha virt. eigenvalues --    1.71632   1.71700   1.72089   1.72538   1.73427
 Alpha virt. eigenvalues --    1.75592   1.75882   1.82542   1.88299   1.91148
 Alpha virt. eigenvalues --    1.97677   2.01908   2.02352   2.02753   2.05755
 Alpha virt. eigenvalues --    2.11439   2.17309   2.34530   2.43306   2.51321
 Alpha virt. eigenvalues --    2.56753   2.57443   2.61644   2.63319   2.73434
 Alpha virt. eigenvalues --    2.78829   2.85980   2.87391   2.98323   3.02211
 Alpha virt. eigenvalues --    3.18894   3.41785   3.41835   3.61979   3.90892
 Alpha virt. eigenvalues --    4.13038   4.13873   4.31264   4.31956   4.39522
 Alpha virt. eigenvalues --    4.39529   4.43608   4.50997   4.54129   4.58962
 Alpha virt. eigenvalues --    4.60031   4.72406   4.83421   5.07876   5.19182
 Alpha virt. eigenvalues --    5.40404   5.52031   5.59556   5.91145   6.50887
 Alpha virt. eigenvalues --    6.92747   7.01600   7.07505   7.09655   7.43641
 Alpha virt. eigenvalues --    7.47502   7.51860   7.54545   7.55732   7.75846
 Alpha virt. eigenvalues --    7.84818   8.46816  14.49822  59.17794
          Condensed to atoms (all electrons):
               1          2          3          4
     1  O    8.432929   0.200444  -0.126006   0.194191
     2  H    0.200444   0.629277  -0.004367   0.029950
     3  I   -0.126006  -0.004367  25.670980  -0.005458
     4  H    0.194191   0.029950  -0.005458   0.689307
 Mulliken charges:
               1
     1  O   -0.701557
     2  H    0.144696
     3  I   -0.535149
     4  H    0.092010
 Sum of Mulliken charges =  -1.00000
 Mulliken charges with hydrogens summed into heavy atoms:
               1
     1  O   -0.464851
     3  I   -0.535149
 Electronic spatial extent (au):  <R**2>=           1227.1973
 Charge=             -1.0000 electrons
 Dipole moment (field-independent basis, Debye):
    X=              3.0685    Y=              9.3877    Z=              0.0000  Tot=              9.8764
 Quadrupole moment (field-independent basis, Debye-Ang):
   XX=            -40.1051   YY=            -75.8712   ZZ=            -41.2678
   XY=             -6.9431   XZ=              0.0000   YZ=              0.0000
 Traceless Quadrupole moment (field-independent basis, Debye-Ang):
   XX=             12.3096   YY=            -23.4565   ZZ=             11.1469
   XY=             -6.9431   XZ=              0.0000   YZ=              0.0000
 Octapole moment (field-independent basis, Debye-Ang**2):
  XXX=             69.7926  YYY=            451.5882  ZZZ=              0.0000  XYY=             46.7027
  XXY=            115.6980  XXZ=             -0.0000  XZZ=             22.3303  YZZ=            110.6555
  YYZ=             -0.0000  XYZ=             -0.0000
 Hexadecapole moment (field-independent basis, Debye-Ang**3):
 XXXX=           -168.5054 YYYY=          -2717.0297 ZZZZ=            -70.2239 XXXY=           -240.6584
 XXXZ=              0.0000 YYYX=           -314.2673 YYYZ=              0.0000 ZZZX=              0.0000
 ZZZY=             -0.0000 XXYY=           -434.2053 XXZZ=            -40.0127 YYZZ=           -401.8102
 XXYZ=              0.0000 YYXZ=              0.0000 ZZXY=            -79.1444
 N-N= 4.771287067809D+01 E-N=-9.080708445164D+02  KE= 1.867661267398D+02
 No NMR shielding tensors so no spin-rotation constants.
 Leave Link  601 at Tue Oct 26 13:23:05 2021, MaxMem= 16106127360 cpu:               4.1 elap:               0.2
 (Enter /sw/contrib/gaussian/g16/B01/g16/l607.exe)
 ******************************Gaussian NBO Version 3.1******************************
             N A T U R A L   A T O M I C   O R B I T A L   A N D
          N A T U R A L   B O N D   O R B I T A L   A N A L Y S I S
 ******************************Gaussian NBO Version 3.1******************************
       /RESON  / : Allow strongly delocalized NBO set

 Analyzing the MP2 density

 Job title: title                                                           

 Storage needed:     65577 in NPA,     86948 in NBO (********** available)
 GSVD:  LWork=         -15 too small for GESVD, short by       42345 words or       42345 for optimal perf.


 NATURAL POPULATIONS:  Natural atomic orbital occupancies 
                                                          
   NAO  Atom  No  lang   Type(AO)    Occupancy
 --------------------------------------------
     1    O    1  S      Cor( 1S)     1.99972
     2    O    1  S      Val( 2S)     1.81112
     3    O    1  S      Ryd( 3S)     0.00807
     4    O    1  S      Ryd( 4S)     0.00036
     5    O    1  S      Ryd( 5S)     0.00019
     6    O    1  px     Val( 2p)     1.51475
     7    O    1  px     Ryd( 3p)     0.01434
     8    O    1  px     Ryd( 4p)     0.00061
     9    O    1  px     Ryd( 5p)     0.00018
    10    O    1  py     Val( 2p)     1.69322
    11    O    1  py     Ryd( 3p)     0.01615
    12    O    1  py     Ryd( 4p)     0.00059
    13    O    1  py     Ryd( 5p)     0.00008
    14    O    1  pz     Val( 2p)     1.94916
    15    O    1  pz     Ryd( 3p)     0.02659
    16    O    1  pz     Ryd( 4p)     0.00058
    17    O    1  pz     Ryd( 5p)     0.00000
    18    O    1  dxy    Ryd( 3d)     0.00826
    19    O    1  dxy    Ryd( 4d)     0.00051
    20    O    1  dxy    Ryd( 5d)     0.00009
    21    O    1  dxz    Ryd( 3d)     0.00888
    22    O    1  dxz    Ryd( 4d)     0.00053
    23    O    1  dxz    Ryd( 5d)     0.00008
    24    O    1  dyz    Ryd( 3d)     0.00664
    25    O    1  dyz    Ryd( 4d)     0.00059
    26    O    1  dyz    Ryd( 5d)     0.00008
    27    O    1  dx2y2  Ryd( 3d)     0.01078
    28    O    1  dx2y2  Ryd( 4d)     0.00050
    29    O    1  dx2y2  Ryd( 5d)     0.00010
    30    O    1  dz2    Ryd( 3d)     0.00753
    31    O    1  dz2    Ryd( 4d)     0.00060
    32    O    1  dz2    Ryd( 5d)     0.00011
    33    O    1  f(0)   Ryd( 4f)     0.00060
    34    O    1  f(0)   Ryd( 5f)     0.00011
    35    O    1  f(C1)  Ryd( 4f)     0.00056
    36    O    1  f(C1)  Ryd( 5f)     0.00010
    37    O    1  f(S1)  Ryd( 4f)     0.00060
    38    O    1  f(S1)  Ryd( 5f)     0.00013
    39    O    1  f(C2)  Ryd( 4f)     0.00050
    40    O    1  f(C2)  Ryd( 5f)     0.00010
    41    O    1  f(S2)  Ryd( 4f)     0.00048
    42    O    1  f(S2)  Ryd( 5f)     0.00008
    43    O    1  f(C3)  Ryd( 4f)     0.00048
    44    O    1  f(C3)  Ryd( 5f)     0.00013
    45    O    1  f(S3)  Ryd( 4f)     0.00049
    46    O    1  f(S3)  Ryd( 5f)     0.00012

    47    H    2  S      Val( 1S)     0.56715
    48    H    2  S      Ryd( 2S)     0.00270
    49    H    2  S      Ryd( 3S)     0.00021
    50    H    2  S      Ryd( 4S)     0.00010
    51    H    2  px     Ryd( 2p)     0.00264
    52    H    2  px     Ryd( 3p)     0.00084
    53    H    2  px     Ryd( 4p)     0.00014
    54    H    2  py     Ryd( 2p)     0.00309
    55    H    2  py     Ryd( 3p)     0.00026
    56    H    2  py     Ryd( 4p)     0.00014
    57    H    2  pz     Ryd( 2p)     0.00539
    58    H    2  pz     Ryd( 3p)     0.00020
    59    H    2  pz     Ryd( 4p)     0.00005
    60    H    2  dxy    Ryd( 3d)     0.00007
    61    H    2  dxy    Ryd( 4d)     0.00005
    62    H    2  dxz    Ryd( 3d)     0.00008
    63    H    2  dxz    Ryd( 4d)     0.00007
    64    H    2  dyz    Ryd( 3d)     0.00013
    65    H    2  dyz    Ryd( 4d)     0.00005
    66    H    2  dx2y2  Ryd( 3d)     0.00011
    67    H    2  dx2y2  Ryd( 4d)     0.00006
    68    H    2  dz2    Ryd( 3d)     0.00013
    69    H    2  dz2    Ryd( 4d)     0.00007

    70    I    3  S      Cor( 4S)     1.99934
    71    I    3  S      Val( 5S)     1.93963
    72    I    3  S      Ryd( 6S)     0.00142
    73    I    3  S      Ryd( 7S)     0.00044
    74    I    3  S      Ryd( 8S)     0.00013
    75    I    3  S      Ryd( 9S)     0.00001
    76    I    3  px     Cor( 4p)     1.99990
    77    I    3  px     Val( 5p)     1.93900
    78    I    3  px     Ryd( 6p)     0.00979
    79    I    3  px     Ryd( 7p)     0.00069
    80    I    3  px     Ryd( 8p)     0.00008
    81    I    3  py     Cor( 4p)     1.99958
    82    I    3  py     Val( 5p)     1.65611
    83    I    3  py     Ryd( 6p)     0.00858
    84    I    3  py     Ryd( 7p)     0.00070
    85    I    3  py     Ryd( 8p)     0.00020
    86    I    3  pz     Cor( 4p)     1.99992
    87    I    3  pz     Val( 5p)     1.95224
    88    I    3  pz     Ryd( 6p)     0.00980
    89    I    3  pz     Ryd( 7p)     0.00067
    90    I    3  pz     Ryd( 8p)     0.00005
    91    I    3  dxy    Cor( 4d)     1.99667
    92    I    3  dxy    Ryd( 5d)     0.01911
    93    I    3  dxy    Ryd( 6d)     0.00118
    94    I    3  dxy    Ryd( 7d)     0.00024
    95    I    3  dxz    Cor( 4d)     1.99679
    96    I    3  dxz    Ryd( 5d)     0.01944
    97    I    3  dxz    Ryd( 6d)     0.00154
    98    I    3  dxz    Ryd( 7d)     0.00014
    99    I    3  dyz    Cor( 4d)     1.99674
   100    I    3  dyz    Ryd( 5d)     0.01898
   101    I    3  dyz    Ryd( 6d)     0.00117
   102    I    3  dyz    Ryd( 7d)     0.00024
   103    I    3  dx2y2  Cor( 4d)     1.99642
   104    I    3  dx2y2  Ryd( 5d)     0.01980
   105    I    3  dx2y2  Ryd( 6d)     0.00137
   106    I    3  dx2y2  Ryd( 7d)     0.00017
   107    I    3  dz2    Cor( 4d)     1.99665
   108    I    3  dz2    Ryd( 5d)     0.01967
   109    I    3  dz2    Ryd( 6d)     0.00150
   110    I    3  dz2    Ryd( 7d)     0.00014
   111    I    3  f(0)   Ryd( 4f)     0.00267
   112    I    3  f(0)   Ryd( 5f)     0.00040
   113    I    3  f(C1)  Ryd( 4f)     0.00272
   114    I    3  f(C1)  Ryd( 5f)     0.00040
   115    I    3  f(S1)  Ryd( 4f)     0.00282
   116    I    3  f(S1)  Ryd( 5f)     0.00041
   117    I    3  f(C2)  Ryd( 4f)     0.00263
   118    I    3  f(C2)  Ryd( 5f)     0.00040
   119    I    3  f(S2)  Ryd( 4f)     0.00268
   120    I    3  f(S2)  Ryd( 5f)     0.00040
   121    I    3  f(C3)  Ryd( 4f)     0.00267
   122    I    3  f(C3)  Ryd( 5f)     0.00040
   123    I    3  f(S3)  Ryd( 4f)     0.00279
   124    I    3  f(S3)  Ryd( 5f)     0.00041

   125    H    4  S      Val( 1S)     0.67918
   126    H    4  S      Ryd( 2S)     0.00546
   127    H    4  S      Ryd( 3S)     0.00043
   128    H    4  S      Ryd( 4S)     0.00021
   129    H    4  px     Ryd( 2p)     0.00449
   130    H    4  px     Ryd( 3p)     0.00040
   131    H    4  px     Ryd( 4p)     0.00006
   132    H    4  py     Ryd( 2p)     0.00409
   133    H    4  py     Ryd( 3p)     0.00142
   134    H    4  py     Ryd( 4p)     0.00015
   135    H    4  pz     Ryd( 2p)     0.00477
   136    H    4  pz     Ryd( 3p)     0.00032
   137    H    4  pz     Ryd( 4p)     0.00006
   138    H    4  dxy    Ryd( 3d)     0.00040
   139    H    4  dxy    Ryd( 4d)     0.00007
   140    H    4  dxz    Ryd( 3d)     0.00025
   141    H    4  dxz    Ryd( 4d)     0.00004
   142    H    4  dyz    Ryd( 3d)     0.00043
   143    H    4  dyz    Ryd( 4d)     0.00007
   144    H    4  dx2y2  Ryd( 3d)     0.00025
   145    H    4  dx2y2  Ryd( 4d)     0.00013
   146    H    4  dz2    Ryd( 3d)     0.00024
   147    H    4  dz2    Ryd( 4d)     0.00008

 [ 28 electrons found in the effective core potential]

 WARNING:  5 low occupancy (<1.9990e) core orbitals found on  I    3


 Summary of Natural Population Analysis:                  
                                                          
                                       Natural Population 
                Natural  -----------------------------------------------
    Atom  No    Charge         Core      Valence    Rydberg      Total
 -----------------------------------------------------------------------
      O    1   -1.08546      1.99972     6.96825    0.11749     9.08546
      H    2    0.41625      0.00000     0.56715    0.01660     0.58375
      I    3   -0.62802     45.98201     7.48698    0.15903    53.62802
      H    4    0.29700      0.00000     0.67918    0.02381     0.70300
 =======================================================================
   * Total *   -1.00022     47.98172    15.70157    0.31693    64.00022

                                 Natural Population      
 --------------------------------------------------------
   Effective Core            28.00000
   Core                      19.98172 ( 99.9086% of  20)
   Valence                   15.70157 ( 98.1348% of  16)
   Natural Minimal Basis     63.68329 ( 99.5051% of  64)
   Natural Rydberg Basis      0.31693 (  0.4952% of  64)
 --------------------------------------------------------

    Atom  No          Natural Electron Configuration
 ----------------------------------------------------------------------------
      O    1      [core]2S( 1.81)2p( 5.16)3S( 0.01)3p( 0.06)3d( 0.04)
      H    2            1S( 0.57)2p( 0.01)
      I    3      [core]5S( 1.94)5p( 5.55)4f( 0.02)5d( 0.10)6p( 0.03)6d( 0.01)
      H    4            1S( 0.68)2S( 0.01)2p( 0.01)


 NATURAL BOND ORBITAL ANALYSIS:
 Warning:  a bond orbital has occupanc of -0.00002
 Warning:  a bond orbital has occupanc of -0.00038

                       Occupancies       Lewis Structure    Low   High
           Occ.    -------------------  -----------------   occ   occ
  Cycle   Thresh.   Lewis   Non-Lewis     CR  BD  3C  LP    (L)   (NL)   Dev
 =============================================================================
   1(1)    1.90    63.30084   0.69916     10   2   0   6     1      1    0.44
 Warning:  a bond orbital has occupanc of -0.00002
 Warning:  a bond orbital has occupanc of -0.00038
   2(2)    1.90    63.34490   0.65510     10   2   0   6     1      1    0.38
 Warning:  a bond orbital has occupanc of -0.00002
 Warning:  a bond orbital has occupanc of -0.00038
   3(3)    1.90    63.30084   0.69916     10   2   0   6     1      1    0.44
 Warning:  a bond orbital has occupanc of -0.00002
 Warning:  a bond orbital has occupanc of -0.00038
   4(4)    1.90    63.34490   0.65510     10   2   0   6     1      1    0.38
 Warning:  a bond orbital has occupanc of -0.00002
 Warning:  a bond orbital has occupanc of -0.00038
   5(1)    1.80    63.34490   0.65510     10   2   0   6     1      1    0.38
 Warning:  a bond orbital has occupanc of -0.00002
 Warning:  a bond orbital has occupanc of -0.00038
   6(2)    1.80    63.30084   0.69916     10   2   0   6     1      1    0.44
 Warning:  a bond orbital has occupanc of -0.00002
 Warning:  a bond orbital has occupanc of -0.00038
   7(3)    1.80    63.34490   0.65510     10   2   0   6     1      1    0.38
 Warning:  a bond orbital has occupanc of -0.00002
 Warning:  a bond orbital has occupanc of -0.00038
   8(1)    1.70    63.34490   0.65510     10   2   0   6     1      1    0.38
 Warning:  a bond orbital has occupanc of -0.00002
 Warning:  a bond orbital has occupanc of -0.00038
   9(2)    1.70    63.30084   0.69916     10   2   0   6     1      1    0.44
 Warning:  a bond orbital has occupanc of -0.00002
 Warning:  a bond orbital has occupanc of -0.00038
  10(3)    1.70    63.34490   0.65510     10   2   0   6     1      1    0.38
 Warning:  a bond orbital has occupanc of -0.00002
 Warning:  a bond orbital has occupanc of -0.00038
  11(1)    1.60    63.00488   0.99512     10   1   0   7     0      1    0.44
 Warning:  a bond orbital has occupanc of -0.00002
 Warning:  a bond orbital has occupanc of -0.00038
  12(2)    1.60    63.00488   0.99512     10   1   0   7     0      1    0.44
 Warning:  a bond orbital has occupanc of -0.00002
 Warning:  a bond orbital has occupanc of -0.00038
  13(1)    1.50    63.00488   0.99512     10   1   0   7     0      1    0.44
 Warning:  a bond orbital has occupanc of -0.00002
 Warning:  a bond orbital has occupanc of -0.00038
  14(2)    1.50    63.00488   0.99512     10   1   0   7     0      1    0.44
 Warning:  a bond orbital has occupanc of -0.00002
 Warning:  a bond orbital has occupanc of -0.00038
  15(1)    1.90    63.34490   0.65510     10   2   0   6     1      1    0.38
 -----------------------------------------------------------------------------

 Structure accepted: RESONANCE keyword permits strongly delocalized structure

 WARNING:  5 low occupancy (<1.9990e) core orbitals found on  I    3

 --------------------------------------------------------
   Effective Core           28.00000
   Core                     19.98173 ( 99.909% of  20)
   Valence Lewis            15.36317 ( 96.020% of  16)
  ==================       ============================
   Total Lewis              63.34490 ( 98.976% of  64)
  -----------------------------------------------------
   Valence non-Lewis         0.36264 (  0.567% of  64)
   Rydberg non-Lewis         0.29246 (  0.457% of  64)
  ==================       ============================
   Total non-Lewis           0.65510 (  1.024% of  64)
 --------------------------------------------------------


       (Occupancy)   Bond orbital/ Coefficients/ Hybrids
 ---------------------------------------------------------------------------------
     1. (1.96149) BD ( 1) O   1 - H   2  
                ( 71.91%)   0.8480* O   1 s( 22.33%)p 3.46( 77.19%)d 0.02(  0.46%)
                                                  f 0.00(  0.01%)
                                            0.0003  0.4724 -0.0100 -0.0025 -0.0017
                                            0.8773 -0.0452 -0.0099 -0.0082 -0.0061
                                           -0.0033  0.0023 -0.0016  0.0000  0.0000
                                            0.0000  0.0000 -0.0111  0.0040 -0.0024
                                            0.0000  0.0000  0.0000  0.0000  0.0000
                                            0.0000  0.0575 -0.0059  0.0034 -0.0332
                                            0.0007  0.0005  0.0000  0.0000 -0.0093
                                            0.0001 -0.0004  0.0002  0.0000  0.0000
                                            0.0000  0.0000  0.0065  0.0030  0.0001
                                           -0.0000
                ( 28.09%)   0.5300* H   2 s( 99.81%)p 0.00(  0.19%)d 0.00(  0.00%)
                                            0.9990  0.0059  0.0002 -0.0003  0.0251
                                           -0.0348 -0.0040 -0.0068 -0.0002  0.0009
                                            0.0000  0.0000  0.0000  0.0002  0.0022
                                            0.0000  0.0000  0.0000  0.0000  0.0028
                                            0.0026 -0.0024 -0.0005
     2. (1.95021) BD ( 1) I   3 - H   4  
                ( 78.89%)   0.8882* I   3 s( 10.09%)p 8.89( 89.66%)d 0.02(  0.21%)
                                                  f 0.00(  0.03%)
                                            0.0003  0.3176 -0.0014 -0.0052  0.0014
                                            0.0010  0.0002  0.1946 -0.0035 -0.0019
                                            0.0009  0.0008  0.9265 -0.0168 -0.0076
                                            0.0017  0.0000  0.0000  0.0000  0.0000
                                            0.0000 -0.0000  0.0163  0.0008 -0.0012
                                            0.0000  0.0000  0.0000  0.0000  0.0000
                                            0.0000  0.0000  0.0000  0.0000 -0.0359
                                           -0.0019  0.0020  0.0000 -0.0234 -0.0015
                                            0.0011  0.0000  0.0000 -0.0023 -0.0003
                                           -0.0109 -0.0016  0.0000  0.0000  0.0000
                                            0.0000 -0.0081 -0.0009 -0.0114 -0.0012
                ( 21.11%)   0.4595* H   4 s( 99.79%)p 0.00(  0.18%)d 0.00(  0.03%)
                                            0.9989  0.0006 -0.0114  0.0036 -0.0040
                                           -0.0062 -0.0009 -0.0308 -0.0278 -0.0036
                                            0.0000  0.0000  0.0000  0.0032  0.0054
                                            0.0000  0.0000  0.0000  0.0000 -0.0066
                                           -0.0118 -0.0060 -0.0072
     3. (1.99972) CR ( 1) O   1           s(100.00%)p 0.00(  0.00%)
                                            1.0000 -0.0004  0.0000  0.0000  0.0000
                                           -0.0001  0.0000  0.0000  0.0000 -0.0001
                                           -0.0000 -0.0000 -0.0000  0.0000  0.0000
                                            0.0000  0.0000 -0.0000 -0.0000  0.0000
                                            0.0000  0.0000  0.0000  0.0000  0.0000
                                            0.0000 -0.0000  0.0000 -0.0000  0.0000
                                            0.0000 -0.0000  0.0000  0.0000  0.0000
                                            0.0000  0.0000 -0.0000  0.0000  0.0000
                                            0.0000  0.0000 -0.0000 -0.0000 -0.0000
                                            0.0000
     4. (1.99934) CR ( 1) I   3           s(100.00%)p 0.00(  0.00%)
                                            1.0000 -0.0006  0.0000  0.0000 -0.0000
                                           -0.0000 -0.0000 -0.0000  0.0000  0.0000
                                           -0.0000 -0.0000 -0.0001  0.0000  0.0000
                                           -0.0000  0.0000  0.0000  0.0000  0.0000
                                            0.0000  0.0000 -0.0000 -0.0000  0.0000
                                            0.0000  0.0000  0.0000  0.0000  0.0000
                                            0.0000  0.0000  0.0000 -0.0000  0.0000
                                            0.0000 -0.0000 -0.0000  0.0000  0.0000
                                           -0.0000  0.0000  0.0000  0.0000  0.0000
                                            0.0000  0.0000  0.0000  0.0000  0.0000
                                            0.0000  0.0000  0.0000  0.0000  0.0000
     5. (1.99990) CR ( 2) I   3           s(  0.00%)p 1.00(100.00%)
                                           -0.0000  0.0000  0.0000  0.0000  0.0000
                                           -0.0000  1.0000 -0.0007 -0.0000 -0.0000
                                            0.0000 -0.0000 -0.0001  0.0000  0.0000
                                           -0.0000  0.0000  0.0000  0.0000  0.0000
                                            0.0000  0.0000 -0.0000  0.0000  0.0000
                                            0.0000  0.0000  0.0000  0.0000  0.0000
                                            0.0000  0.0000  0.0000  0.0000  0.0000
                                            0.0000  0.0000  0.0000  0.0000  0.0000
                                            0.0000  0.0000  0.0000  0.0000  0.0000
                                            0.0000  0.0000  0.0000  0.0000  0.0000
                                            0.0000  0.0000  0.0000 -0.0000 -0.0000
     6. (1.99959) CR ( 3) I   3           s(  0.00%)p 1.00(100.00%)
                                           -0.0000  0.0001  0.0000  0.0000 -0.0000
                                           -0.0000 -0.0000 -0.0000  0.0000  0.0000
                                           -0.0000  1.0000 -0.0009  0.0000  0.0000
                                           -0.0000  0.0000  0.0000  0.0000  0.0000
                                            0.0000 -0.0000 -0.0000 -0.0000  0.0000
                                            0.0000  0.0000  0.0000  0.0000  0.0000
                                            0.0000  0.0000  0.0000  0.0000  0.0000
                                            0.0000 -0.0000  0.0000  0.0000  0.0000
                                           -0.0000  0.0000  0.0000  0.0000  0.0000
                                            0.0000  0.0000  0.0000  0.0000  0.0000
                                            0.0000  0.0000  0.0000  0.0000  0.0000
     7. (1.99991) CR ( 4) I   3           s(  0.00%)p 1.00(100.00%)
                                            0.0000  0.0000  0.0000  0.0000  0.0000
                                            0.0000  0.0000  0.0000  0.0000  0.0000
                                            0.0000  0.0000  0.0000  0.0000  0.0000
                                            0.0000  1.0000 -0.0007 -0.0000 -0.0000
                                            0.0000  0.0000  0.0000  0.0000  0.0000
                                            0.0000 -0.0000 -0.0000  0.0000  0.0000
                                           -0.0000  0.0000  0.0000  0.0000  0.0000
                                            0.0000  0.0000  0.0000  0.0000  0.0000
                                            0.0000  0.0000  0.0000  0.0000  0.0000
                                            0.0000  0.0000  0.0000  0.0000 -0.0000
                                           -0.0000  0.0000  0.0000  0.0000  0.0000
     8. (1.99667) CR ( 5) I   3           s(  0.00%)p 0.00(  0.00%)d 1.00(100.00%)
                                            0.0000  0.0001  0.0000  0.0000 -0.0000
                                           -0.0000  0.0000  0.0000  0.0000  0.0000
                                           -0.0000 -0.0000 -0.0000  0.0000 -0.0000
                                           -0.0000  0.0000  0.0000  0.0000  0.0000
                                            0.0000  1.0000  0.0000 -0.0000 -0.0000
                                            0.0000  0.0000  0.0000  0.0000  0.0000
                                            0.0000  0.0000  0.0000  0.0000  0.0000
                                           -0.0000 -0.0000  0.0000 -0.0000 -0.0000
                                           -0.0000  0.0000  0.0000 -0.0000 -0.0000
                                            0.0000 -0.0000  0.0000  0.0000  0.0000
                                            0.0000 -0.0000 -0.0000  0.0000  0.0000
     9. (1.99679) CR ( 6) I   3           s(  0.00%)p 0.00(  0.00%)d 1.00(100.00%)
                                            0.0000  0.0000  0.0000  0.0000  0.0000
                                            0.0000  0.0000  0.0000  0.0000  0.0000
                                            0.0000  0.0000  0.0000  0.0000  0.0000
                                            0.0000  0.0000  0.0000  0.0000  0.0000
                                           -0.0000  0.0000  0.0000  0.0000  0.0000
                                            1.0000  0.0000  0.0000 -0.0000 -0.0000
                                            0.0000 -0.0000 -0.0000  0.0000  0.0000
                                            0.0000  0.0000  0.0000  0.0000  0.0000
                                            0.0000 -0.0000 -0.0000  0.0000  0.0000
                                            0.0000  0.0000 -0.0000 -0.0000  0.0000
                                            0.0000  0.0000  0.0000  0.0000  0.0000
    10. (1.99674) CR ( 7) I   3           s(  0.00%)p 0.00(  0.00%)d 1.00(100.00%)
                                            0.0000  0.0000  0.0000  0.0000  0.0000
                                            0.0000  0.0000  0.0000  0.0000  0.0000
                                            0.0000  0.0000  0.0000  0.0000  0.0000
                                            0.0000  0.0000  0.0001  0.0000  0.0000
                                           -0.0000  0.0000  0.0000  0.0000  0.0000
                                           -0.0000  0.0000  0.0000 -0.0000  1.0000
                                            0.0000 -0.0000 -0.0000  0.0000  0.0000
                                            0.0000  0.0000  0.0000  0.0000  0.0000
                                            0.0000 -0.0000 -0.0000  0.0000  0.0000
                                            0.0000  0.0000 -0.0000 -0.0000  0.0000
                                            0.0000  0.0000  0.0000  0.0000  0.0000
    11. (1.99642) CR ( 8) I   3           s(  0.00%)p 0.00(  0.00%)d 1.00(100.00%)
                                            0.0000  0.0001  0.0000  0.0000 -0.0000
                                           -0.0000 -0.0000 -0.0000 -0.0000 -0.0000
                                            0.0000 -0.0000 -0.0000  0.0000  0.0000
                                           -0.0000 -0.0000 -0.0000 -0.0000 -0.0000
                                           -0.0000 -0.0000 -0.0000  0.0000  0.0000
                                           -0.0000 -0.0000 -0.0000 -0.0000 -0.0000
                                           -0.0000 -0.0000 -0.0000 -1.0000  0.0000
                                            0.0000  0.0000  0.0000  0.0000  0.0000
                                            0.0000 -0.0000 -0.0000  0.0000  0.0000
                                            0.0000 -0.0000 -0.0000 -0.0000 -0.0000
                                           -0.0000  0.0000  0.0000  0.0000 -0.0000
    12. (1.99665) CR ( 9) I   3           s(  0.00%)p 0.00(  0.00%)d 1.00(100.00%)
                                           -0.0000 -0.0001 -0.0000 -0.0000  0.0000
                                            0.0000  0.0000  0.0000 -0.0000 -0.0000
                                            0.0000  0.0000  0.0000 -0.0000 -0.0000
                                            0.0000  0.0000  0.0000  0.0000  0.0000
                                            0.0000  0.0000  0.0000 -0.0000  0.0000
                                            0.0000  0.0000  0.0000  0.0000  0.0000
                                            0.0000  0.0000  0.0000 -0.0000 -0.0000
                                           -0.0000  0.0000  1.0000 -0.0000  0.0000
                                            0.0000  0.0000  0.0000 -0.0000  0.0000
                                           -0.0000  0.0000  0.0000  0.0000  0.0000
                                            0.0000 -0.0000  0.0000 -0.0000 -0.0000
    13. (1.96794) LP ( 1) O   1           s( 66.13%)p 0.51( 33.81%)d 0.00(  0.06%)
                                                  f 0.00(  0.00%)
                                            0.0003  0.8132  0.0009  0.0004  0.0001
                                           -0.4340  0.0009 -0.0025  0.0025  0.3869
                                            0.0041  0.0021  0.0022  0.0000  0.0000
                                            0.0000  0.0000  0.0204 -0.0031 -0.0005
                                            0.0000  0.0000  0.0000  0.0000  0.0000
                                            0.0000 -0.0071  0.0014 -0.0007  0.0089
                                           -0.0019  0.0015  0.0000  0.0000  0.0026
                                           -0.0008 -0.0010  0.0001  0.0000  0.0000
                                            0.0000  0.0000 -0.0001 -0.0012  0.0021
                                           -0.0004
    14. (1.95362) LP ( 2) O   1           s(  0.00%)p 1.00( 99.83%)d 0.00(  0.16%)
                                                  f 0.00(  0.01%)
                                            0.0000  0.0000  0.0000  0.0000  0.0000
                                            0.0000  0.0000  0.0000  0.0000  0.0000
                                            0.0000  0.0000  0.0000  0.9989  0.0237
                                            0.0045  0.0069  0.0000  0.0000  0.0000
                                            0.0372 -0.0034 -0.0018 -0.0136  0.0020
                                            0.0010  0.0000  0.0000  0.0000  0.0000
                                            0.0000  0.0000 -0.0078  0.0026  0.0000
                                            0.0000  0.0000  0.0000  0.0028  0.0003
                                            0.0012 -0.0004  0.0000  0.0000  0.0000
                                            0.0000
    15. (1.64909) LP ( 3) O   1           s( 11.49%)p 7.69( 88.32%)d 0.02(  0.18%)
                                                  f 0.00(  0.01%)
                                           -0.0000  0.3388  0.0098  0.0015  0.0017
                                           -0.1871  0.0108  0.0010  0.0020 -0.9209
                                           -0.0102 -0.0000  0.0015 -0.0000 -0.0000
                                           -0.0000 -0.0000 -0.0234  0.0028 -0.0005
                                           -0.0000 -0.0000 -0.0000 -0.0000 -0.0000
                                           -0.0000 -0.0305  0.0061 -0.0011 -0.0163
                                            0.0038  0.0003 -0.0000 -0.0000  0.0013
                                            0.0001  0.0075 -0.0031 -0.0000 -0.0000
                                           -0.0000 -0.0000  0.0021 -0.0010 -0.0008
                                           -0.0014
    16. (1.97603) LP ( 1) I   3           s( 89.90%)p 0.11( 10.10%)d 0.00(  0.00%)
                                                  f 0.00(  0.00%)
                                            0.0005  0.9482  0.0005  0.0015 -0.0007
                                           -0.0002 -0.0001 -0.0654  0.0010  0.0001
                                           -0.0001 -0.0004 -0.3109  0.0041  0.0003
                                           -0.0004  0.0000  0.0000  0.0000  0.0000
                                            0.0000 -0.0001 -0.0017  0.0001  0.0002
                                            0.0000  0.0000  0.0000  0.0000  0.0000
                                            0.0000  0.0000  0.0000  0.0001  0.0039
                                            0.0001 -0.0002  0.0001  0.0024  0.0000
                                           -0.0001  0.0000  0.0000  0.0002 -0.0000
                                            0.0009  0.0000  0.0000  0.0000  0.0000
                                            0.0000  0.0007 -0.0000  0.0010  0.0000
    17. (1.95250) LP ( 2) I   3           s(  0.00%)p 1.00( 99.99%)d 0.00(  0.01%)
                                                  f 0.00(  0.00%)
                                            0.0000  0.0000  0.0000  0.0000  0.0000
                                            0.0000  0.0000  0.0000  0.0000  0.0000
                                            0.0000  0.0000  0.0000  0.0000  0.0000
                                            0.0000  0.0007  0.9999  0.0050  0.0023
                                           -0.0002  0.0000  0.0000  0.0000  0.0000
                                           -0.0000  0.0019  0.0002 -0.0003 -0.0001
                                            0.0036 -0.0024 -0.0060  0.0000  0.0000
                                            0.0000  0.0000  0.0000  0.0000  0.0000
                                            0.0000 -0.0038 -0.0018  0.0000  0.0000
                                            0.0000  0.0000 -0.0041 -0.0016  0.0020
                                            0.0010  0.0000  0.0000  0.0000  0.0000
    18. (1.95228) LP ( 3) I   3           s(  0.00%)p 1.00( 99.99%)d 0.00(  0.01%)
                                                  f 0.00(  0.00%)
                                           -0.0000  0.0001 -0.0000  0.0013 -0.0010
                                           -0.0001  0.0007  0.9786  0.0059  0.0028
                                           -0.0008 -0.0001 -0.2055 -0.0007 -0.0000
                                           -0.0003  0.0000  0.0000  0.0000  0.0000
                                            0.0000 -0.0001  0.0040 -0.0022 -0.0054
                                            0.0000  0.0000  0.0000  0.0000  0.0000
                                            0.0000  0.0000  0.0000 -0.0000  0.0035
                                           -0.0001 -0.0015  0.0000 -0.0004 -0.0004
                                           -0.0007  0.0000  0.0000 -0.0016 -0.0008
                                            0.0003  0.0001  0.0000  0.0000  0.0000
                                            0.0000 -0.0043 -0.0016  0.0035  0.0015
    19. (0.02574) RY*( 1) O   1           s(  0.00%)p 1.00( 99.06%)d 0.01(  0.92%)
                                                  f 0.00(  0.02%)
                                            0.0000  0.0000  0.0000  0.0000  0.0000
                                            0.0000  0.0000  0.0000  0.0000  0.0000
                                            0.0000  0.0000  0.0000 -0.0270  0.9942
                                           -0.0262 -0.0266  0.0000  0.0000  0.0000
                                            0.0774 -0.0186  0.0074 -0.0489  0.0178
                                           -0.0101  0.0000  0.0000  0.0000  0.0000
                                            0.0000  0.0000 -0.0095  0.0109  0.0000
                                            0.0000  0.0000  0.0000 -0.0010  0.0003
                                            0.0001 -0.0015  0.0000  0.0000  0.0000
                                            0.0000
    20. (0.01941) RY*( 2) O   1           s( 15.53%)p 5.31( 82.48%)d 0.13(  1.96%)
                                                  f 0.00(  0.03%)
                                            0.0000 -0.0061  0.3938  0.0042 -0.0121
                                           -0.0090 -0.4514  0.0055  0.0200 -0.0135
                                            0.7875 -0.0114 -0.0078  0.0000  0.0000
                                            0.0000  0.0000  0.1349 -0.0268  0.0111
                                            0.0000  0.0000  0.0000  0.0000  0.0000
                                            0.0000 -0.0151  0.0009  0.0019  0.0128
                                           -0.0115  0.0048  0.0000  0.0000  0.0007
                                           -0.0013 -0.0014  0.0050  0.0000  0.0000
                                            0.0000  0.0000  0.0132 -0.0075  0.0087
                                           -0.0028
    21. (0.01106) RY*( 3) O   1           s( 12.79%)p 6.63( 84.78%)d 0.17(  2.12%)
                                                  f 0.02(  0.30%)
                                            0.0000 -0.0135  0.3562 -0.0142  0.0259
                                           -0.0338 -0.7164  0.0159  0.0339  0.0039
                                           -0.5740 -0.0179 -0.0473 -0.0000 -0.0000
                                           -0.0000 -0.0000 -0.0922 -0.0151  0.0075
                                           -0.0000 -0.0000 -0.0000 -0.0000 -0.0000
                                           -0.0000  0.0876  0.0595 -0.0260 -0.0005
                                            0.0202 -0.0102 -0.0000 -0.0000 -0.0039
                                            0.0007  0.0219 -0.0226 -0.0000 -0.0000
                                           -0.0000 -0.0000  0.0306 -0.0273  0.0118
                                           -0.0149
    22. (0.00668) RY*( 4) O   1           s( 27.56%)p 0.31(  8.43%)d 2.30( 63.30%)
                                                  f 0.03(  0.71%)
                                           -0.0000  0.0144  0.5247  0.0077 -0.0067
                                            0.0421  0.2826 -0.0073 -0.0051  0.0366
                                           -0.0048 -0.0200 -0.0291 -0.0000 -0.0000
                                           -0.0000 -0.0000 -0.6104 -0.0157  0.0025
                                           -0.0000 -0.0000 -0.0000 -0.0000 -0.0000
                                           -0.0000 -0.5008  0.0048 -0.0073  0.0912
                                            0.0274 -0.0148 -0.0000 -0.0000  0.0148
                                           -0.0025  0.0436 -0.0321 -0.0000 -0.0000
                                           -0.0000 -0.0000 -0.0561  0.0234 -0.0086
                                           -0.0133
    23. (0.00639) RY*( 5) O   1           s(  0.00%)p 1.00(  0.03%)d99.99( 99.04%)
                                                  f34.50(  0.94%)
                                            0.0000  0.0000  0.0000  0.0000  0.0000
                                            0.0000  0.0000  0.0000  0.0000  0.0000
                                            0.0000  0.0000  0.0000 -0.0089 -0.0018
                                           -0.0134 -0.0029  0.0000  0.0000  0.0000
                                            0.5413  0.0336 -0.0104  0.8330  0.0472
                                           -0.0033  0.0000  0.0000  0.0000  0.0000
                                            0.0000  0.0000  0.0027 -0.0099  0.0000
                                            0.0000  0.0000  0.0000  0.0811 -0.0502
                                            0.0120  0.0005  0.0000  0.0000  0.0000
                                            0.0000
    24. (0.00608) RY*( 6) O   1           s(  0.00%)p 1.00(  0.97%)d99.99( 98.07%)
                                                  f 1.00(  0.97%)
                                            0.0000  0.0000  0.0000  0.0000  0.0000
                                            0.0000  0.0000  0.0000  0.0000  0.0000
                                            0.0000  0.0000  0.0000 -0.0365 -0.0898
                                            0.0143  0.0070  0.0000  0.0000  0.0000
                                            0.8246  0.0714 -0.0289 -0.5408 -0.0457
                                            0.0095  0.0000  0.0000  0.0000  0.0000
                                            0.0000  0.0000 -0.0690  0.0375  0.0000
                                            0.0000  0.0000  0.0000  0.0425 -0.0169
                                           -0.0345  0.0153  0.0000  0.0000  0.0000
                                            0.0000
    25. (0.00597) RY*( 7) O   1           s(  4.08%)p 0.65(  2.66%)d22.74( 92.68%)
                                                  f 0.14(  0.58%)
                                           -0.0000  0.0121  0.2009 -0.0158 -0.0017
                                            0.0244  0.1487 -0.0129  0.0005 -0.0246
                                           -0.0551  0.0077 -0.0081  0.0000  0.0000
                                            0.0000  0.0000  0.1839  0.0131 -0.0020
                                            0.0000  0.0000  0.0000  0.0000  0.0000
                                            0.0000  0.2379  0.0160 -0.0030  0.9099
                                            0.0861 -0.0244  0.0000  0.0000  0.0474
                                           -0.0227 -0.0448  0.0283  0.0000  0.0000
                                            0.0000  0.0000  0.0025  0.0022 -0.0084
                                            0.0105
    26. (0.00584) RY*( 8) O   1           s(  9.41%)p 0.74(  6.92%)d 8.68( 81.62%)
                                                  f 0.22(  2.05%)
                                           -0.0000  0.0036  0.3065  0.0084 -0.0047
                                            0.0468  0.1613 -0.0222  0.0016 -0.0003
                                           -0.1963 -0.0124 -0.0432  0.0000  0.0000
                                            0.0000  0.0000  0.7404  0.0203  0.0034
                                            0.0000  0.0000  0.0000  0.0000  0.0000
                                            0.0000 -0.5014  0.0159 -0.0076 -0.1261
                                            0.0073 -0.0051  0.0000  0.0000  0.0374
                                           -0.0256  0.0291 -0.0306  0.0000  0.0000
                                            0.0000  0.0000  0.0194 -0.0266  0.1077
                                           -0.0627
    27. (0.00254) RY*( 9) O   1           s( 28.59%)p 0.53( 15.16%)d 1.93( 55.14%)
                                                  f 0.04(  1.11%)
                                            0.0000 -0.0054  0.5324 -0.0468 -0.0116
                                           -0.0252  0.3838  0.0252 -0.0107 -0.0018
                                           -0.0404  0.0116 -0.0344  0.0000  0.0000
                                            0.0000  0.0000  0.0533  0.0084 -0.0078
                                            0.0000  0.0000  0.0000  0.0000  0.0000
                                            0.0000  0.6311  0.1328  0.0398 -0.3491
                                           -0.0935 -0.0196  0.0000  0.0000 -0.0366
                                            0.0475  0.0090 -0.0065  0.0000  0.0000
                                            0.0000  0.0000  0.0582 -0.0617 -0.0117
                                            0.0009
    28. (0.00063) RY*(10) O   1           s( 14.19%)p 5.50( 78.08%)d 0.48(  6.88%)
                                                  f 0.06(  0.84%)
                                            0.0000 -0.0040  0.0274  0.3434 -0.1524
                                           -0.0034 -0.0240 -0.1370 -0.0369  0.0015
                                           -0.0050  0.8710  0.0378  0.0000  0.0000
                                            0.0000  0.0000 -0.0080  0.2538 -0.0406
                                            0.0000  0.0000  0.0000  0.0000  0.0000
                                            0.0000 -0.0010  0.0258 -0.0088 -0.0070
                                            0.0373  0.0225  0.0000  0.0000  0.0059
                                            0.0058  0.0855 -0.0039  0.0000  0.0000
                                            0.0000  0.0000 -0.0155  0.0038 -0.0124
                                            0.0251
    29. (0.00058) RY*(11) O   1           s(  0.00%)p 1.00( 47.99%)d 1.01( 48.35%)
                                                  f 0.08(  3.66%)
                                            0.0000  0.0000  0.0000  0.0000  0.0000
                                            0.0000  0.0000  0.0000  0.0000  0.0000
                                            0.0000  0.0000  0.0000  0.0012  0.0376
                                            0.6804 -0.1250  0.0000  0.0000  0.0000
                                           -0.0358  0.3035 -0.0167  0.0417 -0.6226
                                            0.0214  0.0000  0.0000  0.0000  0.0000
                                            0.0000  0.0000  0.0794 -0.0142  0.0000
                                            0.0000  0.0000  0.0000  0.1327 -0.0016
                                            0.1117 -0.0013  0.0000  0.0000  0.0000
                                            0.0000
    30. (0.00059) RY*(12) O   1           s(  4.21%)p 0.06(  0.26%)d22.11( 93.01%)
                                                  f 0.60(  2.52%)
                                           -0.0000  0.0010  0.0335  0.1754 -0.1008
                                            0.0006 -0.0113  0.0007 -0.0143 -0.0067
                                           -0.0429 -0.0158 -0.0120 -0.0000 -0.0000
                                           -0.0000 -0.0000 -0.0103 -0.0635 -0.0136
[...]
                                            0.0000  0.0000  0.0000  0.0570 -0.0162
                                            0.0000  0.0000  0.0000  0.0000  0.0024
                                            0.0156  0.0147  0.0044
   125. (0.00486) RY*( 2) H   4           s(  0.00%)p 1.00( 98.41%)d 0.02(  1.59%)
                                            0.0000  0.0000  0.0000  0.0000  0.0000
                                            0.0000  0.0000  0.0000  0.0000  0.0000
                                            0.9907  0.0427 -0.0286  0.0000  0.0000
                                           -0.0190  0.0104 -0.1158  0.0450  0.0000
                                            0.0000  0.0000  0.0000
   126. (0.00437) RY*( 3) H   4           s( 28.98%)p 2.39( 69.36%)d 0.06(  1.66%)
                                            0.0183  0.5267  0.0939 -0.0571  0.7714
                                            0.0477 -0.0084  0.2289  0.2031  0.0506
                                            0.0000  0.0000  0.0000 -0.1204 -0.0023
                                            0.0000  0.0000  0.0000  0.0000 -0.0045
                                            0.0337  0.0055  0.0294
   127. (0.00400) RY*( 4) H   4           s(  2.72%)p35.48( 96.54%)d 0.27(  0.74%)
                                           -0.0262  0.0189  0.1088  0.1197  0.2413
                                            0.0124 -0.0359 -0.9480  0.0669 -0.0502
                                           -0.0000 -0.0000 -0.0000 -0.0487  0.0064
                                           -0.0000 -0.0000 -0.0000 -0.0000 -0.0592
                                            0.0009 -0.0378  0.0030
   128. (0.00217) RY*( 5) H   4           s( 17.01%)p 4.81( 81.86%)d 0.07(  1.13%)
                                            0.0312 -0.0978  0.3923 -0.0758 -0.2322
                                            0.1535  0.0299  0.0230  0.8549  0.0934
                                            0.0000  0.0000  0.0000  0.0381 -0.0421
                                            0.0000  0.0000  0.0000  0.0000  0.0521
                                            0.0568  0.0353  0.0299
   129. (0.00041) RY*( 6) H   4           s(  0.53%)p99.99( 66.11%)d62.62( 33.36%)
                                            0.0012 -0.0377  0.0559  0.0279 -0.0851
                                            0.7621 -0.1974  0.0326 -0.1502  0.1022
                                            0.0000  0.0000  0.0000 -0.5173 -0.0074
                                            0.0000  0.0000  0.0000  0.0000 -0.2505
                                           -0.0394 -0.0393 -0.0089
   130. (0.00041) RY*( 7) H   4           s(  0.00%)p 1.00( 24.58%)d 3.07( 75.42%)
                                            0.0000  0.0000  0.0000  0.0000  0.0000
                                            0.0000  0.0000  0.0000  0.0000  0.0000
                                            0.1242 -0.4256  0.2219  0.0000  0.0000
                                            0.1311  0.0323  0.8558  0.0599  0.0000
                                            0.0000  0.0000  0.0000
   131. (0.00032) RY*( 8) H   4           s(  1.73%)p19.13( 33.13%)d37.63( 65.14%)
                                           -0.0008  0.0016  0.0929  0.0931  0.1054
                                            0.5435  0.0487 -0.0056 -0.1480  0.0214
                                            0.0000  0.0000  0.0000  0.6486  0.0513
                                            0.0000  0.0000  0.0000  0.0000  0.4070
                                           -0.0333 -0.2411  0.0562
   132. (0.00030) RY*( 9) H   4           s(  0.00%)p 1.00( 76.13%)d 0.31( 23.87%)
                                            0.0000  0.0000  0.0000  0.0000  0.0000
                                            0.0000  0.0000  0.0000  0.0000  0.0000
                                            0.0135  0.8721 -0.0245  0.0000  0.0000
                                            0.2829 -0.0438  0.3958  0.0086  0.0000
                                            0.0000  0.0000  0.0000
   133. (0.00026) RY*(10) H   4           s(  0.00%)p 1.00(  4.39%)d21.80( 95.61%)
                                            0.0000  0.0000  0.0000  0.0000  0.0000
                                            0.0000  0.0000  0.0000  0.0000  0.0000
                                            0.0006 -0.2073 -0.0295  0.0000  0.0000
                                            0.9104 -0.2742 -0.2266  0.0283  0.0000
                                            0.0000  0.0000  0.0000
   134. (0.00025) RY*(11) H   4           s(  1.78%)p 3.10(  5.51%)d52.14( 92.71%)
                                           -0.0007  0.0005  0.0661  0.1158  0.0595
                                            0.1370  0.0590  0.0023 -0.0633  0.1590
                                           -0.0000 -0.0000 -0.0000  0.3950 -0.0255
                                           -0.0000 -0.0000 -0.0000 -0.0000 -0.4444
                                            0.0517  0.7089 -0.2603
   135. (0.00022) RY*(12) H   4           s( 10.21%)p 3.33( 33.99%)d 5.47( 55.80%)
                                            0.0083 -0.0311  0.2373 -0.2115  0.0078
                                            0.0769 -0.1425 -0.0135 -0.1466 -0.5403
                                            0.0000  0.0000  0.0000 -0.1531 -0.1350
                                            0.0000  0.0000  0.0000  0.0000  0.4419
                                            0.2536  0.4953  0.1074
   136. (0.00014) RY*(13) H   4           s( 83.40%)p 0.06(  4.66%)d 0.14( 11.94%)
                                            0.0029  0.0133  0.3430  0.8462 -0.0250
                                           -0.1377  0.0215  0.1194 -0.0752  0.0815
                                            0.0000  0.0000  0.0000 -0.1974  0.0610
                                            0.0000  0.0000  0.0000  0.0000  0.2431
                                           -0.0914  0.0891 -0.0367
   137. (0.00010) RY*(14) H   4           s( 71.65%)p 0.23( 16.53%)d 0.16( 11.82%)
   138. (0.00006) RY*(15) H   4           s(  0.00%)p 1.00(  4.81%)d19.81( 95.19%)
   139. (0.00006) RY*(16) H   4           s(  2.79%)p22.70( 63.33%)d12.14( 33.88%)
   140. (0.00005) RY*(17) H   4           s(  1.62%)p 0.88(  1.43%)d59.67( 96.95%)
   141. (0.00003) RY*(18) H   4           s(  0.00%)p 1.00( 89.95%)d 0.11( 10.05%)
   142. (0.00003) RY*(19) H   4           s(  0.04%)p99.99( 94.78%)d99.99(  5.18%)
   143. (0.00003) RY*(20) H   4           s(  5.45%)p 0.43(  2.32%)d16.92( 92.23%)
   144. (0.00002) RY*(21) H   4           s(  0.00%)p 1.00(  1.74%)d56.53( 98.26%)
   145. (0.00002) RY*(22) H   4           s(  1.27%)p 1.33(  1.69%)d76.63( 97.04%)
   146. (0.02393) BD*( 1) O   1 - H   2  
                ( 28.09%)   0.5300* O   1 s( 22.33%)p 3.46( 77.19%)d 0.02(  0.46%)
                                                  f 0.00(  0.01%)
                                           -0.0003 -0.4724  0.0100  0.0025  0.0017
                                           -0.8773  0.0452  0.0099  0.0082  0.0061
                                            0.0033 -0.0023  0.0016 -0.0000 -0.0000
                                           -0.0000 -0.0000  0.0111 -0.0040  0.0024
                                           -0.0000 -0.0000 -0.0000 -0.0000 -0.0000
                                           -0.0000 -0.0575  0.0059 -0.0034  0.0332
                                           -0.0007 -0.0005 -0.0000 -0.0000  0.0093
                                           -0.0001  0.0004 -0.0002 -0.0000 -0.0000
                                           -0.0000 -0.0000 -0.0065 -0.0030 -0.0001
                                            0.0000
                ( 71.91%)  -0.8480* H   2 s( 99.81%)p 0.00(  0.19%)d 0.00(  0.00%)
                                           -0.9990 -0.0059 -0.0002  0.0003 -0.0251
                                            0.0348  0.0040  0.0068  0.0002 -0.0009
                                           -0.0000 -0.0000 -0.0000 -0.0002 -0.0022
                                           -0.0000 -0.0000 -0.0000 -0.0000 -0.0028
                                           -0.0026  0.0024  0.0005
   147. (0.33871) BD*( 1) I   3 - H   4  
                ( 21.11%)   0.4595* I   3 s( 10.09%)p 8.89( 89.66%)d 0.02(  0.21%)
                                                  f 0.00(  0.03%)
                                           -0.0003 -0.3176  0.0014  0.0052 -0.0014
                                           -0.0010 -0.0002 -0.1946  0.0035  0.0019
                                           -0.0009 -0.0008 -0.9265  0.0168  0.0076
                                           -0.0017 -0.0000 -0.0000 -0.0000 -0.0000
                                           -0.0000  0.0000 -0.0163 -0.0008  0.0012
                                           -0.0000 -0.0000 -0.0000 -0.0000 -0.0000
                                           -0.0000 -0.0000 -0.0000 -0.0000  0.0359
                                            0.0019 -0.0020 -0.0000  0.0234  0.0015
                                           -0.0011 -0.0000 -0.0000  0.0023  0.0003
                                            0.0109  0.0016 -0.0000 -0.0000 -0.0000
                                           -0.0000  0.0081  0.0009  0.0114  0.0012
                ( 78.89%)  -0.8882* H   4 s( 99.79%)p 0.00(  0.18%)d 0.00(  0.03%)
                                           -0.9989 -0.0006  0.0114 -0.0036  0.0040
                                            0.0062  0.0009  0.0308  0.0278  0.0036
                                           -0.0000 -0.0000 -0.0000 -0.0032 -0.0054
                                           -0.0000 -0.0000 -0.0000 -0.0000  0.0066
                                            0.0118  0.0060  0.0072


 NHO Directionality and "Bond Bending" (deviations from line of nuclear centers)

         [Thresholds for printing:  angular deviation  >  1.0 degree]
                                    hybrid p-character > 25.0%
                                    orbital occupancy  >  0.10e

                                Line of Centers        Hybrid 1              Hybrid 2
                                ---------------  -------------------   ------------------
                NBO               Theta   Phi    Theta   Phi    Dev    Theta   Phi    Dev
 ========================================================================================
    13. LP (   1) O   1             --     --     90.0  137.6   --       --     --    --
    14. LP (   2) O   1             --     --      0.0    0.0   --       --     --    --
    15. LP (   3) O   1             --     --     90.0  259.4   --       --     --    --
    17. LP (   2) I   3             --     --      0.0    0.0   --       --     --    --
    18. LP (   3) I   3             --     --     90.0  348.2   --       --     --    --


 Natural Bond Orbitals (Summary):

           NBO                  Occupancy  
 -----------------------------------------------
 Molecular unit  1  (HO)
     1. BD (   1) O   1 - H   2          1.96149
     3. CR (   1) O   1                  1.99972
    13. LP (   1) O   1                  1.96794
    14. LP (   2) O   1                  1.95362
    15. LP (   3) O   1                  1.64909
    19. RY*(   1) O   1                  0.02574
    20. RY*(   2) O   1                  0.01941
    21. RY*(   3) O   1                  0.01106
    22. RY*(   4) O   1                  0.00668
    23. RY*(   5) O   1                  0.00639
    24. RY*(   6) O   1                  0.00608
    25. RY*(   7) O   1                  0.00597
    26. RY*(   8) O   1                  0.00584
    27. RY*(   9) O   1                  0.00254
    28. RY*(  10) O   1                  0.00063
    29. RY*(  11) O   1                  0.00058
    30. RY*(  12) O   1                  0.00059
    31. RY*(  13) O   1                  0.00055
    32. RY*(  14) O   1                  0.00049
    33. RY*(  15) O   1                  0.00048
    34. RY*(  16) O   1                  0.00047
    35. RY*(  17) O   1                  0.00047
    36. RY*(  18) O   1                  0.00047
    37. RY*(  19) O   1                  0.00045
    38. RY*(  20) O   1                  0.00042
    39. RY*(  21) O   1                  0.00043
    40. RY*(  22) O   1                  0.00042
    41. RY*(  23) O   1                  0.00037
    42. RY*(  24) O   1                  0.00032
    43. RY*(  25) O   1                  0.00023
    44. RY*(  26) O   1                  0.00015
    45. RY*(  27) O   1                  0.00008
    46. RY*(  28) O   1                  0.00008
    47. RY*(  29) O   1                  0.00009
    48. RY*(  30) O   1                  0.00009
    49. RY*(  31) O   1                  0.00008
    50. RY*(  32) O   1                  0.00008
    51. RY*(  33) O   1                  0.00009
    52. RY*(  34) O   1                  0.00007
    53. RY*(  35) O   1                  0.00007
    54. RY*(  36) O   1                  0.00006
    55. RY*(  37) O   1                  0.00006
    56. RY*(  38) O   1                  0.00003
    57. RY*(  39) O   1                  0.00002
    58. RY*(  40) O   1                 -0.00002
    59. RY*(  41) O   1                 -0.00038
    60. RY*(   1) H   2                  0.00546
    61. RY*(   2) H   2                  0.00335
    62. RY*(   3) H   2                  0.00299
    63. RY*(   4) H   2                  0.00190
    64. RY*(   5) H   2                  0.00031
    65. RY*(   6) H   2                  0.00021
    66. RY*(   7) H   2                  0.00021
    67. RY*(   8) H   2                  0.00016
    68. RY*(   9) H   2                  0.00013
    69. RY*(  10) H   2                  0.00011
    70. RY*(  11) H   2                  0.00012
    71. RY*(  12) H   2                  0.00012
    72. RY*(  13) H   2                  0.00007
    73. RY*(  14) H   2                  0.00007
    74. RY*(  15) H   2                  0.00005
    75. RY*(  16) H   2                  0.00005
    76. RY*(  17) H   2                  0.00004
    77. RY*(  18) H   2                  0.00004
    78. RY*(  19) H   2                  0.00002
    79. RY*(  20) H   2                  0.00001
    80. RY*(  21) H   2                  0.00002
    81. RY*(  22) H   2                  0.00002
   146. BD*(   1) O   1 - H   2          0.02393
       -------------------------------
              Total Lewis    9.53187  ( 98.5819%)
        Valence non-Lewis    0.02393  (  0.2475%)
        Rydberg non-Lewis    0.11318  (  1.1706%)
       -------------------------------
            Total unit  1    9.66899  (100.0000%)
           Charge unit  1   -0.66899

 Molecular unit  2  (HI)
     2. BD (   1) I   3 - H   4          1.95021
     4. CR (   1) I   3                  1.99934
     5. CR (   2) I   3                  1.99990
     6. CR (   3) I   3                  1.99959
     7. CR (   4) I   3                  1.99991
     8. CR (   5) I   3                  1.99667
     9. CR (   6) I   3                  1.99679
    10. CR (   7) I   3                  1.99674
    11. CR (   8) I   3                  1.99642
    12. CR (   9) I   3                  1.99665
    16. LP (   1) I   3                  1.97603
    17. LP (   2) I   3                  1.95250
    18. LP (   3) I   3                  1.95228
    82. RY*(   1) I   3                  0.01944
    83. RY*(   2) I   3                  0.01945
    84. RY*(   3) I   3                  0.01897
    85. RY*(   4) I   3                  0.01894
    86. RY*(   5) I   3                  0.01866
    87. RY*(   6) I   3                  0.00979
    88. RY*(   7) I   3                  0.00975
    89. RY*(   8) I   3                  0.00774
    90. RY*(   9) I   3                  0.00273
    91. RY*(  10) I   3                  0.00273
    92. RY*(  11) I   3                  0.00269
    93. RY*(  12) I   3                  0.00269
    94. RY*(  13) I   3                  0.00260
    95. RY*(  14) I   3                  0.00260
    96. RY*(  15) I   3                  0.00261
    97. RY*(  16) I   3                  0.00194
    98. RY*(  17) I   3                  0.00156
    99. RY*(  18) I   3                  0.00156
   100. RY*(  19) I   3                  0.00114
   101. RY*(  20) I   3                  0.00112
   102. RY*(  21) I   3                  0.00096
   103. RY*(  22) I   3                  0.00067
   104. RY*(  23) I   3                  0.00066
   105. RY*(  24) I   3                  0.00054
   106. RY*(  25) I   3                  0.00040
   107. RY*(  26) I   3                  0.00039
   108. RY*(  27) I   3                  0.00039
   109. RY*(  28) I   3                  0.00040
   110. RY*(  29) I   3                  0.00038
   111. RY*(  30) I   3                  0.00033
   112. RY*(  31) I   3                  0.00033
   113. RY*(  32) I   3                  0.00026
   114. RY*(  33) I   3                  0.00013
   115. RY*(  34) I   3                  0.00013
   116. RY*(  35) I   3                  0.00011
   117. RY*(  36) I   3                  0.00011
   118. RY*(  37) I   3                  0.00011
   119. RY*(  38) I   3                  0.00007
   120. RY*(  39) I   3                  0.00005
   121. RY*(  40) I   3                  0.00005
   122. RY*(  41) I   3                  0.00004
   123. RY*(  42) I   3                  0.00001
   124. RY*(   1) H   4                  0.00596
   125. RY*(   2) H   4                  0.00486
   126. RY*(   3) H   4                  0.00437
   127. RY*(   4) H   4                  0.00400
   128. RY*(   5) H   4                  0.00217
   129. RY*(   6) H   4                  0.00041
   130. RY*(   7) H   4                  0.00041
   131. RY*(   8) H   4                  0.00032
   132. RY*(   9) H   4                  0.00030
   133. RY*(  10) H   4                  0.00026
   134. RY*(  11) H   4                  0.00025
   135. RY*(  12) H   4                  0.00022
   136. RY*(  13) H   4                  0.00014
   137. RY*(  14) H   4                  0.00010
   138. RY*(  15) H   4                  0.00006
   139. RY*(  16) H   4                  0.00006
   140. RY*(  17) H   4                  0.00005
   141. RY*(  18) H   4                  0.00003
   142. RY*(  19) H   4                  0.00003
   143. RY*(  20) H   4                  0.00003
   144. RY*(  21) H   4                  0.00002
   145. RY*(  22) H   4                  0.00002
   147. BD*(   1) I   3 - H   4          0.33871
       -------------------------------
              Total Lewis   53.81303  ( 99.0466%)
        Valence non-Lewis    0.33871  (  0.6234%)
        Rydberg non-Lewis    0.17928  (  0.3300%)
       -------------------------------
            Total unit  2   54.33101  (100.0000%)
           Charge unit  2   -0.33101
 Leave Link  607 at Tue Oct 26 13:23:07 2021, MaxMem= 16106127360 cpu:              76.6 elap:               2.8
 (Enter /sw/contrib/gaussian/g16/B01/g16/l9999.exe)
 1\1\GINC-N2097\SP\RMP2-FC\Gen\H2I1O1(1-)\CGAVINH\26-Oct-2021\0\\#p pop
 =NBO SP NoSymm mp2/gen Pseudo=read density=current\\title\\-1,1\O\X,1,
 10.\H,1,0.96090774,2,90.\I,1,3.50850138,2,90.,3,101.85832019,0\H,1,1.5
 ,2,90.,3,101.85832019,0\\Version=ES64L-G16RevB.01\HF=-370.7295556\MP2=
 -371.2533516\RMSD=3.537e-09\Dipole=0.2692961,-1.0205886,0.\Quadrupole=
 9.1518911,-17.4393526,8.2874616,-5.1620365,0.,0.\PG=CS [SG(H2I1O1)]\\@


 Democracy is the recurrent suspicion that more than half of the people
 are right more than half of the time.
 -- E. B. White
 Job cpu time:       0 days  0 hours  4 minutes 39.1 seconds.
 Elapsed time:       0 days  0 hours  0 minutes 12.7 seconds.
 File lengths (MBytes):  RWF=     11 Int=      0 D2E=      0 Chk=      8 Scr=      1
 Normal termination of Gaussian 16 at Tue Oct 26 13:23:08 2021.
