title                                                                   
SP        RMP2-FC                                                     Gen                 
Number of atoms                            I                4
Info1-9                                    I   N=           9
         144         135           0           0           0         110
           1           2           1
Charge                                     I               -1
Multiplicity                               I                1
Number of electrons                        I               36
Number of alpha electrons                  I               18
Number of beta electrons                   I               18
Number of basis functions                  I              191
Number of independent functions            I              147
Number of point charges in /Mol/           I                0
Number of translation vectors              I                0
Atomic numbers                             I   N=           4
           8           1          53           1
Nuclear charges                            R   N=           4
  8.00000000E+00  1.00000000E+00  2.50000000E+01  1.00000000E+00
Current cartesian coordinates              R   N=          12
  0.00000000E+00  0.00000000E+00  0.00000000E+00  1.81585239E+00  0.00000000E+00
  0.00000000E+00 -1.36243524E+00 -6.48861632E+00  0.00000000E+00 -4.85404671E-01
 -2.31174634E+00  0.00000000E+00
Force Field                                I                0
Int Atom Types                             I   N=           4
           0           0           0           0
MM charges                                 R   N=           4
  0.00000000E+00  0.00000000E+00  0.00000000E+00  0.00000000E+00
Integer atomic weights                     I   N=           4
          16           2         127           1
Real atomic weights                        R   N=           4
  1.59949146E+01  2.01410179E+00  1.26900400E+02  1.00782504E+00
Atom fragment info                         I   N=           4
           0           0           0           0
Atom residue num                           I   N=           4
           0           0           0           0
Nuclear spins                              I   N=           4
           0           2           5           1
Nuclear ZEff                               R   N=           4
 -5.60000000E+00 -1.00000000E+00 -5.83000000E+03 -1.00000000E+00
Nuclear ZNuc                               R   N=           4
  8.00000000E+00  1.00000000E+00  5.30000000E+01  1.00000000E+00
Nuclear QMom                               R   N=           4
  0.00000000E+00  2.86000000E-01 -7.10000000E+01  0.00000000E+00
Nuclear GFac                               R   N=           4
  0.00000000E+00  8.57438000E-01  2.81328000E+00  2.79284600E+00
MicOpt                                     I   N=           4
          -1          -1          -1          -1
Number of contracted shells                I               65
Number of primitive shells                 I              119
Pure/Cartesian d shells                    I                0
Pure/Cartesian f shells                    I                0
Highest angular momentum                   I                3
Largest degree of contraction              I                9
Shell types                                I   N=          65
           0           0           0           0           0           1
           1           1           1          -2          -2          -2
          -3          -3           0           0           0           0
           0           0           0           1           1           1
           1           1           1          -2          -2          -2
          -2           0           0           0           0           0
           0           1           1           1           1           1
          -2          -2          -2          -2          -3          -3
           0           0           0           0           0           0
           0           1           1           1           1           1
           1          -2          -2          -2          -2
Number of primitives per shell             I   N=          65
           7           6           1           1           1           3
           1           1           1           1           1           1
           1           1           3           1           1           1
           1           1           1           1           1           1
           1           1           1           1           1           1
           1           9           8           1           1           1
           1           8           8           1           1           1
           9           1           1           1           1           1
           3           1           1           1           1           1
           1           1           1           1           1           1
           1           1           1           1           1
Shell to atom map                          I   N=          65
           1           1           1           1           1           1
           1           1           1           1           1           1
           1           1           2           2           2           2
           2           2           2           2           2           2
           2           2           2           2           2           2
           2           3           3           3           3           3
           3           3           3           3           3           3
           3           3           3           3           3           3
           4           4           4           4           4           4
           4           4           4           4           4           4
           4           4           4           4           4
Primitive exponents                        R   N=         119
  1.53300000E+04  2.29900000E+03  5.22400000E+02  1.47300000E+02  4.75500000E+01
  1.67600000E+01  6.20700000E+00  5.22400000E+02  1.47300000E+02  4.75500000E+01
  1.67600000E+01  6.20700000E+00  6.88200000E-01  1.75200000E+00  2.38400000E-01
  7.37600000E-02  3.44600000E+01  7.74900000E+00  2.28000000E+00  7.15600000E-01
  2.14000000E-01  5.97400000E-02  2.31400000E+00  6.45000000E-01  2.14000000E-01
  1.42800000E+00  5.00000000E-01  3.38700000E+01  5.09500000E+00  1.15900000E+00
  3.25800000E-01  1.02700000E-01  2.52600000E-02  3.25800000E-01  1.02700000E-01
  2.52600000E-02  1.40700000E+00  3.88000000E-01  1.02000000E-01  1.40700000E+00
  3.88000000E-01  1.02000000E-01  1.05700000E+00  2.47000000E-01  1.05700000E+00
  2.47000000E-01  5.54650000E+03  8.38214000E+02  1.82187000E+02  3.12123000E+01
  1.95314000E+01  8.24099000E+00  2.19455000E+00  1.10911000E+00  8.10610000E-02
  5.54650000E+03  8.38214000E+02  3.12123000E+01  1.95314000E+01  8.24099000E+00
  2.19455000E+00  1.10911000E+00  8.10610000E-02  3.74641000E-01  1.77080000E-01
  1.00100000E-01  4.12000000E-02  1.88988000E+02  2.12868000E+01  1.00396000E+01
  3.45180000E+00  1.97456000E+00  1.02420000E+00  4.49437000E-01  7.34810000E-02
  1.88988000E+02  1.00396000E+01  3.45180000E+00  1.97456000E+00  1.02420000E+00
  4.49437000E-01  1.86648000E-01  7.34810000E-02  5.98100000E-01  9.61800000E-02
  3.59000000E-02  1.32662000E+02  3.76054000E+01  1.03891000E+01  6.49017000E+00
  3.45451000E+00  1.84413000E+00  9.62478000E-01  4.72853000E-01  1.93200000E-01
  4.72853000E-01  1.93200000E-01  7.82000000E-02  4.06400000E-01  1.84800000E-01
  3.38700000E+01  5.09500000E+00  1.15900000E+00  3.25800000E-01  1.02700000E-01
  2.52600000E-02  3.25800000E-01  1.02700000E-01  2.52600000E-02  1.40700000E+00
  3.88000000E-01  1.02000000E-01  1.40700000E+00  3.88000000E-01  1.02000000E-01
  1.05700000E+00  2.47000000E-01  1.05700000E+00  2.47000000E-01
Contraction coefficients                   R   N=         119
  5.19808943E-04  4.02025621E-03  2.07128267E-02  8.10105536E-02  2.35962985E-01
  4.42653446E-01  3.57064423E-01 -4.42115008E-05 -1.22591041E-03 -1.05517725E-02
 -6.74452633E-02 -1.71198607E-01  1.07329856E+00  1.00000000E+00  1.00000000E+00
  1.00000000E+00  4.11634896E-02  2.57762836E-01  8.02419274E-01  1.00000000E+00
  1.00000000E+00  1.00000000E+00  1.00000000E+00  1.00000000E+00  1.00000000E+00
  1.00000000E+00  1.00000000E+00  2.54948632E-02  1.90362766E-01  8.52162022E-01
  1.00000000E+00  1.00000000E+00  1.00000000E+00  1.00000000E+00  1.00000000E+00
  1.00000000E+00  1.00000000E+00  1.00000000E+00  1.00000000E+00  1.00000000E+00
  1.00000000E+00  1.00000000E+00  1.00000000E+00  1.00000000E+00  1.00000000E+00
  1.00000000E+00  1.58603022E-04  1.00211458E-03  2.83966410E-03 -4.40310212E-02
  2.38198152E-01 -7.63568980E-01  8.96516870E-01  4.68371203E-01  2.16251781E-03
 -2.17177846E-05 -2.59237305E-04 -1.50376554E-02  2.42214079E-02  6.99888661E-02
 -5.50491335E-01 -5.69654432E-01  3.76065139E-01  1.00000000E+00  1.00000000E+00
  1.00000000E+00  1.00000000E+00  5.85232173E-04  3.69335916E-02 -2.35399435E-01
  3.41625365E-01  5.34991615E-01  2.65244797E-01  2.54463150E-02  3.82802808E-04
 -6.76097015E-05  8.33123161E-03 -4.66496478E-02 -5.27406452E-02 -2.91398344E-02
  3.65650039E-01  5.48502805E-01  2.34644635E-01  1.00000000E+00  1.00000000E+00
  1.00000000E+00  5.72000072E-04  4.40200055E-03 -4.09220051E-02  9.96610125E-02
  3.22663040E-01  4.00343050E-01  2.68306034E-01  8.48470106E-02  7.63200096E-03
  1.00000000E+00  1.00000000E+00  1.00000000E+00  1.00000000E+00  1.00000000E+00
  2.54948632E-02  1.90362766E-01  8.52162022E-01  1.00000000E+00  1.00000000E+00
  1.00000000E+00  1.00000000E+00  1.00000000E+00  1.00000000E+00  1.00000000E+00
  1.00000000E+00  1.00000000E+00  1.00000000E+00  1.00000000E+00  1.00000000E+00
  1.00000000E+00  1.00000000E+00  1.00000000E+00  1.00000000E+00
Coordinates of each shell                  R   N=         195
  0.00000000E+00  0.00000000E+00  0.00000000E+00  0.00000000E+00  0.00000000E+00
  0.00000000E+00  0.00000000E+00  0.00000000E+00  0.00000000E+00  0.00000000E+00
  0.00000000E+00  0.00000000E+00  0.00000000E+00  0.00000000E+00  0.00000000E+00
  0.00000000E+00  0.00000000E+00  0.00000000E+00  0.00000000E+00  0.00000000E+00
  0.00000000E+00  0.00000000E+00  0.00000000E+00  0.00000000E+00  0.00000000E+00
  0.00000000E+00  0.00000000E+00  0.00000000E+00  0.00000000E+00  0.00000000E+00
  0.00000000E+00  0.00000000E+00  0.00000000E+00  0.00000000E+00  0.00000000E+00
  0.00000000E+00  0.00000000E+00  0.00000000E+00  0.00000000E+00  0.00000000E+00
  0.00000000E+00  0.00000000E+00  1.81585239E+00  0.00000000E+00  0.00000000E+00
  1.81585239E+00  0.00000000E+00  0.00000000E+00  1.81585239E+00  0.00000000E+00
  0.00000000E+00  1.81585239E+00  0.00000000E+00  0.00000000E+00  1.81585239E+00
  0.00000000E+00  0.00000000E+00  1.81585239E+00  0.00000000E+00  0.00000000E+00
  1.81585239E+00  0.00000000E+00  0.00000000E+00  1.81585239E+00  0.00000000E+00
  0.00000000E+00  1.81585239E+00  0.00000000E+00  0.00000000E+00  1.81585239E+00
  0.00000000E+00  0.00000000E+00  1.81585239E+00  0.00000000E+00  0.00000000E+00
  1.81585239E+00  0.00000000E+00  0.00000000E+00  1.81585239E+00  0.00000000E+00
  0.00000000E+00  1.81585239E+00  0.00000000E+00  0.00000000E+00  1.81585239E+00
  0.00000000E+00  0.00000000E+00  1.81585239E+00  0.00000000E+00  0.00000000E+00
  1.81585239E+00  0.00000000E+00  0.00000000E+00 -1.36243524E+00 -6.48861632E+00
  0.00000000E+00 -1.36243524E+00 -6.48861632E+00  0.00000000E+00 -1.36243524E+00
 -6.48861632E+00  0.00000000E+00 -1.36243524E+00 -6.48861632E+00  0.00000000E+00
 -1.36243524E+00 -6.48861632E+00  0.00000000E+00 -1.36243524E+00 -6.48861632E+00
  0.00000000E+00 -1.36243524E+00 -6.48861632E+00  0.00000000E+00 -1.36243524E+00
 -6.48861632E+00  0.00000000E+00 -1.36243524E+00 -6.48861632E+00  0.00000000E+00
 -1.36243524E+00 -6.48861632E+00  0.00000000E+00 -1.36243524E+00 -6.48861632E+00
  0.00000000E+00 -1.36243524E+00 -6.48861632E+00  0.00000000E+00 -1.36243524E+00
 -6.48861632E+00  0.00000000E+00 -1.36243524E+00 -6.48861632E+00  0.00000000E+00
 -1.36243524E+00 -6.48861632E+00  0.00000000E+00 -1.36243524E+00 -6.48861632E+00
  0.00000000E+00 -1.36243524E+00 -6.48861632E+00  0.00000000E+00 -4.85404671E-01
 -2.31174634E+00  0.00000000E+00 -4.85404671E-01 -2.31174634E+00  0.00000000E+00
 -4.85404671E-01 -2.31174634E+00  0.00000000E+00 -4.85404671E-01 -2.31174634E+00
  0.00000000E+00 -4.85404671E-01 -2.31174634E+00  0.00000000E+00 -4.85404671E-01
 -2.31174634E+00  0.00000000E+00 -4.85404671E-01 -2.31174634E+00  0.00000000E+00
 -4.85404671E-01 -2.31174634E+00  0.00000000E+00 -4.85404671E-01 -2.31174634E+00
  0.00000000E+00 -4.85404671E-01 -2.31174634E+00  0.00000000E+00 -4.85404671E-01
 -2.31174634E+00  0.00000000E+00 -4.85404671E-01 -2.31174634E+00  0.00000000E+00
 -4.85404671E-01 -2.31174634E+00  0.00000000E+00 -4.85404671E-01 -2.31174634E+00
  0.00000000E+00 -4.85404671E-01 -2.31174634E+00  0.00000000E+00 -4.85404671E-01
 -2.31174634E+00  0.00000000E+00 -4.85404671E-01 -2.31174634E+00  0.00000000E+00
Constraint Structure                       R   N=          12
  0.00000000E+00  0.00000000E+00  0.00000000E+00  1.81585239E+00  0.00000000E+00
  0.00000000E+00 -1.36243524E+00 -6.48861632E+00  0.00000000E+00 -4.85404671E-01
 -2.31174634E+00  0.00000000E+00
Num ILSW                                   I              100
ILSW                                       I   N=         100
           0           0           0           0           2           0
           0           0           0           0           0          -1
           0           0           0           0           0           0
           0           0           0           0           0           0
           1           1           0           0           0           0
           0           0      100000           0          -1           0
           0           0           0           0           0           0
           0           0           0           1           0           0
           0           0           1           0           0           0
           0           0           4          41           0           0
           0           0           0           0           0           0
           0           0           0           4           0           0
           0           0           0           0           0           0
           0           0           0           0           0           0
           0           0           0           0           0           0
           0           0           0           0           0           0
           0           0           0           0
Num RLSW                                   I               41
RLSW                                       R   N=          41
  1.00000000E+00  1.00000000E+00  1.00000000E+00  1.00000000E+00  1.00000000E+00
  0.00000000E+00  0.00000000E+00  1.00000000E+00  0.00000000E+00  0.00000000E+00
  0.00000000E+00  0.00000000E+00  1.00000000E+00  0.00000000E+00  0.00000000E+00
  0.00000000E+00  0.00000000E+00  1.00000000E+00  0.00000000E+00  0.00000000E+00
  0.00000000E+00  0.00000000E+00  1.00000000E+00  0.00000000E+00  0.00000000E+00
  0.00000000E+00  0.00000000E+00  1.00000000E+00  0.00000000E+00  0.00000000E+00
  0.00000000E+00  0.00000000E+00  1.00000000E+00  0.00000000E+00  0.00000000E+00
  0.00000000E+00  0.00000000E+00  0.00000000E+00  1.00000000E+00  1.00000000E+00
  0.00000000E+00
ECP-MxAtEC                                 I           250000
ECP-MaxLECP                                I               10
ECP-MaxAtL                                 I          2250000
ECP-MxTECP                                 I         11250000
ECP-LenNCZ                                 I               16
ECP-KFirst                                 I   N=          40
           0           0           1           0           0           0
           2           0           0           0           5           0
           0           0           9           0           0           0
          13           0           0           0           0           0
           0           0           0           0           0           0
           0           0           0           0           0           0
           0           0           0           0
ECP-KLast                                  I   N=          40
           0           0           1           0           0           0
           4           0           0           0           8           0
           0           0          12           0           0           0
          16           0           0           0           0           0
           0           0           0           0           0           0
           0           0           0           0           0           0
           0           0           0           0
ECP-LMax                                   I   N=           4
           0           0           4           0
ECP-LPSkip                                 I   N=           4
           1           1           0           1
ECP-RNFroz                                 R   N=           4
  0.00000000E+00  0.00000000E+00  2.80000000E+01  0.00000000E+00
ECP-NLP                                    I   N=          16
           2           2           2           2           2           2
           2           2           2           2           2           2
           2           2           2           2
ECP-CLP1                                   R   N=          16
  0.00000000E+00  4.99896490E+01  2.81006556E+02  6.14167390E+01  6.74162390E+01
  1.34807696E+02  1.45665480E+01  2.89684220E+01  3.55387560E+01  5.33397590E+01
  9.71646600E+00  1.49775000E+01 -2.01766180E+01 -2.60880770E+01 -2.20434000E-01
 -2.21646000E-01
ECP-CLP2                                   R   N=          16
  0.00000000E+00  0.00000000E+00  0.00000000E+00  0.00000000E+00  0.00000000E+00
  0.00000000E+00  0.00000000E+00  0.00000000E+00  0.00000000E+00  0.00000000E+00
  0.00000000E+00  0.00000000E+00  0.00000000E+00  0.00000000E+00  0.00000000E+00
  0.00000000E+00
ECP-ZLP                                    R   N=          16
  1.00000000E+00  4.00333760E+01  1.73005760E+01  8.85172000E+00  1.57201410E+01
  1.52082220E+01  8.29418600E+00  7.75394900E+00  1.38177510E+01  1.35878050E+01
  6.94763000E+00  6.96009900E+00  1.85229500E+01  1.82510350E+01  7.55790100E+00
  7.59740400E+00
MxBond                                     I                1
NBond                                      I   N=           4
           1           1           0           0
IBond                                      I   N=           4
           2           1           0           0
RBond                                      R   N=           4
  1.00000000E+00  1.00000000E+00  0.00000000E+00  0.00000000E+00
Virial Ratio                               R      2.987296747431525E+00
SCF Energy                                 R     -3.707727781495295E+02
MP2 Energy                                 R     -3.712848262189064E+02
Total Energy                               R     -3.712848262189064E+02
Post-SCF wavefunction norm                 R      1.080752582349960E+00
RMS Density                                R      3.481722213620363E-09
Job Status                                 I                1
Nuclear derivative order                   I                0
External E-field                           R   N=          35
  0.00000000E+00  0.00000000E+00  0.00000000E+00  0.00000000E+00  0.00000000E+00
  0.00000000E+00  0.00000000E+00  0.00000000E+00  0.00000000E+00  0.00000000E+00
  0.00000000E+00  0.00000000E+00  0.00000000E+00  0.00000000E+00  0.00000000E+00
  0.00000000E+00  0.00000000E+00  0.00000000E+00  0.00000000E+00  0.00000000E+00
  0.00000000E+00  0.00000000E+00  0.00000000E+00  0.00000000E+00  0.00000000E+00
  0.00000000E+00  0.00000000E+00  0.00000000E+00  0.00000000E+00  0.00000000E+00
  0.00000000E+00  0.00000000E+00  0.00000000E+00  0.00000000E+00  0.00000000E+00
IOpCl                                      I                0
IROHF                                      I                0
Alpha Orbital Energies                     R   N=         147
 -2.03819277E+01 -7.48221948E+00 -5.30831359E+00 -5.30725377E+00 -5.30719915E+00
 -2.03595395E+00 -2.03537411E+00 -2.03531281E+00 -2.03416552E+00 -2.03416497E+00
 -1.11411847E+00 -6.45692933E-01 -4.65230577E-01 -3.74092781E-01 -3.08663887E-01
 -1.61974902E-01 -1.55890329E-01 -1.55448442E-01  1.38276626E-01  1.70099984E-01
  2.30852828E-01  2.43444667E-01  2.47661854E-01  2.75918344E-01  2.97320675E-01
  2.99432841E-01  3.13591069E-01  3.41566038E-01  3.64853274E-01  3.67749123E-01
  3.70894791E-01  3.93363232E-01  4.00508342E-01  4.28972453E-01  4.42764015E-01
  4.77531713E-01  5.02899827E-01  5.50527329E-01  5.75235495E-01  6.02719031E-01
  6.69598984E-01  7.16607429E-01  7.65930777E-01  7.66625260E-01  7.75442018E-01
  7.87272786E-01  7.88313552E-01  7.94091813E-01  8.17566576E-01  8.28688051E-01
  8.51716306E-01  8.61135419E-01  8.63327319E-01  8.72041617E-01  8.74327306E-01
  8.99713978E-01  9.06472368E-01  9.32272282E-01  9.46772515E-01  9.70875210E-01
  1.03324310E+00  1.05843433E+00  1.07928623E+00  1.11458808E+00  1.12342614E+00
  1.12432173E+00  1.16289115E+00  1.17674307E+00  1.20247596E+00  1.20953834E+00
  1.29499204E+00  1.36547591E+00  1.37604896E+00  1.45586880E+00  1.49038250E+00
  1.51348081E+00  1.61532704E+00  1.62258599E+00  1.71812851E+00  1.73326092E+00
  1.73907244E+00  1.74040441E+00  1.75385979E+00  1.76122601E+00  1.80006782E+00
  1.83863221E+00  1.85634406E+00  1.90279161E+00  2.00811826E+00  2.04443434E+00
  2.04866718E+00  2.05119034E+00  2.08806984E+00  2.11251641E+00  2.14776634E+00
  2.32678055E+00  2.43296286E+00  2.46831112E+00  2.55459552E+00  2.57787823E+00
  2.60290491E+00  2.62460525E+00  2.71624642E+00  2.77599641E+00  2.90822077E+00
  2.91721843E+00  2.97876768E+00  3.01714453E+00  3.24551784E+00  3.33381540E+00
  3.33647786E+00  3.51662658E+00  3.87275072E+00  4.14494225E+00  4.19530796E+00
  4.25407330E+00  4.27549255E+00  4.35168956E+00  4.40171567E+00  4.49450997E+00
  4.53777289E+00  4.60200178E+00  4.64092292E+00  4.77405963E+00  4.80459597E+00
  4.90204594E+00  5.01194505E+00  5.19798290E+00  5.41284770E+00  5.55346542E+00
  5.60713823E+00  6.30690197E+00  6.62770627E+00  6.89118860E+00  6.97984245E+00
  7.06102627E+00  7.30676600E+00  7.41460200E+00  7.45654411E+00  7.53020626E+00
  7.55425818E+00  7.65315389E+00  7.81505456E+00  8.08211829E+00  8.37340257E+00
  1.44404087E+01  5.92064575E+01
Alpha MO coefficients                      R   N=       28077
  9.76835957E-01 -9.00985987E-03  4.34223221E-02  4.62422115E-04  5.81060994E-04
  1.29253223E-03 -1.02332135E-03 -2.92980306E-16 -1.11021860E-03  1.12670490E-03
 -1.31072759E-15 -7.94135645E-05  3.61253547E-04 -2.16793408E-15  6.62978692E-06
 -2.55902462E-04 -1.16181925E-15 -2.87501953E-05  1.37933094E-15  1.34771181E-15
  6.36435932E-05  7.40769563E-06  5.61382244E-04 -2.61224076E-15 -1.38503003E-15
 -7.57703063E-05 -2.63136703E-04  1.02801100E-04 -1.96026268E-15 -6.92864710E-16
  2.25504055E-04 -2.25114762E-04  1.84573265E-17  7.20452992E-06 -2.40512753E-05
  2.51882109E-16  2.39249586E-16 -1.48375602E-05 -1.73937293E-05  2.23964462E-16
  5.10325922E-05 -8.04394067E-05 -1.64754408E-15 -1.40288376E-16 -2.04001881E-04
 -1.34171785E-04  5.20721990E-04  7.46702021E-04  1.12272489E-04 -2.30030359E-05
  7.46702021E-04  1.12272489E-04 -2.30030359E-05 -1.15808807E-04 -3.14764639E-06
  5.93949063E-16 -5.31889214E-04  1.01371386E-04  2.07357249E-15 -1.27534628E-04
  9.94123545E-05  8.10856705E-16 -1.15808807E-04 -3.14764639E-06 -4.04056108E-16
 -5.31889214E-04  1.01371386E-04  1.92422812E-15 -1.27534628E-04  9.94123545E-05
  1.30729576E-15  2.36992468E-05 -8.43357092E-16  1.56471562E-16 -4.82093915E-05
 -1.44211701E-06 -1.08888384E-04 -1.65742977E-15  1.29925264E-16  2.19257735E-04
 -6.94177469E-05  2.36992468E-05 -3.64077581E-16 -2.17018153E-17 -4.82093915E-05
 -1.44211701E-06 -1.08888384E-04 -2.68856427E-16  2.01843530E-16  2.19257735E-04
 -6.94177469E-05  3.25088249E-07  5.55753630E-06  1.44766320E-04  8.17581704E-04
 -3.19461261E-03 -9.32065100E-04 -1.97141947E-05 -1.02033137E-04  2.04381327E-16
 -1.08914638E-04 -5.87576936E-04  3.34776553E-16  5.43052249E-05  2.70523360E-04
 -2.44124300E-16 -5.04978265E-04 -2.08590642E-03 -3.06634485E-16 -4.86818468E-05
 -2.38190676E-04  2.52629971E-16  3.27191453E-06 -3.42183078E-17 -2.59589587E-17
  2.94096324E-06 -3.33025445E-06 -3.07124589E-05  8.92824094E-17  1.21931439E-16
 -3.67814348E-05  2.81467589E-05  3.40718607E-04 -1.83503327E-16 -4.33795947E-16
  5.06617441E-04 -2.60512787E-04  2.83405631E-04  5.28922341E-17  3.47957215E-16
  4.64942308E-04 -2.36538206E-04  7.68663872E-17  6.18098372E-06  2.78233403E-05
  1.87788665E-16 -2.16208707E-18  1.16284593E-05  2.48296009E-05 -8.04924886E-18
  2.58783880E-05  9.88269607E-05 -1.39943017E-16 -7.06847976E-17  1.10094551E-04
  1.01466920E-04 -8.82300463E-05  6.57558990E-04  1.33572150E-03  1.73732775E-04
  6.57558990E-04  1.33572150E-03  1.73732775E-04  1.58170159E-05  8.57769601E-05
  3.37249751E-17  9.67542544E-05  6.15749400E-04 -7.73974396E-16 -2.33056312E-04
 -1.48954676E-03 -1.89827203E-16  1.58170159E-05  8.57769601E-05  3.37249751E-17
  9.67542544E-05  6.15749400E-04 -7.73974396E-16 -2.33056312E-04 -1.48954676E-03
 -1.19719214E-16 -7.00885353E-05 -5.90748640E-17 -2.35807687E-16 -1.17501051E-04
  4.68446558E-05 -2.61502764E-04 -1.54927515E-16 -9.59867031E-17 -4.07228090E-04
  1.52815278E-04 -7.00885353E-05 -6.29753608E-17 -2.24035122E-16 -1.17501051E-04
  4.68446558E-05 -2.61502764E-04 -1.52962772E-16 -7.65875303E-16 -4.07228090E-04
  1.52815278E-04  5.58918443E-06  1.62026937E-05 -3.28507622E-06  4.46137332E-05
  5.56171986E-05  2.82815431E-06  9.29557773E-06  1.55524662E-17 -1.35330958E-05
 -2.05028720E-05 -1.60333810E-16  6.23863105E-05  9.08578320E-05 -2.74218907E-15
  5.79457035E-05 -3.07487979E-05 -1.60634477E-15 -8.26036077E-07  9.42486436E-17
 -4.89874118E-16 -1.12718479E-06 -3.29393134E-08  3.99683349E-06 -5.85206253E-18
  3.86907593E-16  1.82726837E-06  2.50755286E-06  1.74246397E-05 -2.09547592E-15
 -2.21956874E-16  6.43701079E-05 -2.11904499E-05 -3.16351313E-16  1.30949428E-06
  2.48770028E-06  4.25531073E-16  1.11033308E-16  5.36765820E-07  1.62267741E-06
  4.87056658E-16 -4.65074177E-06 -1.21100903E-05 -5.25435907E-16  3.51310923E-18
 -4.06929257E-06 -6.04450048E-06 -2.55858181E-07 -1.46200341E-05 -4.04425524E-05
 -6.26647974E-05 -1.46200341E-05 -4.04425524E-05 -6.26647974E-05 -4.96448802E-07
  5.43647445E-07 -5.80619492E-16 -4.17272864E-06 -7.31696534E-06  8.68482239E-16
  3.05696897E-06  8.80035874E-07  3.78351177E-16 -4.96448802E-07  5.43647445E-07
  5.31637741E-16 -4.17272864E-06 -7.31696534E-06  1.06025947E-15  3.05696897E-06
  8.80035873E-07  2.34448166E-15 -4.91887122E-07 -4.65113029E-16 -1.20486804E-16
  5.15711260E-07  9.03894011E-07 -3.68429302E-06 -1.40003933E-15 -3.64663072E-16
  3.79664292E-06 -1.07555784E-06 -4.91887122E-07  4.50505720E-16 -1.02632083E-16
  5.15711261E-07  9.03894011E-07 -3.68429302E-06  1.71096561E-16  8.00049421E-16
  3.79664292E-06 -1.07555784E-06  9.83169908E-01 -2.61813923E-03  2.28966179E-02
 -5.95969722E-03  1.83259254E-03 -8.22178099E-04  1.42919110E-04  4.30704597E-04
  9.47686581E-18 -1.34028780E-05 -4.31014397E-05 -8.67053376E-16  3.09201926E-05
  1.09584557E-04  4.53223589E-16  2.80310631E-05  1.32487937E-04  8.91174571E-16
 -1.57172093E-05 -1.28599588E-04 -3.86460507E-16 -1.02780478E-04  6.75340519E-17
  8.90306877E-17 -1.42332227E-04  7.60534806E-05 -1.02020650E-05  3.03045539E-16
 -5.38931844E-17 -1.42002261E-05  7.90031572E-06 -6.35197682E-06 -3.88607793E-16
  4.36496174E-16 -1.61549936E-05  1.71896061E-06 -2.19414887E-06  6.47247787E-18
 -4.00771508E-16  4.89747510E-06  5.42705587E-06 -9.01175295E-17  4.28500492E-07
  4.17043981E-07 -9.53231110E-17  1.57754802E-16  2.40641062E-08 -1.62569611E-06
  2.21312002E-16 -2.08744364E-06 -8.19176183E-06  1.60023393E-16 -3.31431513E-16
 -5.05186693E-06 -5.65850686E-06  1.25889969E-05  7.37978180E-05 -9.89250177E-05
  1.75657936E-04  7.37978180E-05 -9.89250177E-05  1.75657936E-04 -7.08023127E-07
 -2.99996741E-06  1.29900857E-17 -1.41265818E-06 -7.42242371E-06 -4.63476598E-17
 -8.81072961E-06  1.29024610E-05  6.46053239E-17 -7.08023127E-07 -2.99996741E-06
  1.29900857E-17 -1.41265818E-06 -7.42242371E-06 -4.63476598E-17 -8.81072961E-06
  1.29024610E-05  6.91602150E-16 -5.06930784E-07  3.81297233E-17  5.15012463E-17
  8.60101681E-09  4.84598921E-07  1.89324420E-05  1.98431856E-16  4.85856985E-16
  2.64691151E-05 -1.62298218E-05 -5.06930784E-07  4.00296710E-17  4.66820341E-17
  8.60101680E-09  4.84598921E-07  1.89324420E-05  1.96309848E-16 -3.86688625E-16
  2.64691151E-05 -1.62298218E-05  6.40163322E-06 -1.85331263E-06 -6.86562965E-06
  9.45310542E-05  1.03891528E-04  3.64534556E-06  1.85375220E-05 -2.97213242E-16
 -5.27145448E-06 -3.62198172E-06 -5.93444990E-16  3.65908014E-05 -1.42023614E-05
 -1.35066619E-14  1.17230513E-05 -3.05711985E-05 -7.24879146E-15  8.01881902E-07
  5.87287692E-16  2.48294608E-17  7.53414038E-07 -4.82216585E-07 -3.91962822E-06
 -2.99514503E-15 -8.03790650E-16 -3.54395969E-06  5.31447892E-06 -1.60939045E-05
 -6.43530641E-15  1.74471080E-15  2.90753448E-06  1.38727483E-05  3.83361668E-16
  6.85024669E-07  1.83730061E-07 -7.39424366E-16 -1.37534335E-16 -3.71729573E-07
  1.18540766E-07  1.19590238E-15 -2.29694932E-06  1.37795442E-06 -2.06079527E-15
  3.17602320E-16  4.68932582E-06  6.33992157E-06  2.07868444E-07 -1.81749862E-05
 -4.75732861E-05 -9.97724262E-06 -1.81749862E-05 -4.75732861E-05 -9.97724262E-06
 -2.30329288E-08 -3.72051603E-07  9.24443493E-16  1.53791413E-06 -4.91591420E-06
  6.36248260E-15  1.13987241E-05 -1.27241044E-06  5.68551102E-15 -2.30329311E-08
 -3.72051606E-07 -8.96251121E-16  1.53791413E-06 -4.91591421E-06  2.67518985E-15