 Entering Gaussian System, Link 0=g16
 Input=ihod_rOH_080_sp.gjf
 Output=ihod_rOH_080_sp.log
 Initial command:
 /sw/contrib/gaussian/g16/B01/g16/l1.exe "/scr/Gau-24234.inp" -scrdir="/scr/"
 Entering Link 1 = /sw/contrib/gaussian/g16/B01/g16/l1.exe PID=     24235.
  
 Copyright (c) 1988-2017, Gaussian, Inc.  All Rights Reserved.
  
 This is part of the Gaussian(R) 16 program.  It is based on
 the Gaussian(R) 09 system (copyright 2009, Gaussian, Inc.),
 the Gaussian(R) 03 system (copyright 2003, Gaussian, Inc.),
 the Gaussian(R) 98 system (copyright 1998, Gaussian, Inc.),
 the Gaussian(R) 94 system (copyright 1995, Gaussian, Inc.),
 the Gaussian 92(TM) system (copyright 1992, Gaussian, Inc.),
 the Gaussian 90(TM) system (copyright 1990, Gaussian, Inc.),
 the Gaussian 88(TM) system (copyright 1988, Gaussian, Inc.),
 the Gaussian 86(TM) system (copyright 1986, Carnegie Mellon
 University), and the Gaussian 82(TM) system (copyright 1983,
 Carnegie Mellon University). Gaussian is a federally registered
 trademark of Gaussian, Inc.
  
 This software contains proprietary and confidential information,
 including trade secrets, belonging to Gaussian, Inc.
  
 This software is provided under written license and may be
 used, copied, transmitted, or stored only in accord with that
 written license.
  
 The following legend is applicable only to US Government
 contracts under FAR:
  
                    RESTRICTED RIGHTS LEGEND
  
 Use, reproduction and disclosure by the US Government is
 subject to restrictions as set forth in subparagraphs (a)
 and (c) of the Commercial Computer Software - Restricted
 Rights clause in FAR 52.227-19.
  
 Gaussian, Inc.
 340 Quinnipiac St., Bldg. 40, Wallingford CT 06492
  
  
 ---------------------------------------------------------------
 Warning -- This program may not be used in any manner that
 competes with the business of Gaussian, Inc. or will provide
 assistance to any competitor of Gaussian, Inc.  The licensee
 of this program is prohibited from giving any competitor of
 Gaussian, Inc. access to this program.  By using this program,
 the user acknowledges that Gaussian, Inc. is engaged in the
 business of creating and licensing software in the field of
 computational chemistry and represents and warrants to the
 licensee that it is not a competitor of Gaussian, Inc. and that
 it will not use this program in any manner prohibited above.
 ---------------------------------------------------------------
  

 Cite this work as:
 Gaussian 16, Revision B.01,
 M. J. Frisch, G. W. Trucks, H. B. Schlegel, G. E. Scuseria, 
 M. A. Robb, J. R. Cheeseman, G. Scalmani, V. Barone, 
 G. A. Petersson, H. Nakatsuji, X. Li, M. Caricato, A. V. Marenich, 
 J. Bloino, B. G. Janesko, R. Gomperts, B. Mennucci, H. P. Hratchian, 
 J. V. Ortiz, A. F. Izmaylov, J. L. Sonnenberg, D. Williams-Young, 
 F. Ding, F. Lipparini, F. Egidi, J. Goings, B. Peng, A. Petrone, 
 T. Henderson, D. Ranasinghe, V. G. Zakrzewski, J. Gao, N. Rega, 
 G. Zheng, W. Liang, M. Hada, M. Ehara, K. Toyota, R. Fukuda, 
 J. Hasegawa, M. Ishida, T. Nakajima, Y. Honda, O. Kitao, H. Nakai, 
 T. Vreven, K. Throssell, J. A. Montgomery, Jr., J. E. Peralta, 
 F. Ogliaro, M. J. Bearpark, J. J. Heyd, E. N. Brothers, K. N. Kudin, 
 V. N. Staroverov, T. A. Keith, R. Kobayashi, J. Normand, 
 K. Raghavachari, A. P. Rendell, J. C. Burant, S. S. Iyengar, 
 J. Tomasi, M. Cossi, J. M. Millam, M. Klene, C. Adamo, R. Cammi, 
 J. W. Ochterski, R. L. Martin, K. Morokuma, O. Farkas, 
 J. B. Foresman, and D. J. Fox, Gaussian, Inc., Wallingford CT, 2016.
 
 ******************************************
 Gaussian 16:  ES64L-G16RevB.01 20-Dec-2017
                26-Oct-2021 
 ******************************************
 %nproc=28
 Will use up to   28 processors via shared memory.
 %mem=120GB
 %chk=/gscratch/ilahie/mccoygrp/coire_hocl/rOH_s_oop_0/ihod/ihod_rOH_080.chk
 --------------------------------------------------------
 #p pop=NBO SP NoSymm mp2/gen Pseudo=read density=current
 --------------------------------------------------------
 1/30=1,38=1,172=1/1;
 2/12=2,15=1,17=6,18=5,40=1/2;
 3/5=7,11=9,16=1,17=8,25=1,30=1,71=1/1,2,3;
 4//1;
 5/5=2,38=5/2;
 8/6=4,10=1/1;
 9/15=1,16=-3/6;
 10/5=1,13=10,31=1/2;
 6/7=2,8=2,9=2,10=2,22=-1,40=1/1,7;
 99/5=1,9=1/99;
 Leave Link    1 at Tue Oct 26 13:20:06 2021, MaxMem= 16106127360 cpu:               2.0 elap:               0.1
 (Enter /sw/contrib/gaussian/g16/B01/g16/l101.exe)
 -----
 title
 -----
 Symbolic Z-matrix:
 Charge = -1 Multiplicity = 1
 O
 X                    1     10. 
 H(iso=2)             1    r1       2     90. 
 I                    1    r2       2     90.      3    a1       0
 H                    1    r3       2    oop      3    a1       0
       Variables:
  r1                    0.96091                  
  r2                    3.5085                   
  r3                    0.8                      
  a1                  101.85832                  
  OOP                  90.                       
 
 ITRead=  0  0  0  0
 MicOpt= -1 -1 -1 -1
 NAtoms=      4 NQM=        4 NQMF=       0 NMMI=      0 NMMIF=      0
                NMic=       0 NMicF=      0.
                    Isotopes and Nuclear Properties:
 (Nuclear quadrupole moments (NQMom) in fm**2, nuclear magnetic moments (NMagM)
  in nuclear magnetons)

  Atom         1           2           3           4
 IAtWgt=          16           2         127           1
 AtmWgt=  15.9949146   2.0141018 126.9004000   1.0078250
 NucSpn=           0           2           5           1
 AtZEff=  -0.0000000  -0.0000000  -0.0000000  -0.0000000
 NQMom=    0.0000000   0.2860000 -71.0000000   0.0000000
 NMagM=    0.0000000   0.8574380   2.8132800   2.7928460
 AtZNuc=   8.0000000   1.0000000  53.0000000   1.0000000
 Leave Link  101 at Tue Oct 26 13:20:06 2021, MaxMem= 16106127360 cpu:               3.0 elap:               0.1
 (Enter /sw/contrib/gaussian/g16/B01/g16/l202.exe)
                          Input orientation:                          
 ---------------------------------------------------------------------
 Center     Atomic      Atomic             Coordinates (Angstroms)
 Number     Number       Type             X           Y           Z
 ---------------------------------------------------------------------
      1          8           0        0.000000    0.000000    0.000000
      2          1           0        0.960908    0.000000    0.000000
      3         53           0       -0.720970   -3.433626    0.000000
      4          1           0       -0.164394   -0.782927    0.000000
 ---------------------------------------------------------------------
                    Distance matrix (angstroms):
                    1          2          3          4
     1  O    0.000000
     2  H    0.960908   0.000000
     3  I    3.508501   3.823414   0.000000
     4  H    0.800000   1.370868   2.708501   0.000000
 Symmetry turned off by external request.
 Stoichiometry    H2IO(1-)
 Framework group  CS[SG(H2IO)]
 Deg. of freedom     5
 Full point group                 CS      NOp   2
 Rotational constants (GHZ):         322.4760136           2.5018767           2.4826157
 Leave Link  202 at Tue Oct 26 13:20:06 2021, MaxMem= 16106127360 cpu:               0.2 elap:               0.0
 (Enter /sw/contrib/gaussian/g16/B01/g16/l301.exe)
 General basis read from cards:  (5D, 7F)
 Centers:       1      2      4
 aug-cc-pVTZ
 ****
 Centers:       3
 S 11 1.00
     Exponent=  5.5465000000D+03 Coefficients=  1.5600000000D-04
     Exponent=  8.3821400000D+02 Coefficients=  9.8600000000D-04
     Exponent=  1.8218700000D+02 Coefficients=  2.7920000000D-03
     Exponent=  3.1212300000D+01 Coefficients= -4.3251000000D-02
     Exponent=  1.9531400000D+01 Coefficients=  2.3413400000D-01
     Exponent=  8.2409900000D+00 Coefficients= -7.5094300000D-01
     Exponent=  2.1945500000D+00 Coefficients=  8.8296800000D-01
     Exponent=  1.1091100000D+00 Coefficients=  4.6206100000D-01
     Exponent=  3.7464100000D-01 Coefficients=  2.2286000000D-02
     Exponent=  1.7708000000D-01 Coefficients= -4.3530000000D-03
     Exponent=  8.1061000000D-02 Coefficients=  1.1020000000D-03
 S 11 1.00
     Exponent=  5.5465000000D+03 Coefficients= -7.3000000000D-05
     Exponent=  8.3821400000D+02 Coefficients= -5.0800000000D-04
     Exponent=  1.8218700000D+02 Coefficients= -1.1580000000D-03
     Exponent=  3.1212300000D+01 Coefficients=  1.2193000000D-02
     Exponent=  1.9531400000D+01 Coefficients= -8.7854000000D-02
     Exponent=  8.2409900000D+00 Coefficients=  3.3820000000D-01
     Exponent=  2.1945500000D+00 Coefficients= -5.7655000000D-01
     Exponent=  1.1091100000D+00 Coefficients= -4.0929800000D-01
     Exponent=  3.7464100000D-01 Coefficients=  5.6745900000D-01
     Exponent=  1.7708000000D-01 Coefficients=  6.1248900000D-01
     Exponent=  8.1061000000D-02 Coefficients=  1.4323100000D-01
 S 1 1.00
     Exponent=  3.7464100000D-01 Coefficients=  1.0000000000D+00
 S 1 1.00
     Exponent=  1.7708000000D-01 Coefficients=  1.0000000000D+00
 S 1 1.00
     Exponent=  1.0010000000D-01 Coefficients=  1.0000000000D+00
 S 1 1.00
     Exponent=  4.1200000000D-02 Coefficients=  1.0000000000D+00
 P 9 1.00
     Exponent=  1.8898800000D+02 Coefficients=  5.8500000000D-04
     Exponent=  2.1286800000D+01 Coefficients=  3.6923000000D-02
     Exponent=  1.0039600000D+01 Coefficients= -2.3532400000D-01
     Exponent=  3.4518000000D+00 Coefficients=  3.4148300000D-01
     Exponent=  1.9745600000D+00 Coefficients=  5.3478800000D-01
     Exponent=  1.0242000000D+00 Coefficients=  2.6514100000D-01
     Exponent=  4.4943700000D-01 Coefficients=  2.5787000000D-02
     Exponent=  1.8664800000D-01 Coefficients=  5.2200000000D-04
     Exponent=  7.3481000000D-02 Coefficients=  6.0600000000D-04
 P 9 1.00
     Exponent=  1.8898800000D+02 Coefficients= -2.5600000000D-04
     Exponent=  2.1286800000D+01 Coefficients= -1.1682000000D-02
     Exponent=  1.0039600000D+01 Coefficients=  8.3192000000D-02
     Exponent=  3.4518000000D+00 Coefficients= -1.5697000000D-01
     Exponent=  1.9745600000D+00 Coefficients= -2.2451800000D-01
     Exponent=  1.0242000000D+00 Coefficients= -1.1445100000D-01
     Exponent=  4.4943700000D-01 Coefficients=  3.7535600000D-01
     Exponent=  1.8664800000D-01 Coefficients=  5.7513600000D-01
     Exponent=  7.3481000000D-02 Coefficients=  2.4591700000D-01
 P 1 1.00
     Exponent=  5.9810000000D-01 Coefficients=  1.0000000000D+00
 P 1 1.00
     Exponent=  9.6180000000D-02 Coefficients=  1.0000000000D+00
 P 1 1.00
     Exponent=  3.5900000000D-02 Coefficients=  1.0000000000D+00
 D 9 1.00
     Exponent=  1.3266200000D+02 Coefficients=  5.7200000000D-04
     Exponent=  3.7605400000D+01 Coefficients=  4.4020000000D-03
     Exponent=  1.0389100000D+01 Coefficients= -4.0922000000D-02
     Exponent=  6.4901700000D+00 Coefficients=  9.9661000000D-02
     Exponent=  3.4545100000D+00 Coefficients=  3.2266300000D-01
     Exponent=  1.8441300000D+00 Coefficients=  4.0034300000D-01
     Exponent=  9.6247800000D-01 Coefficients=  2.6830600000D-01
     Exponent=  4.7285300000D-01 Coefficients=  8.4847000000D-02
     Exponent=  1.9320000000D-01 Coefficients=  7.6320000000D-03
 D 1 1.00
     Exponent=  4.7285300000D-01 Coefficients=  1.0000000000D+00
 D 1 1.00
     Exponent=  1.9320000000D-01 Coefficients=  1.0000000000D+00
 D 1 1.00
     Exponent=  7.8200000000D-02 Coefficients=  1.0000000000D+00
 F 1 1.00
     Exponent=  4.0640000000D-01 Coefficients=  1.0000000000D+00
 F 1 1.00
     Exponent=  1.8480000000D-01 Coefficients=  1.0000000000D+00
 ****
 ======================================================================================================
                                       Pseudopotential Parameters
 ======================================================================================================
  Center     Atomic      Valence      Angular      Power
  Number     Number     Electrons     Momentum     of R      Exponent        Coefficient   SO-Coeffient
 ======================================================================================================
    1          8
                                   No pseudopotential on this center.
    2          1
                                   No pseudopotential on this center.
    3         53           25
                                      G and up 
                                                     2        1.0000000        0.00000000    0.00000000
                                      S - G
                                                     2       40.0333760       49.98964900    0.00000000
                                                     2       17.3005760      281.00655600    0.00000000
                                                     2        8.8517200       61.41673900    0.00000000
                                      P - G
                                                     2       15.7201410       67.41623900    0.00000000
                                                     2       15.2082220      134.80769600    0.00000000
                                                     2        8.2941860       14.56654800    0.00000000
                                                     2        7.7539490       28.96842200    0.00000000
                                      D - G
                                                     2       13.8177510       35.53875600    0.00000000
                                                     2       13.5878050       53.33975900    0.00000000
                                                     2        6.9476300        9.71646600    0.00000000
                                                     2        6.9600990       14.97750000    0.00000000
                                      F - G
                                                     2       18.5229500      -20.17661800    0.00000000
                                                     2       18.2510350      -26.08807700    0.00000000
                                                     2        7.5579010       -0.22043400    0.00000000
                                                     2        7.5974040       -0.22164600    0.00000000
    4          1
                                   No pseudopotential on this center.
 ======================================================================================================
 Ernie: Thresh=  0.10000D-02 Tol=  0.10000D-05 Strict=F.
 Ernie:  10 primitive shells out of 113 were deleted.
   147 basis functions,   296 primitive gaussians,   170 cartesian basis functions
    18 alpha electrons       18 beta electrons
       nuclear repulsion energy        48.5933782521 Hartrees.
 IExCor=    0 DFT=F Ex=HF Corr=None ExCW=0 ScaHFX=  1.000000
 ScaDFX=  1.000000  1.000000  1.000000  1.000000 ScalE2=  1.000000  1.000000
 IRadAn=      5 IRanWt=     -1 IRanGd=            0 ICorTp=0 IEmpDi=  4
 NAtoms=    4 NActive=    4 NUniq=    4 SFac= 1.00D+00 NAtFMM=   60 NAOKFM=F Big=F
 Integral buffers will be    131072 words long.
 Raffenetti 1 integral format.
 Two-electron integral symmetry is turned off.
 Leave Link  301 at Tue Oct 26 13:20:06 2021, MaxMem= 16106127360 cpu:               3.0 elap:               0.1
 (Enter /sw/contrib/gaussian/g16/B01/g16/l302.exe)
 NPDir=0 NMtPBC=     1 NCelOv=     1 NCel=       1 NClECP=     1 NCelD=      1
         NCelK=      1 NCelE2=     1 NClLst=     1 CellRange=     0.0.
 One-electron integrals computed using PRISM.
   1 Symmetry operations used in ECPInt.
 ECPInt:  NShTT=    1225 NPrTT=    5557 LenC2=    1226 LenP2D=    4934.
 LDataN:  DoStor=T MaxTD1= 7 Len=  274
 NBasis=   147 RedAO= T EigKep=  2.02D-04  NBF=   147
 NBsUse=   147 1.00D-06 EigRej= -1.00D+00 NBFU=   147
 Leave Link  302 at Tue Oct 26 13:20:06 2021, MaxMem= 16106127360 cpu:               5.7 elap:               0.2
 (Enter /sw/contrib/gaussian/g16/B01/g16/l303.exe)
 DipDrv:  MaxL=1.
 Leave Link  303 at Tue Oct 26 13:20:06 2021, MaxMem= 16106127360 cpu:               0.7 elap:               0.0
 (Enter /sw/contrib/gaussian/g16/B01/g16/l401.exe)
 ExpMin= 2.53D-02 ExpMax= 1.53D+04 ExpMxC= 5.22D+02 IAcc=3 IRadAn=         5 AccDes= 0.00D+00
 Harris functional with IExCor=  205 and IRadAn=       5 diagonalized for initial guess.
 HarFok:  IExCor=  205 AccDes= 0.00D+00 IRadAn=         5 IDoV= 1 UseB2=F ITyADJ=14
 ICtDFT=  3500011 ScaDFX=  1.000000  1.000000  1.000000  1.000000
 Defaulting to unpruned grid for atomic number  53.
 FoFCou: FMM=F IPFlag=           0 FMFlag=      100000 FMFlg1=           0
         NFxFlg=           0 DoJE=T BraDBF=F KetDBF=T FulRan=T
         wScrn=  0.000000 ICntrl=       500 IOpCl=  0 I1Cent=   200000004 NGrid=           0
         NMat0=    1 NMatS0=      1 NMatT0=    0 NMatD0=    1 NMtDS0=    0 NMtDT0=    0
 Symmetry not used in FoFCou.
 Harris En= -372.655933486427    
 JPrj=0 DoOrth=F DoCkMO=F.
 Leave Link  401 at Tue Oct 26 13:20:07 2021, MaxMem= 16106127360 cpu:               5.9 elap:               0.3
 (Enter /sw/contrib/gaussian/g16/B01/g16/l502.exe)
 Keep R1 ints in memory in canonical form, NReq=117069031.
 FoFCou: FMM=F IPFlag=           0 FMFlag=           0 FMFlg1=           0
         NFxFlg=           0 DoJE=F BraDBF=F KetDBF=F FulRan=T
         wScrn=  0.000000 ICntrl=       600 IOpCl=  0 I1Cent=           0 NGrid=           0
         NMat0=    1 NMatS0=  10878 NMatT0=    0 NMatD0=    1 NMtDS0=    0 NMtDT0=    0
 Symmetry not used in FoFCou.
 Two-electron integral symmetry not used.
 Closed shell SCF:
 Using DIIS extrapolation, IDIIS=  1040.
 NGot= 16106127360 LenX= 16046892795 LenY= 16046863454
 Requested convergence on RMS density matrix=1.00D-08 within 128 cycles.
 Requested convergence on MAX density matrix=1.00D-06.
 Requested convergence on             energy=1.00D-06.
 No special actions if energy rises.

 Cycle   1  Pass 1  IDiag  1:
 E= -370.602591224604    
 DIIS: error= 4.54D-02 at cycle   1 NSaved=   1.
 NSaved= 1 IEnMin= 1 EnMin= -370.602591224604     IErMin= 1 ErrMin= 4.54D-02
 ErrMax= 4.54D-02  0.00D+00 EMaxC= 1.00D-01 BMatC= 4.06D-01 BMatP= 4.06D-01
 IDIUse=3 WtCom= 5.46D-01 WtEn= 4.54D-01
 Coeff-Com:  0.100D+01
 Coeff-En:   0.100D+01
 Coeff:      0.100D+01
 Gap=     0.378 Goal=   None    Shift=    0.000
 GapD=    0.378 DampG=1.000 DampE=0.500 DampFc=0.5000 IDamp=-1.
 Damping current iteration by 5.00D-01
 RMSDP=3.59D-03 MaxDP=1.00D-01              OVMax= 1.40D-01

 Cycle   2  Pass 1  IDiag  1:
 E= -370.697896492937     Delta-E=       -0.095305268334 Rises=F Damp=T
 DIIS: error= 1.57D-02 at cycle   2 NSaved=   2.
 NSaved= 2 IEnMin= 2 EnMin= -370.697896492937     IErMin= 2 ErrMin= 1.57D-02
 ErrMax= 1.57D-02  0.00D+00 EMaxC= 1.00D-01 BMatC= 6.03D-02 BMatP= 4.06D-01
 IDIUse=3 WtCom= 8.43D-01 WtEn= 1.57D-01
 Coeff-Com: -0.449D+00 0.145D+01
 Coeff-En:   0.000D+00 0.100D+01
 Coeff:     -0.379D+00 0.138D+01
 Gap=     0.254 Goal=   None    Shift=    0.000
 RMSDP=1.61D-03 MaxDP=7.85D-02 DE=-9.53D-02 OVMax= 6.50D-02

 Cycle   3  Pass 1  IDiag  1:
 E= -370.782476600084     Delta-E=       -0.084580107147 Rises=F Damp=F
 DIIS: error= 3.74D-03 at cycle   3 NSaved=   3.
 NSaved= 3 IEnMin= 3 EnMin= -370.782476600084     IErMin= 3 ErrMin= 3.74D-03
 ErrMax= 3.74D-03  0.00D+00 EMaxC= 1.00D-01 BMatC= 1.46D-03 BMatP= 6.03D-02
 IDIUse=3 WtCom= 9.63D-01 WtEn= 3.74D-02
 Coeff-Com: -0.104D+00 0.204D+00 0.899D+00
 Coeff-En:   0.000D+00 0.000D+00 0.100D+01
 Coeff:     -0.996D-01 0.197D+00 0.903D+00
 Gap=     0.265 Goal=   None    Shift=    0.000
 RMSDP=3.89D-04 MaxDP=1.69D-02 DE=-8.46D-02 OVMax= 8.35D-03

 Cycle   4  Pass 1  IDiag  1:
 E= -370.783468581915     Delta-E=       -0.000991981830 Rises=F Damp=F
 DIIS: error= 4.62D-04 at cycle   4 NSaved=   4.
 NSaved= 4 IEnMin= 4 EnMin= -370.783468581915     IErMin= 4 ErrMin= 4.62D-04
 ErrMax= 4.62D-04  0.00D+00 EMaxC= 1.00D-01 BMatC= 3.85D-05 BMatP= 1.46D-03
 IDIUse=3 WtCom= 9.95D-01 WtEn= 4.62D-03
 Coeff-Com:  0.613D-02-0.245D-01 0.575D-01 0.961D+00
 Coeff-En:   0.000D+00 0.000D+00 0.000D+00 0.100D+01
 Coeff:      0.610D-02-0.244D-01 0.572D-01 0.961D+00
 Gap=     0.268 Goal=   None    Shift=    0.000
 RMSDP=1.01D-04 MaxDP=5.50D-03 DE=-9.92D-04 OVMax= 2.63D-03

 Cycle   5  Pass 1  IDiag  1:
 E= -370.783514248777     Delta-E=       -0.000045666862 Rises=F Damp=F
 DIIS: error= 1.73D-04 at cycle   5 NSaved=   5.
 NSaved= 5 IEnMin= 5 EnMin= -370.783514248777     IErMin= 5 ErrMin= 1.73D-04
 ErrMax= 1.73D-04  0.00D+00 EMaxC= 1.00D-01 BMatC= 3.54D-06 BMatP= 3.85D-05
 IDIUse=3 WtCom= 9.98D-01 WtEn= 1.73D-03
 Coeff-Com:  0.718D-02-0.122D-01-0.625D-01 0.239D-01 0.104D+01
 Coeff-En:   0.000D+00 0.000D+00 0.000D+00 0.000D+00 0.100D+01
 Coeff:      0.717D-02-0.121D-01-0.624D-01 0.238D-01 0.104D+01
 Gap=     0.267 Goal=   None    Shift=    0.000
 RMSDP=4.21D-05 MaxDP=1.60D-03 DE=-4.57D-05 OVMax= 9.78D-04

 Cycle   6  Pass 1  IDiag  1:
 E= -370.783520939785     Delta-E=       -0.000006691008 Rises=F Damp=F
 DIIS: error= 5.62D-05 at cycle   6 NSaved=   6.
 NSaved= 6 IEnMin= 6 EnMin= -370.783520939785     IErMin= 6 ErrMin= 5.62D-05
 ErrMax= 5.62D-05  0.00D+00 EMaxC= 1.00D-01 BMatC= 2.81D-07 BMatP= 3.54D-06
 IDIUse=1 WtCom= 1.00D+00 WtEn= 0.00D+00
 Coeff-Com: -0.257D-02 0.530D-02 0.110D-01-0.982D-01-0.167D+00 0.125D+01
 Coeff:     -0.257D-02 0.530D-02 0.110D-01-0.982D-01-0.167D+00 0.125D+01
 Gap=     0.267 Goal=   None    Shift=    0.000
 RMSDP=1.11D-05 MaxDP=6.02D-04 DE=-6.69D-06 OVMax= 5.31D-04

 Cycle   7  Pass 1  IDiag  1:
 E= -370.783521714954     Delta-E=       -0.000000775169 Rises=F Damp=F
 DIIS: error= 1.08D-05 at cycle   7 NSaved=   7.
 NSaved= 7 IEnMin= 7 EnMin= -370.783521714954     IErMin= 7 ErrMin= 1.08D-05
 ErrMax= 1.08D-05  0.00D+00 EMaxC= 1.00D-01 BMatC= 8.90D-09 BMatP= 2.81D-07
 IDIUse=1 WtCom= 1.00D+00 WtEn= 0.00D+00
 Coeff-Com:  0.151D-03-0.416D-03 0.763D-03 0.182D-01-0.285D-01-0.211D+00
 Coeff-Com:  0.122D+01
 Coeff:      0.151D-03-0.416D-03 0.763D-03 0.182D-01-0.285D-01-0.211D+00
 Coeff:      0.122D+01
 Gap=     0.267 Goal=   None    Shift=    0.000
 RMSDP=2.27D-06 MaxDP=1.01D-04 DE=-7.75D-07 OVMax= 1.03D-04

 Cycle   8  Pass 1  IDiag  1:
 E= -370.783521744463     Delta-E=       -0.000000029509 Rises=F Damp=F
 DIIS: error= 1.85D-06 at cycle   8 NSaved=   8.
 NSaved= 8 IEnMin= 8 EnMin= -370.783521744463     IErMin= 8 ErrMin= 1.85D-06
 ErrMax= 1.85D-06  0.00D+00 EMaxC= 1.00D-01 BMatC= 3.57D-10 BMatP= 8.90D-09
 IDIUse=1 WtCom= 1.00D+00 WtEn= 0.00D+00
 Coeff-Com:  0.102D-03-0.203D-03-0.510D-03 0.329D-02 0.794D-02-0.396D-01
 Coeff-Com: -0.864D-01 0.112D+01
 Coeff:      0.102D-03-0.203D-03-0.510D-03 0.329D-02 0.794D-02-0.396D-01
 Coeff:     -0.864D-01 0.112D+01
 Gap=     0.267 Goal=   None    Shift=    0.000
 RMSDP=6.16D-07 MaxDP=3.42D-05 DE=-2.95D-08 OVMax= 1.59D-05

 Cycle   9  Pass 1  IDiag  1:
 E= -370.783521745423     Delta-E=       -0.000000000960 Rises=F Damp=F
 DIIS: error= 4.56D-07 at cycle   9 NSaved=   9.
 NSaved= 9 IEnMin= 9 EnMin= -370.783521745423     IErMin= 9 ErrMin= 4.56D-07
 ErrMax= 4.56D-07  0.00D+00 EMaxC= 1.00D-01 BMatC= 2.43D-11 BMatP= 3.57D-10
 IDIUse=1 WtCom= 1.00D+00 WtEn= 0.00D+00
 Coeff-Com: -0.238D-04 0.549D-04 0.680D-05-0.159D-02 0.112D-02 0.175D-01
 Coeff-Com: -0.552D-01-0.181D+00 0.122D+01
 Coeff:     -0.238D-04 0.549D-04 0.680D-05-0.159D-02 0.112D-02 0.175D-01
 Coeff:     -0.552D-01-0.181D+00 0.122D+01
 Gap=     0.267 Goal=   None    Shift=    0.000
 RMSDP=1.31D-07 MaxDP=7.36D-06 DE=-9.60D-10 OVMax= 3.90D-06

 Cycle  10  Pass 1  IDiag  1:
 E= -370.783521745484     Delta-E=       -0.000000000061 Rises=F Damp=F
 DIIS: error= 1.03D-07 at cycle  10 NSaved=  10.
 NSaved=10 IEnMin=10 EnMin= -370.783521745484     IErMin=10 ErrMin= 1.03D-07
 ErrMax= 1.03D-07  0.00D+00 EMaxC= 1.00D-01 BMatC= 1.50D-12 BMatP= 2.43D-11
 IDIUse=1 WtCom= 1.00D+00 WtEn= 0.00D+00
 Coeff-Com: -0.813D-05 0.163D-04 0.325D-04-0.316D-03-0.435D-03 0.379D-02
 Coeff-Com:  0.100D-02-0.782D-01 0.985D-01 0.976D+00
 Coeff:     -0.813D-05 0.163D-04 0.325D-04-0.316D-03-0.435D-03 0.379D-02
 Coeff:      0.100D-02-0.782D-01 0.985D-01 0.976D+00
 Gap=     0.267 Goal=   None    Shift=    0.000
 RMSDP=1.97D-08 MaxDP=7.80D-07 DE=-6.14D-11 OVMax= 7.28D-07

 Cycle  11  Pass 1  IDiag  1:
 E= -370.783521745488     Delta-E=       -0.000000000004 Rises=F Damp=F
 DIIS: error= 2.58D-08 at cycle  11 NSaved=  11.
 NSaved=11 IEnMin=11 EnMin= -370.783521745488     IErMin=11 ErrMin= 2.58D-08
 ErrMax= 2.58D-08  0.00D+00 EMaxC= 1.00D-01 BMatC= 9.26D-14 BMatP= 1.50D-12
 IDIUse=1 WtCom= 1.00D+00 WtEn= 0.00D+00
 Coeff-Com:  0.234D-05-0.534D-05-0.128D-05 0.145D-03-0.941D-04-0.151D-02
 Coeff-Com:  0.379D-02 0.197D-01-0.105D+00-0.693D-01 0.115D+01
 Coeff:      0.234D-05-0.534D-05-0.128D-05 0.145D-03-0.941D-04-0.151D-02
 Coeff:      0.379D-02 0.197D-01-0.105D+00-0.693D-01 0.115D+01
 Gap=     0.267 Goal=   None    Shift=    0.000
 RMSDP=1.43D-08 MaxDP=9.23D-07 DE=-3.75D-12 OVMax= 3.41D-07

 Cycle  12  Pass 1  IDiag  1:
 E= -370.783521745487     Delta-E=        0.000000000001 Rises=F Damp=F
 DIIS: error= 3.67D-09 at cycle  12 NSaved=  12.
 NSaved=12 IEnMin=11 EnMin= -370.783521745488     IErMin=12 ErrMin= 3.67D-09
 ErrMax= 3.67D-09  0.00D+00 EMaxC= 1.00D-01 BMatC= 2.36D-15 BMatP= 9.26D-14
 IDIUse=1 WtCom= 1.00D+00 WtEn= 0.00D+00
 Coeff-Com: -0.329D-06 0.839D-06-0.552D-06-0.268D-04 0.400D-04 0.242D-03
 Coeff-Com: -0.881D-03-0.252D-02 0.232D-01-0.149D-01-0.265D+00 0.126D+01
 Coeff:     -0.329D-06 0.839D-06-0.552D-06-0.268D-04 0.400D-04 0.242D-03
 Coeff:     -0.881D-03-0.252D-02 0.232D-01-0.149D-01-0.265D+00 0.126D+01
 Gap=     0.267 Goal=   None    Shift=    0.000
 RMSDP=3.20D-09 MaxDP=2.10D-07 DE= 9.66D-13 OVMax= 7.01D-08

 SCF Done:  E(RHF) =  -370.783521745     A.U. after   12 cycles
            NFock= 12  Conv=0.32D-08     -V/T= 2.9797
 KE= 1.872927486813D+02 PE=-9.110388091968D+02 EE= 3.043691605180D+02
 Leave Link  502 at Tue Oct 26 13:20:09 2021, MaxMem= 16106127360 cpu:              30.9 elap:               2.1
 (Enter /sw/contrib/gaussian/g16/B01/g16/l801.exe)
 ExpMin= 2.53D-02 ExpMax= 1.53D+04 ExpMxC= 5.22D+02 IAcc=3 IRadAn=         5 AccDes= 0.00D+00
 HarFok:  IExCor=  205 AccDes= 0.00D+00 IRadAn=         5 IDoV=-2 UseB2=F ITyADJ=14
 ICtDFT= 12500011 ScaDFX=  1.000000  1.000000  1.000000  1.000000
 Defaulting to unpruned grid for atomic number  53.
 Largest valence mixing into a core orbital is  1.30D-04
 Largest core mixing into a valence orbital is  1.81D-05
 Range of M.O.s used for correlation:     6   147
 NBasis=   147 NAE=    18 NBE=    18 NFC=     5 NFV=     0
 NROrb=    142 NOA=    13 NOB=    13 NVA=   129 NVB=   129

 **** Warning!!: The largest alpha MO coefficient is  0.21428382D+02

 Leave Link  801 at Tue Oct 26 13:20:09 2021, MaxMem= 16106127360 cpu:               4.3 elap:               0.2
 (Enter /sw/contrib/gaussian/g16/B01/g16/l906.exe)
 Frozen-core derivative calculation, NFC=   5 NFV=   0.
 FulOut=F Deriv=T AODrv=F NAtomX=     4
   MMem=         225  MDisk=          13 MDiskD=          13
  W3Min=      449820 MinDsk=      818995 NBas6D=         170
 NBas2D=       14925    NTT=       14535    LW2=    26219120
    MDV= 16105851799 MDiskM=      473642 NBas2p=       14925
 Fully in-core method, ICMem=   303093605.
 IMap=   1   2   3   4   5   6   7   8   9  10  11  12  13  14  15  16  17  18
 JobTyp=1 Pass  1 fully in-core, NPsUse= 28.
 Compute canonical integrals.
 FoFCou: FMM=F IPFlag=           0 FMFlag=           0 FMFlg1=           0
         NFxFlg=           0 DoJE=F BraDBF=F KetDBF=F FulRan=T
         wScrn=  0.000000 ICntrl=       600 IOpCl=  1 I1Cent=           0 NGrid=           0
         NMat0=    1 NMatS0=  14925 NMatT0=    0 NMatD0=    1 NMtDS0=    0 NMtDT0=    0
 Symmetry not used in FoFCou.
 Spin components of T(2) and E(2):
     alpha-alpha T2 =       0.2071206374D-01 E2=     -0.6606034545D-01
     alpha-beta  T2 =       0.1085633156D+00 E2=     -0.3558455288D+00
     beta-beta   T2 =       0.2071206374D-01 E2=     -0.6606034545D-01
 The integrals were generated   1 times.
 ANorm=    0.1072374675D+01
 E2 =    -0.4879662197D+00 EUMP2 =    -0.37127148796517D+03
 Leave Link  906 at Tue Oct 26 13:20:12 2021, MaxMem= 16106127360 cpu:              82.8 elap:               3.0
 (Enter /sw/contrib/gaussian/g16/B01/g16/l1002.exe)
 Minotr:  Closed shell wavefunction.
          Computing MP2/KS-MP2 derivatives.
          Using Z-Vector for PSCF gradient.
          Skipping F1 and S1 gradient terms here.
          Frozen-core window.
          Direct CPHF calculation.
          Differentiating once with respect to electric field.
                with respect to dipole field.
          Electric field/nuclear overlap derivatives assumed to be zero.
          Requested convergence is 1.0D-10 RMS, and 1.0D-09 maximum.
          NewPWx=F KeepS1=T KeepF1=T KeepIn=T MapXYZ=F SortEE=F KeepMc=T.
 Keep R1 ints in memory in canonical form, NReq=117071895.
 FoFCou: FMM=F IPFlag=           0 FMFlag=           0 FMFlg1=           0
         NFxFlg=           0 DoJE=F BraDBF=F KetDBF=F FulRan=T
         wScrn=  0.000000 ICntrl=       600 IOpCl=  0 I1Cent=           0 NGrid=           0
         NMat0=    1 NMatS0=  10878 NMatT0=    0 NMatD0=    1 NMtDS0=    0 NMtDT0=    0
 Symmetry not used in FoFCou.
 Two-electron integral symmetry not used.
          MDV=   16106127360 using IRadAn=       5.
          Solving linear equations separately, MaxMat=       0.
          There are     1 degrees of freedom in the 1st order CPHF.  IDoFFX=0 NUNeed=     1.
 LinEq1:  Iter=  0 NonCon=     1 RMS=2.38D-03 Max=3.60D-02 NDo=     1
 AX will form     1 AO Fock derivatives at one time.
 LinEq1:  Iter=  1 NonCon=     1 RMS=3.75D-04 Max=3.24D-03 NDo=     1
 LinEq1:  Iter=  2 NonCon=     1 RMS=1.74D-04 Max=2.13D-03 NDo=     1
 LinEq1:  Iter=  3 NonCon=     1 RMS=3.49D-05 Max=4.88D-04 NDo=     1
 LinEq1:  Iter=  4 NonCon=     1 RMS=8.64D-06 Max=8.79D-05 NDo=     1
 LinEq1:  Iter=  5 NonCon=     1 RMS=2.55D-06 Max=3.10D-05 NDo=     1
 LinEq1:  Iter=  6 NonCon=     1 RMS=5.16D-07 Max=5.70D-06 NDo=     1
 LinEq1:  Iter=  7 NonCon=     1 RMS=1.12D-07 Max=1.51D-06 NDo=     1
 LinEq1:  Iter=  8 NonCon=     1 RMS=3.11D-08 Max=3.59D-07 NDo=     1
 LinEq1:  Iter=  9 NonCon=     1 RMS=6.36D-09 Max=8.91D-08 NDo=     1
 LinEq1:  Iter= 10 NonCon=     1 RMS=1.11D-09 Max=1.33D-08 NDo=     1
 LinEq1:  Iter= 11 NonCon=     1 RMS=1.77D-10 Max=2.66D-09 NDo=     1
 LinEq1:  Iter= 12 NonCon=     0 RMS=3.79D-11 Max=5.47D-10 NDo=     1
 Linear equations converged to 1.000D-10 1.000D-09 after    12 iterations.
 End of Minotr F.D. properties file   721 does not exist.
 End of Minotr F.D. properties file   722 does not exist.
 End of Minotr F.D. properties file   788 does not exist.
 Leave Link 1002 at Tue Oct 26 13:20:14 2021, MaxMem= 16106127360 cpu:              33.7 elap:               2.4
 (Enter /sw/contrib/gaussian/g16/B01/g16/l601.exe)
 Copying SCF densities to generalized density rwf, IOpCl= 0 IROHF=0.

 **********************************************************************

            Population analysis using the MP2 Density.

 **********************************************************************

 Alpha  occ. eigenvalues --  -20.39721  -7.46180  -5.28726  -5.28712  -5.28712
 Alpha  occ. eigenvalues --   -2.01464  -2.01459  -2.01456  -2.01441  -2.01440
 Alpha  occ. eigenvalues --   -1.25116  -0.62435  -0.60053  -0.45278  -0.36582
 Alpha  occ. eigenvalues --   -0.14175  -0.13735  -0.13703
 Alpha virt. eigenvalues --    0.12994   0.16836   0.23440   0.24518   0.25395
 Alpha virt. eigenvalues --    0.26686   0.28139   0.28647   0.31343   0.33217
 Alpha virt. eigenvalues --    0.36808   0.37328   0.37596   0.39626   0.40814
 Alpha virt. eigenvalues --    0.41710   0.45257   0.47494   0.53911   0.54648
 Alpha virt. eigenvalues --    0.56956   0.60262   0.66453   0.70972   0.77395
 Alpha virt. eigenvalues --    0.78518   0.78643   0.79908   0.80403   0.80499
 Alpha virt. eigenvalues --    0.82579   0.84513   0.85568   0.85725   0.87298
 Alpha virt. eigenvalues --    0.87454   0.88567   0.88811   0.89068   0.90214
 Alpha virt. eigenvalues --    0.92153   0.97431   0.99103   1.06886   1.07212
 Alpha virt. eigenvalues --    1.09112   1.09336   1.12687   1.13233   1.14886
 Alpha virt. eigenvalues --    1.17709   1.20462   1.33798   1.37404   1.38768
 Alpha virt. eigenvalues --    1.41316   1.46803   1.53790   1.55064   1.67115
 Alpha virt. eigenvalues --    1.73370   1.75636   1.75657   1.77406   1.78609
 Alpha virt. eigenvalues --    1.80009   1.81296   1.84875   1.88152   1.88572
 Alpha virt. eigenvalues --    2.00168   2.05664   2.05997   2.10082   2.10965
 Alpha virt. eigenvalues --    2.11449   2.17236   2.26853   2.43317   2.49779
 Alpha virt. eigenvalues --    2.56407   2.58711   2.62574   2.65138   2.79920
 Alpha virt. eigenvalues --    2.82832   2.86315   2.93087   3.01584   3.07149
 Alpha virt. eigenvalues --    3.09582   3.23213   3.25949   3.87165   3.94824
 Alpha virt. eigenvalues --    4.16700   4.25471   4.34395   4.41363   4.48058
 Alpha virt. eigenvalues --    4.56496   4.61382   4.61479   4.69384   4.77759
 Alpha virt. eigenvalues --    5.01657   5.20974   5.37302   5.43735   5.57390
 Alpha virt. eigenvalues --    5.97702   6.01146   6.29597   6.59516   6.71326
 Alpha virt. eigenvalues --    6.92847   7.27172   7.34256   7.41369   7.44582
 Alpha virt. eigenvalues --    7.47977   7.79573   8.04004   8.05464   8.26337
 Alpha virt. eigenvalues --    9.00523   9.34278  20.31882  59.21925
          Condensed to atoms (all electrons):
               1          2          3          4
     1  O    8.011549   0.253416  -0.043428   0.149893
     2  H    0.253416   0.597385   0.009512  -0.037191
     3  I   -0.043428   0.009512  25.967700   0.023485
     4  H    0.149893  -0.037191   0.023485   0.711990
 Mulliken charges:
               1
     1  O   -0.371431
     2  H    0.176878
     3  I   -0.957270
     4  H    0.151824
 Sum of Mulliken charges =  -1.00000
 Mulliken charges with hydrogens summed into heavy atoms:
               1
     1  O   -0.042730
     3  I   -0.957270
 Electronic spatial extent (au):  <R**2>=           1236.3653
 Charge=             -1.0000 electrons
 Dipole moment (field-independent basis, Debye):
    X=              4.3491    Y=             14.3218    Z=             -0.0000  Tot=             14.9676
 Quadrupole moment (field-independent basis, Debye-Ang):
   XX=            -41.4261   YY=            -94.0430   ZZ=            -41.8395
   XY=            -10.3353   XZ=              0.0000   YZ=              0.0000
 Traceless Quadrupole moment (field-independent basis, Debye-Ang):
   XX=             17.6767   YY=            -34.9401   ZZ=             17.2634
   XY=            -10.3353   XZ=              0.0000   YZ=              0.0000
 Octapole moment (field-independent basis, Debye-Ang**2):
  XXX=             74.9500  YYY=            533.9229  ZZZ=             -0.0000  XYY=             60.5557
  XXY=            124.7356  XXZ=             -0.0000  XZZ=             23.8090  YZZ=            117.2164
  YYZ=             -0.0000  XYZ=             -0.0000
 Hexadecapole moment (field-independent basis, Debye-Ang**3):
 XXXX=           -182.2042 YYYY=          -3103.9499 ZZZZ=            -77.3684 XXXY=           -255.9435
 XXXZ=              0.0000 YYYX=           -375.6475 YYYZ=              0.0000 ZZZX=              0.0000
 ZZZY=              0.0000 XXYY=           -470.1814 XXZZ=            -43.4646 YYZZ=           -427.2343
 XXYZ=              0.0000 YYXZ=              0.0000 ZZXY=            -83.6322
 N-N= 4.859337825211D+01 E-N=-9.104555382166D+02  KE= 1.874575550587D+02
 No NMR shielding tensors so no spin-rotation constants.
 Leave Link  601 at Tue Oct 26 13:20:15 2021, MaxMem= 16106127360 cpu:               4.1 elap:               0.2
 (Enter /sw/contrib/gaussian/g16/B01/g16/l607.exe)
 ******************************Gaussian NBO Version 3.1******************************
             N A T U R A L   A T O M I C   O R B I T A L   A N D
          N A T U R A L   B O N D   O R B I T A L   A N A L Y S I S
 ******************************Gaussian NBO Version 3.1******************************
       /RESON  / : Allow strongly delocalized NBO set

 Analyzing the MP2 density

 Job title: title                                                           

 Storage needed:     65577 in NPA,     86948 in NBO (********** available)
 GSVD:  LWork=         -15 too small for GESVD, short by       42345 words or       42345 for optimal perf.


 NATURAL POPULATIONS:  Natural atomic orbital occupancies 
                                                          
   NAO  Atom  No  lang   Type(AO)    Occupancy
 --------------------------------------------
     1    O    1  S      Cor( 1S)     1.99956
     2    O    1  S      Val( 2S)     1.67626
     3    O    1  S      Ryd( 3S)     0.00583
     4    O    1  S      Ryd( 4S)     0.00048
     5    O    1  S      Ryd( 5S)     0.00021
     6    O    1  px     Val( 2p)     1.52163
     7    O    1  px     Ryd( 3p)     0.00868
     8    O    1  px     Ryd( 4p)     0.00052
     9    O    1  px     Ryd( 5p)     0.00006
    10    O    1  py     Val( 2p)     1.64490
    11    O    1  py     Ryd( 3p)     0.01214
    12    O    1  py     Ryd( 4p)     0.00055
    13    O    1  py     Ryd( 5p)     0.00008
    14    O    1  pz     Val( 2p)     1.95427
    15    O    1  pz     Ryd( 3p)     0.01956
    16    O    1  pz     Ryd( 4p)     0.00058
    17    O    1  pz     Ryd( 5p)     0.00002
    18    O    1  dxy    Ryd( 3d)     0.00823
    19    O    1  dxy    Ryd( 4d)     0.00038
    20    O    1  dxy    Ryd( 5d)     0.00006
    21    O    1  dxz    Ryd( 3d)     0.00765
    22    O    1  dxz    Ryd( 4d)     0.00040
    23    O    1  dxz    Ryd( 5d)     0.00006
    24    O    1  dyz    Ryd( 3d)     0.00812
    25    O    1  dyz    Ryd( 4d)     0.00041
    26    O    1  dyz    Ryd( 5d)     0.00010
    27    O    1  dx2y2  Ryd( 3d)     0.01107
    28    O    1  dx2y2  Ryd( 4d)     0.00023
    29    O    1  dx2y2  Ryd( 5d)     0.00007
    30    O    1  dz2    Ryd( 3d)     0.00891
    31    O    1  dz2    Ryd( 4d)     0.00036
    32    O    1  dz2    Ryd( 5d)     0.00007
    33    O    1  f(0)   Ryd( 4f)     0.00064
    34    O    1  f(0)   Ryd( 5f)     0.00009
    35    O    1  f(C1)  Ryd( 4f)     0.00055
    36    O    1  f(C1)  Ryd( 5f)     0.00007
    37    O    1  f(S1)  Ryd( 4f)     0.00051
    38    O    1  f(S1)  Ryd( 5f)     0.00008
    39    O    1  f(C2)  Ryd( 4f)     0.00043
    40    O    1  f(C2)  Ryd( 5f)     0.00008
    41    O    1  f(S2)  Ryd( 4f)     0.00044
    42    O    1  f(S2)  Ryd( 5f)     0.00007
    43    O    1  f(C3)  Ryd( 4f)     0.00038
    44    O    1  f(C3)  Ryd( 5f)     0.00011
    45    O    1  f(S3)  Ryd( 4f)     0.00036
    46    O    1  f(S3)  Ryd( 5f)     0.00011

    47    H    2  S      Val( 1S)     0.54883
    48    H    2  S      Ryd( 2S)     0.00141
    49    H    2  S      Ryd( 3S)     0.00021
    50    H    2  S      Ryd( 4S)     0.00007
    51    H    2  px     Ryd( 2p)     0.00125
    52    H    2  px     Ryd( 3p)     0.00043
    53    H    2  px     Ryd( 4p)     0.00013
    54    H    2  py     Ryd( 2p)     0.00190
    55    H    2  py     Ryd( 3p)     0.00023
    56    H    2  py     Ryd( 4p)     0.00008
    57    H    2  pz     Ryd( 2p)     0.00518
    58    H    2  pz     Ryd( 3p)     0.00018
    59    H    2  pz     Ryd( 4p)     0.00005
    60    H    2  dxy    Ryd( 3d)     0.00006
    61    H    2  dxy    Ryd( 4d)     0.00005
    62    H    2  dxz    Ryd( 3d)     0.00007
    63    H    2  dxz    Ryd( 4d)     0.00006
    64    H    2  dyz    Ryd( 3d)     0.00011
    65    H    2  dyz    Ryd( 4d)     0.00003
    66    H    2  dx2y2  Ryd( 3d)     0.00009
    67    H    2  dx2y2  Ryd( 4d)     0.00004
    68    H    2  dz2    Ryd( 3d)     0.00010
    69    H    2  dz2    Ryd( 4d)     0.00005

    70    I    3  S      Cor( 4S)     2.00002
    71    I    3  S      Val( 5S)     1.98037
    72    I    3  S      Ryd( 6S)     0.00356
    73    I    3  S      Ryd( 7S)     0.00057
    74    I    3  S      Ryd( 8S)     0.00009
    75    I    3  S      Ryd( 9S)     0.00000
    76    I    3  px     Cor( 4p)     2.00007
    77    I    3  px     Val( 5p)     1.95099
    78    I    3  px     Ryd( 6p)     0.01119
    79    I    3  px     Ryd( 7p)     0.00075
    80    I    3  px     Ryd( 8p)     0.00008
    81    I    3  py     Cor( 4p)     2.00006
    82    I    3  py     Val( 5p)     1.94354
    83    I    3  py     Ryd( 6p)     0.01032
    84    I    3  py     Ryd( 7p)     0.00069
    85    I    3  py     Ryd( 8p)     0.00015
    86    I    3  pz     Cor( 4p)     2.00007
    87    I    3  pz     Val( 5p)     1.95168
    88    I    3  pz     Ryd( 6p)     0.01118
    89    I    3  pz     Ryd( 7p)     0.00076
    90    I    3  pz     Ryd( 8p)     0.00008
    91    I    3  dxy    Cor( 4d)     1.99675
    92    I    3  dxy    Ryd( 5d)     0.02036
    93    I    3  dxy    Ryd( 6d)     0.00148
    94    I    3  dxy    Ryd( 7d)     0.00018
    95    I    3  dxz    Cor( 4d)     1.99679
    96    I    3  dxz    Ryd( 5d)     0.02022
    97    I    3  dxz    Ryd( 6d)     0.00168
    98    I    3  dxz    Ryd( 7d)     0.00017
    99    I    3  dyz    Cor( 4d)     1.99677
   100    I    3  dyz    Ryd( 5d)     0.02028
   101    I    3  dyz    Ryd( 6d)     0.00147
   102    I    3  dyz    Ryd( 7d)     0.00017
   103    I    3  dx2y2  Cor( 4d)     1.99673
   104    I    3  dx2y2  Ryd( 5d)     0.02020
   105    I    3  dx2y2  Ryd( 6d)     0.00163
   106    I    3  dx2y2  Ryd( 7d)     0.00021
   107    I    3  dz2    Cor( 4d)     1.99677
   108    I    3  dz2    Ryd( 5d)     0.02023
   109    I    3  dz2    Ryd( 6d)     0.00167
   110    I    3  dz2    Ryd( 7d)     0.00018
   111    I    3  f(0)   Ryd( 4f)     0.00274
   112    I    3  f(0)   Ryd( 5f)     0.00043
   113    I    3  f(C1)  Ryd( 4f)     0.00276
   114    I    3  f(C1)  Ryd( 5f)     0.00043
   115    I    3  f(S1)  Ryd( 4f)     0.00277
   116    I    3  f(S1)  Ryd( 5f)     0.00045
   117    I    3  f(C2)  Ryd( 4f)     0.00273
   118    I    3  f(C2)  Ryd( 5f)     0.00043
   119    I    3  f(S2)  Ryd( 4f)     0.00278
   120    I    3  f(S2)  Ryd( 5f)     0.00044
   121    I    3  f(C3)  Ryd( 4f)     0.00271
   122    I    3  f(C3)  Ryd( 5f)     0.00044
   123    I    3  f(S3)  Ryd( 4f)     0.00273
   124    I    3  f(S3)  Ryd( 5f)     0.00046

   125    H    4  S      Val( 1S)     0.54090
   126    H    4  S      Ryd( 2S)     0.00570
   127    H    4  S      Ryd( 3S)     0.00035
   128    H    4  S      Ryd( 4S)     0.00015
   129    H    4  px     Ryd( 2p)     0.00327
   130    H    4  px     Ryd( 3p)     0.00032
   131    H    4  px     Ryd( 4p)     0.00012
   132    H    4  py     Ryd( 2p)     0.00402
   133    H    4  py     Ryd( 3p)     0.00056
   134    H    4  py     Ryd( 4p)     0.00026
   135    H    4  pz     Ryd( 2p)     0.00412
   136    H    4  pz     Ryd( 3p)     0.00038
   137    H    4  pz     Ryd( 4p)     0.00012
   138    H    4  dxy    Ryd( 3d)     0.00017
   139    H    4  dxy    Ryd( 4d)     0.00008
   140    H    4  dxz    Ryd( 3d)     0.00011
   141    H    4  dxz    Ryd( 4d)     0.00010
   142    H    4  dyz    Ryd( 3d)     0.00017
   143    H    4  dyz    Ryd( 4d)     0.00007
   144    H    4  dx2y2  Ryd( 3d)     0.00018
   145    H    4  dx2y2  Ryd( 4d)     0.00012
   146    H    4  dz2    Ryd( 3d)     0.00014
   147    H    4  dz2    Ryd( 4d)     0.00012

 [ 28 electrons found in the effective core potential]

 WARNING:  5 low occupancy (<1.9990e) core orbitals found on  I    3


 Summary of Natural Population Analysis:                  
                                                          
                                       Natural Population 
                Natural  -----------------------------------------------
    Atom  No    Charge         Core      Valence    Rydberg      Total
 -----------------------------------------------------------------------
      O    1   -0.89539      1.99956     6.79707    0.09877     8.89539
      H    2    0.43938      0.00000     0.54883    0.01178     0.56062
      I    3   -0.98246     45.98403     7.82659    0.17183    53.98246
      H    4    0.43847      0.00000     0.54090    0.02063     0.56153
 =======================================================================
   * Total *   -1.00000     47.98360    15.71339    0.30301    64.00000

                                 Natural Population      
 --------------------------------------------------------
   Effective Core            28.00000
   Core                      19.98360 ( 99.9180% of  20)
   Valence                   15.71339 ( 98.2087% of  16)
   Natural Minimal Basis     63.69699 ( 99.5265% of  64)
   Natural Rydberg Basis      0.30301 (  0.4735% of  64)
 --------------------------------------------------------

    Atom  No          Natural Electron Configuration
 ----------------------------------------------------------------------------
      O    1      [core]2S( 1.68)2p( 5.12)3S( 0.01)3p( 0.04)3d( 0.04)
      H    2            1S( 0.55)2p( 0.01)
      I    3      [core]5S( 1.98)5p( 5.85)4f( 0.02)5d( 0.10)6p( 0.03)6d( 0.01)
      H    4            1S( 0.54)2S( 0.01)2p( 0.01)


 NATURAL BOND ORBITAL ANALYSIS:

                       Occupancies       Lewis Structure    Low   High
           Occ.    -------------------  -----------------   occ   occ
  Cycle   Thresh.   Lewis   Non-Lewis     CR  BD  3C  LP    (L)   (NL)   Dev
 =============================================================================
   1(1)    1.90    63.68532   0.31468     10   2   0   6     0      0    0.01
 -----------------------------------------------------------------------------

 Structure accepted: No low occupancy Lewis orbitals

 WARNING:  5 low occupancy (<1.9990e) core orbitals found on  I    3

 --------------------------------------------------------
   Effective Core           28.00000
   Core                     19.98360 ( 99.918% of  20)
   Valence Lewis            15.70172 ( 98.136% of  16)
  ==================       ============================
   Total Lewis              63.68532 ( 99.508% of  64)
  -----------------------------------------------------
   Valence non-Lewis         0.04070 (  0.064% of  64)
   Rydberg non-Lewis         0.27398 (  0.428% of  64)
  ==================       ============================
   Total non-Lewis           0.31468 (  0.492% of  64)
 --------------------------------------------------------


       (Occupancy)   Bond orbital/ Coefficients/ Hybrids
 ---------------------------------------------------------------------------------
     1. (1.96754) BD ( 1) O   1 - H   2  
                ( 72.86%)   0.8536* O   1 s( 20.60%)p 3.83( 78.98%)d 0.02(  0.41%)
                                                  f 0.00(  0.01%)
                                            0.0002  0.4539 -0.0011 -0.0010 -0.0020
                                            0.8844 -0.0267  0.0099 -0.0020  0.0806
                                           -0.0182  0.0009 -0.0021  0.0000  0.0000
                                            0.0000  0.0000 -0.0231  0.0026  0.0002
                                            0.0000  0.0000  0.0000  0.0000  0.0000
                                            0.0000  0.0483 -0.0030 -0.0028 -0.0344
                                            0.0033  0.0005  0.0000  0.0000 -0.0097
                                           -0.0001  0.0002 -0.0004  0.0000  0.0000
                                            0.0000  0.0000  0.0027  0.0027  0.0025
                                           -0.0003
                ( 27.14%)   0.5210* H   2 s( 99.91%)p 0.00(  0.08%)d 0.00(  0.00%)
                                            0.9996  0.0027 -0.0002  0.0003  0.0111
                                            0.0240 -0.0054 -0.0097 -0.0044 -0.0026
                                            0.0000  0.0000  0.0000 -0.0008 -0.0016
                                            0.0000  0.0000  0.0000  0.0000 -0.0034
                                           -0.0009 -0.0004  0.0009
     2. (1.97543) BD ( 1) O   1 - H   4  
                ( 73.33%)   0.8563* O   1 s( 34.02%)p 1.93( 65.56%)d 0.01(  0.40%)
                                                  f 0.00(  0.01%)
                                           -0.0003 -0.5831  0.0149  0.0024  0.0034
                                            0.2256 -0.0229  0.0009 -0.0010  0.7764
                                           -0.0377  0.0051 -0.0006  0.0000  0.0000
                                            0.0000  0.0000 -0.0020 -0.0041 -0.0012
                                            0.0000  0.0000  0.0000  0.0000  0.0000
                                            0.0000  0.0518  0.0005 -0.0018  0.0362
                                            0.0009  0.0011  0.0000  0.0000 -0.0019
                                           -0.0003 -0.0081 -0.0016  0.0000  0.0000
                                            0.0000  0.0000 -0.0030 -0.0030 -0.0017
                                           -0.0042
                ( 26.67%)   0.5164* H   4 s( 99.90%)p 0.00(  0.09%)d 0.00(  0.01%)
                                           -0.9995 -0.0104 -0.0001  0.0005 -0.0137
                                           -0.0024 -0.0015 -0.0091 -0.0228 -0.0106
                                            0.0000  0.0000  0.0000  0.0021 -0.0008
                                            0.0000  0.0000  0.0000  0.0000 -0.0052
                                            0.0042 -0.0027  0.0048
     3. (1.99956) CR ( 1) O   1           s(100.00%)
                                            1.0000 -0.0005  0.0000  0.0000  0.0000
                                           -0.0000  0.0000 -0.0000  0.0000  0.0001
                                           -0.0000  0.0000  0.0000  0.0000  0.0000
                                            0.0000  0.0000 -0.0000 -0.0000 -0.0000
                                            0.0000  0.0000  0.0000  0.0000  0.0000
                                            0.0000  0.0000  0.0000 -0.0000  0.0000
                                           -0.0000  0.0000  0.0000  0.0000  0.0000
                                            0.0000 -0.0000 -0.0000  0.0000  0.0000
                                            0.0000  0.0000 -0.0000 -0.0000 -0.0000
                                           -0.0000
     4. (2.00002) CR ( 1) I   3           s(100.00%)
                                            1.0000 -0.0000  0.0000 -0.0000 -0.0000
                                           -0.0000  0.0000 -0.0000 -0.0000 -0.0000
                                            0.0000  0.0000 -0.0000  0.0000  0.0000
                                           -0.0000  0.0000  0.0000  0.0000  0.0000
                                            0.0000  0.0000 -0.0000  0.0000 -0.0000
                                            0.0000  0.0000  0.0000  0.0000  0.0000
                                            0.0000  0.0000  0.0000 -0.0000  0.0000
                                           -0.0000 -0.0000 -0.0000  0.0000 -0.0000
                                            0.0000  0.0000  0.0000  0.0000  0.0000
                                            0.0000  0.0000  0.0000  0.0000  0.0000
                                            0.0000  0.0000  0.0000  0.0000  0.0000
     5. (2.00007) CR ( 2) I   3           s(  0.00%)p 1.00(100.00%)
                                            0.0000  0.0000  0.0000 -0.0000  0.0000
                                           -0.0000  1.0000 -0.0000 -0.0000 -0.0000
                                            0.0000 -0.0000  0.0000 -0.0000 -0.0000
                                            0.0000  0.0000  0.0000  0.0000  0.0000
                                            0.0000  0.0000 -0.0000  0.0000  0.0000
                                            0.0000  0.0000  0.0000  0.0000  0.0000
                                            0.0000  0.0000  0.0000  0.0000 -0.0000
                                            0.0000 -0.0000  0.0000 -0.0000 -0.0000
                                            0.0000  0.0000  0.0000  0.0000  0.0000
                                           -0.0000 -0.0000  0.0000  0.0000  0.0000
                                            0.0000  0.0000  0.0000 -0.0000 -0.0000
     6. (2.00006) CR ( 3) I   3           s(  0.00%)p 1.00(100.00%)
                                            0.0000  0.0000 -0.0000  0.0000  0.0000
                                            0.0000 -0.0000  0.0000  0.0000  0.0000
                                           -0.0000  1.0000  0.0000 -0.0000 -0.0000
                                            0.0000  0.0000  0.0000  0.0000  0.0000
                                            0.0000 -0.0000  0.0000 -0.0000  0.0000
                                            0.0000  0.0000  0.0000  0.0000  0.0000
                                            0.0000  0.0000  0.0000  0.0000 -0.0000
                                            0.0000  0.0000  0.0000 -0.0000  0.0000
                                           -0.0000  0.0000  0.0000 -0.0000 -0.0000
                                           -0.0000 -0.0000  0.0000  0.0000  0.0000
                                            0.0000 -0.0000 -0.0000 -0.0000 -0.0000
     7. (2.00007) CR ( 4) I   3           s(  0.00%)p 1.00(100.00%)
                                            0.0000  0.0000  0.0000  0.0000  0.0000
                                            0.0000  0.0000  0.0000  0.0000  0.0000
                                            0.0000  0.0000  0.0000  0.0000  0.0000
                                            0.0000  1.0000 -0.0000  0.0000 -0.0000
                                            0.0000  0.0000  0.0000  0.0000  0.0000
                                            0.0000 -0.0000  0.0000 -0.0000  0.0000
                                           -0.0000  0.0000  0.0000  0.0000  0.0000
                                            0.0000  0.0000  0.0000  0.0000  0.0000
                                            0.0000  0.0000  0.0000  0.0000  0.0000
                                            0.0000  0.0000  0.0000  0.0000 -0.0000
                                           -0.0000  0.0000  0.0000  0.0000  0.0000
     8. (1.99675) CR ( 5) I   3           s(  0.00%)p 0.00(  0.00%)d 1.00(100.00%)
                                            0.0000  0.0000 -0.0000  0.0000 -0.0000
                                            0.0000  0.0000  0.0000  0.0000  0.0000
                                           -0.0000 -0.0000  0.0000  0.0000 -0.0000
                                            0.0000  0.0000  0.0000  0.0000  0.0000
                                            0.0000  1.0000  0.0000 -0.0000  0.0000
                                            0.0000  0.0000  0.0000  0.0000  0.0000
                                            0.0000  0.0000  0.0000  0.0000 -0.0000
                                            0.0000  0.0000  0.0000 -0.0000  0.0000
                                           -0.0000  0.0000  0.0000 -0.0000 -0.0000
                                           -0.0000 -0.0000  0.0000  0.0000  0.0000
                                            0.0000 -0.0000 -0.0000 -0.0000 -0.0000
     9. (1.99679) CR ( 6) I   3           s(  0.00%)p 0.00(  0.00%)d 1.00(100.00%)
                                            0.0000  0.0000  0.0000  0.0000  0.0000
                                            0.0000  0.0000  0.0000  0.0000  0.0000
                                            0.0000  0.0000  0.0000  0.0000  0.0000
                                            0.0000  0.0000  0.0000 -0.0000  0.0000
                                           -0.0000  0.0000  0.0000  0.0000  0.0000
                                            1.0000  0.0000 -0.0000  0.0000 -0.0000
                                            0.0000 -0.0000 -0.0000  0.0000  0.0000
                                            0.0000  0.0000  0.0000  0.0000  0.0000
                                            0.0000 -0.0000 -0.0000  0.0000  0.0000
                                            0.0000  0.0000 -0.0000 -0.0000  0.0000
                                            0.0000  0.0000  0.0000  0.0000  0.0000
    10. (1.99677) CR ( 7) I   3           s(  0.00%)p 0.00(  0.00%)d 1.00(100.00%)
                                            0.0000  0.0000  0.0000  0.0000  0.0000
                                            0.0000  0.0000  0.0000  0.0000  0.0000
                                            0.0000  0.0000  0.0000  0.0000  0.0000
                                            0.0000  0.0000  0.0000 -0.0000  0.0000
                                           -0.0000  0.0000  0.0000  0.0000  0.0000
                                           -0.0000  0.0000 -0.0000  0.0000  1.0000
                                            0.0000 -0.0000 -0.0000  0.0000  0.0000
                                            0.0000  0.0000  0.0000  0.0000  0.0000
                                            0.0000 -0.0000 -0.0000  0.0000  0.0000
                                            0.0000  0.0000 -0.0000 -0.0000  0.0000
                                            0.0000  0.0000  0.0000  0.0000  0.0000
    11. (1.99673) CR ( 8) I   3           s(  0.00%)p 0.00(  0.00%)d 1.00(100.00%)
                                           -0.0000 -0.0000  0.0000  0.0000 -0.0000
                                           -0.0000  0.0000 -0.0000 -0.0000  0.0000
                                            0.0000  0.0000 -0.0000  0.0000  0.0000
                                           -0.0000  0.0000  0.0000  0.0000  0.0000
                                            0.0000  0.0000 -0.0000  0.0000 -0.0000
                                            0.0000  0.0000  0.0000  0.0000  0.0000
                                            0.0000  0.0000  0.0000  1.0000  0.0000
                                           -0.0000 -0.0000 -0.0000  0.0000 -0.0000
                                            0.0000  0.0000  0.0000  0.0000  0.0000
                                            0.0000  0.0000  0.0000  0.0000  0.0000
                                            0.0000  0.0000  0.0000  0.0000  0.0000
    12. (1.99677) CR ( 9) I   3           s(  0.00%)p 0.00(  0.00%)d 1.00(100.00%)
                                           -0.0000 -0.0000  0.0000  0.0000 -0.0000
                                           -0.0000  0.0000 -0.0000 -0.0000 -0.0000
                                            0.0000  0.0000 -0.0000  0.0000  0.0000
                                           -0.0000  0.0000  0.0000  0.0000  0.0000
                                            0.0000  0.0000 -0.0000  0.0000 -0.0000
                                            0.0000  0.0000  0.0000  0.0000  0.0000
                                            0.0000  0.0000  0.0000 -0.0000  0.0000
                                           -0.0000 -0.0000  1.0000  0.0000 -0.0000
                                            0.0000  0.0000  0.0000  0.0000  0.0000
                                            0.0000  0.0000  0.0000  0.0000  0.0000
                                            0.0000  0.0000  0.0000  0.0000  0.0000
    13. (1.97030) LP ( 1) O   1           s( 45.27%)p 1.21( 54.58%)d 0.00(  0.14%)
                                                  f 0.00(  0.00%)
                                            0.0003  0.6728  0.0100  0.0020  0.0029
                                           -0.4010 -0.0096  0.0020 -0.0004  0.6203
                                            0.0113 -0.0039  0.0003  0.0000  0.0000
                                            0.0000  0.0000  0.0308 -0.0045  0.0012
                                            0.0000  0.0000  0.0000  0.0000  0.0000
                                            0.0000  0.0116  0.0001  0.0016  0.0176
                                           -0.0017 -0.0008  0.0000  0.0000  0.0025
                                           -0.0004 -0.0038  0.0009  0.0000  0.0000
                                            0.0000  0.0000  0.0012 -0.0012  0.0006
                                           -0.0015
    14. (1.96123) LP ( 2) O   1           s(  0.00%)p 1.00( 99.78%)d 0.00(  0.21%)
                                                  f 0.00(  0.01%)
                                            0.0000  0.0000  0.0000  0.0000  0.0000
                                            0.0000  0.0000  0.0000  0.0000  0.0000
                                            0.0000  0.0000  0.0000  0.9982  0.0359
                                           -0.0062  0.0016  0.0000  0.0000  0.0000
                                            0.0300 -0.0044 -0.0003 -0.0344  0.0025
                                           -0.0041  0.0000  0.0000  0.0000  0.0000
                                            0.0000  0.0000 -0.0100  0.0022  0.0000
                                            0.0000  0.0000  0.0000 -0.0012  0.0002
                                            0.0023 -0.0000  0.0000  0.0000  0.0000
                                            0.0000
    15. (1.98049) LP ( 1) I   3           s( 99.76%)p 0.00(  0.24%)d 0.00(  0.00%)
                                                  f 0.00(  0.00%)
                                           -0.0000  0.9988  0.0001  0.0000 -0.0000
                                           -0.0000 -0.0000 -0.0077  0.0004 -0.0001
                                            0.0001 -0.0000 -0.0479  0.0006 -0.0006
                                            0.0001  0.0000  0.0000  0.0000  0.0000
                                            0.0000 -0.0000  0.0012 -0.0004 -0.0000
                                            0.0000  0.0000  0.0000  0.0000  0.0000
                                            0.0000  0.0000  0.0000  0.0000 -0.0018
                                            0.0005  0.0000  0.0000 -0.0015  0.0005
                                           -0.0000  0.0000  0.0000 -0.0002 -0.0001
                                           -0.0007 -0.0005  0.0000  0.0000  0.0000
                                            0.0000 -0.0005 -0.0003 -0.0006 -0.0003
    16. (1.95174) LP ( 2) I   3           s(  0.00%)p 1.00(100.00%)d 0.00(  0.00%)
                                                  f 0.00(  0.00%)
                                            0.0000  0.0000  0.0000  0.0000  0.0000
                                            0.0000  0.0000  0.0000  0.0000  0.0000
                                            0.0000  0.0000  0.0000  0.0000  0.0000
                                            0.0000  0.0000  1.0000 -0.0005  0.0006
                                           -0.0000  0.0000  0.0000  0.0000  0.0000
                                           -0.0000  0.0024 -0.0014  0.0012 -0.0000
                                            0.0038 -0.0010 -0.0008  0.0000  0.0000
                                            0.0000  0.0000  0.0000  0.0000  0.0000
                                            0.0000 -0.0013 -0.0010  0.0000  0.0000
                                            0.0000  0.0000 -0.0011 -0.0006  0.0010
                                            0.0009  0.0000  0.0000  0.0000  0.0000
    17. (1.95156) LP ( 3) I   3           s(  0.00%)p 1.00( 99.99%)d 0.00(  0.00%)
                                                  f 0.00(  0.00%)
                                           -0.0000  0.0035  0.0013 -0.0024  0.0021
                                           -0.0001 -0.0000 -0.9736 -0.0010 -0.0011
                                            0.0006  0.0000  0.2282 -0.0013 -0.0004
                                            0.0007 -0.0000 -0.0000 -0.0000 -0.0000
                                           -0.0000  0.0000 -0.0044  0.0011  0.0005
                                           -0.0000 -0.0000 -0.0000 -0.0000 -0.0000
                                           -0.0000 -0.0000 -0.0000  0.0000 -0.0037
                                            0.0017 -0.0009 -0.0000  0.0010 -0.0007
                                            0.0009 -0.0000 -0.0000  0.0007  0.0006
                                           -0.0001 -0.0000 -0.0000 -0.0000 -0.0000
                                           -0.0000  0.0010  0.0005 -0.0016 -0.0013
    18. (1.94344) LP ( 4) I   3           s(  0.23%)p99.99( 99.74%)d 0.08(  0.02%)
                                                  f 0.01(  0.00%)
                                            0.0000  0.0484 -0.0014 -0.0002  0.0007
                                            0.0002 -0.0000  0.2281  0.0013  0.0000
                                           -0.0002 -0.0000  0.9723 -0.0005 -0.0016
                                            0.0005  0.0000  0.0000  0.0000  0.0000
                                            0.0000 -0.0000  0.0070 -0.0017  0.0007
                                            0.0000  0.0000  0.0000  0.0000  0.0000
                                            0.0000  0.0000  0.0000  0.0000 -0.0092
                                            0.0013  0.0012  0.0000 -0.0073  0.0016
                                           -0.0002  0.0000  0.0000 -0.0007 -0.0005
                                           -0.0026 -0.0017  0.0000  0.0000  0.0000
                                            0.0000 -0.0020 -0.0010 -0.0020 -0.0009
    19. (0.01726) RY*( 1) O   1           s(  0.00%)p 1.00( 98.56%)d 0.01(  1.43%)
                                                  f 0.00(  0.01%)
                                            0.0000  0.0000  0.0000  0.0000  0.0000
                                            0.0000  0.0000  0.0000  0.0000  0.0000
                                            0.0000  0.0000  0.0000 -0.0404  0.9913
                                            0.0336 -0.0110  0.0000  0.0000  0.0000
                                            0.1089 -0.0159 -0.0076 -0.0451  0.0116
                                           -0.0009  0.0000  0.0000  0.0000  0.0000
                                            0.0000  0.0000 -0.0039  0.0073  0.0000
                                            0.0000  0.0000  0.0000  0.0020 -0.0001
                                           -0.0039  0.0002  0.0000  0.0000  0.0000
                                            0.0000
    20. (0.01378) RY*( 2) O   1           s( 22.97%)p 3.26( 74.86%)d 0.09(  2.11%)
                                                  f 0.00(  0.06%)
                                            0.0000 -0.0180  0.4788 -0.0094  0.0015
                                            0.0172 -0.4525 -0.0169 -0.0005 -0.0049
                                            0.7367  0.0199 -0.0099  0.0000  0.0000
                                            0.0000  0.0000  0.1420 -0.0144  0.0013
                                            0.0000  0.0000  0.0000  0.0000  0.0000
                                            0.0000 -0.0144 -0.0002  0.0066  0.0203
                                           -0.0108 -0.0005  0.0000  0.0000  0.0016
                                           -0.0001  0.0049  0.0020  0.0000  0.0000
                                            0.0000  0.0000  0.0165 -0.0095  0.0151
                                           -0.0046
    21. (0.00617) RY*( 3) O   1           s(  0.61%)p99.32( 60.72%)d62.22( 38.04%)
                                                  f 1.03(  0.63%)
                                           -0.0000  0.0057  0.0662 -0.0412  0.0007
                                           -0.0678 -0.6771 -0.0465  0.0180 -0.0411
                                           -0.3726 -0.0336  0.0092 -0.0000 -0.0000
                                           -0.0000 -0.0000 -0.3699 -0.0068  0.0008
                                           -0.0000 -0.0000 -0.0000 -0.0000 -0.0000
                                           -0.0000  0.4720  0.0242  0.0122 -0.1413
                                           -0.0076 -0.0031 -0.0000 -0.0000 -0.0456
                                            0.0214 -0.0169  0.0023 -0.0000 -0.0000
                                           -0.0000 -0.0000 -0.0030 -0.0095 -0.0539
                                            0.0212
    22. (0.00586) RY*( 4) O   1           s(  0.00%)p 1.00(  0.14%)d99.99( 98.96%)
                                                  f 6.52(  0.90%)
                                            0.0000  0.0000  0.0000  0.0000  0.0000
                                            0.0000  0.0000  0.0000  0.0000  0.0000
                                            0.0000  0.0000  0.0000  0.0089 -0.0341
                                           -0.0119 -0.0006  0.0000  0.0000  0.0000
                                            0.6330  0.0229  0.0095  0.7662  0.0357
                                            0.0078  0.0000  0.0000  0.0000  0.0000
                                            0.0000  0.0000  0.0145 -0.0032  0.0000
                                            0.0000  0.0000  0.0000  0.0846 -0.0389
                                           -0.0102  0.0017  0.0000  0.0000  0.0000
                                            0.0000
    23. (0.00579) RY*( 5) O   1           s(  0.00%)p 1.00(  1.47%)d66.66( 97.77%)
                                                  f 0.52(  0.76%)
                                            0.0000  0.0000  0.0000  0.0000  0.0000
                                            0.0000  0.0000  0.0000  0.0000  0.0000
                                            0.0000  0.0000  0.0000 -0.0410 -0.1136
                                           -0.0026 -0.0085  0.0000  0.0000  0.0000
                                            0.7593  0.0295  0.0065 -0.6320 -0.0285
                                            0.0018  0.0000  0.0000  0.0000  0.0000
                                            0.0000  0.0000 -0.0676  0.0337  0.0000
                                            0.0000  0.0000  0.0000  0.0080 -0.0094
                                           -0.0377  0.0179  0.0000  0.0000  0.0000
                                            0.0000
    24. (0.00577) RY*( 6) O   1           s(  6.87%)p 0.61(  4.21%)d12.81( 87.93%)
                                                  f 0.14(  0.99%)
                                            0.0000  0.0099  0.2618  0.0041 -0.0012
                                           -0.0017  0.1757  0.0132 -0.0096  0.0340
                                            0.0989 -0.0042 -0.0031 -0.0000 -0.0000
                                           -0.0000 -0.0000 -0.8607 -0.0165  0.0002
                                           -0.0000 -0.0000 -0.0000 -0.0000 -0.0000
                                           -0.0000 -0.3702 -0.0120 -0.0039  0.0297
                                            0.0063  0.0098 -0.0000 -0.0000 -0.0077
                                            0.0075  0.0319 -0.0185 -0.0000 -0.0000
                                           -0.0000 -0.0000 -0.0839  0.0280 -0.0197
                                            0.0148
    25. (0.00551) RY*( 7) O   1           s( 11.99%)p 0.56(  6.70%)d 6.74( 80.79%)
                                                  f 0.04(  0.52%)
                                           -0.0000  0.0278  0.3447 -0.0181 -0.0010
                                            0.0180  0.0125 -0.0070 -0.0024 -0.0500
                                           -0.2503 -0.0356 -0.0066  0.0000  0.0000
                                            0.0000  0.0000  0.0691  0.0087  0.0042
                                            0.0000  0.0000  0.0000  0.0000  0.0000
                                            0.0000  0.0869  0.0081 -0.0045  0.8905
                                            0.0492 -0.0010  0.0000  0.0000  0.0355
                                           -0.0170 -0.0530  0.0200  0.0000  0.0000
                                            0.0000  0.0000 -0.0118 -0.0001 -0.0155
                                            0.0042
    26. (0.00236) RY*( 8) O   1           s(  6.62%)p 4.95( 32.78%)d 9.07( 60.03%)
                                                  f 0.09(  0.57%)
                                            0.0000 -0.0020  0.2545 -0.0284 -0.0241
                                           -0.0252  0.5324  0.0429  0.0117 -0.0184
                                            0.2034  0.0035  0.0073  0.0000  0.0000
                                            0.0000  0.0000 -0.1192 -0.0124  0.0125
                                            0.0000  0.0000  0.0000  0.0000  0.0000
                                            0.0000  0.7451  0.1108 -0.0711 -0.1125
                                           -0.0183  0.0179  0.0000  0.0000 -0.0092
                                            0.0290  0.0028  0.0064  0.0000  0.0000
                                            0.0000  0.0000  0.0401 -0.0243 -0.0503
                                            0.0061
    27. (0.00190) RY*( 9) O   1           s( 49.12%)p 0.45( 22.23%)d 0.58( 28.50%)
                                                  f 0.00(  0.15%)
                                            0.0000 -0.0024  0.6911  0.0571 -0.1013
                                           -0.0010  0.1020  0.0099 -0.0447  0.0014
                                           -0.4256 -0.1611 -0.0521 -0.0000 -0.0000
                                           -0.0000 -0.0000  0.2573  0.0725  0.0239
                                           -0.0000 -0.0000 -0.0000 -0.0000 -0.0000
                                           -0.0000 -0.2041 -0.0463  0.0257 -0.3869
                                           -0.1352  0.0231 -0.0000 -0.0000 -0.0022
                                            0.0181 -0.0098 -0.0146 -0.0000 -0.0000
                                           -0.0000 -0.0000 -0.0109 -0.0258  0.0032
                                           -0.0037
    28. (0.00073) RY*(10) O   1           s( 50.47%)p 0.87( 43.67%)d 0.07(  3.77%)
                                                  f 0.04(  2.09%)
                                            0.0000 -0.0048 -0.1059  0.6968 -0.0893
                                            0.0014 -0.0268  0.0600 -0.1194 -0.0000
                                            0.0895 -0.6403 -0.0120 -0.0000 -0.0000
                                           -0.0000 -0.0000 -0.0407  0.0683  0.1287
                                           -0.0000 -0.0000 -0.0000 -0.0000 -0.0000
                                           -0.0000  0.0536  0.0328  0.0089  0.0497
                                            0.0367 -0.0836 -0.0000 -0.0000  0.0166
                                           -0.0062  0.0420  0.0486 -0.0000 -0.0000
                                           -0.0000 -0.0000  0.0298  0.0664 -0.0134
                                            0.1048
    29. (0.00054) RY*(11) O   1           s(  0.00%)p 1.00( 69.19%)d 0.41( 28.47%)
                                                  f 0.03(  2.34%)
                                            0.0000  0.0000  0.0000  0.0000  0.0000
                                            0.0000  0.0000  0.0000  0.0000  0.0000
                                            0.0000  0.0000  0.0000  0.0033 -0.0395
                                            0.8291 -0.0550  0.0000  0.0000  0.0000
                                            0.0041 -0.2225 -0.0757 -0.0037  0.4603
                                            0.1323  0.0000  0.0000  0.0000  0.0000
                                            0.0000  0.0000 -0.1444  0.0436  0.0000
                                            0.0000  0.0000  0.0000 -0.0122 -0.0019
                                           -0.0200 -0.0072  0.0000  0.0000  0.0000
                                            0.0000
    30. (0.00044) RY*(12) O   1           s(  6.45%)p 4.26( 27.47%)d 5.63( 36.30%)
                                                  f 4.62( 29.77%)
                                           -0.0000  0.0039  0.0047  0.2312  0.1050
                                            0.0078  0.0259 -0.4836 -0.0166 -0.0010
                                           -0.0159  0.1989  0.0078 -0.0000 -0.0000
                                           -0.0000 -0.0000 -0.0526 -0.2415  0.0312
                                           -0.0000 -0.0000 -0.0000 -0.0000 -0.0000
                                           -0.0000  0.0051 -0.0834  0.0363  0.0311
                                           -0.5174 -0.1548 -0.0000 -0.0000  0.2772
                                           -0.0229 -0.0152  0.0213 -0.0000 -0.0000
                                           -0.0000 -0.0000  0.4650  0.0141  0.0493
                                            0.0294
    31. (0.00043) RY*(13) O   1           s(  0.00%)p 1.00(  1.01%)d16.18( 16.42%)
                                                  f81.40( 82.57%)
                                            0.0000  0.0000  0.0000  0.0000  0.0000
                                            0.0000  0.0000  0.0000  0.0000  0.0000
                                            0.0000  0.0000  0.0000  0.0040 -0.0055
                                           -0.1004 -0.0032  0.0000  0.0000  0.0000
                                            0.0164 -0.1109 -0.0269 -0.0859  0.3561
                                            0.1292  0.0000  0.0000  0.0000  0.0000
                                            0.0000  0.0000  0.8293 -0.0209  0.0000
                                            0.0000  0.0000  0.0000  0.3707  0.0081
                                            0.0047 -0.0060  0.0000  0.0000  0.0000
                                            0.0000
    32. (0.00043) RY*(14) O   1           s(  0.89%)p 2.45(  2.17%)d12.13( 10.74%)
                                                  f97.36( 86.20%)
                                           -0.0000  0.0012  0.0014  0.0883  0.0325
                                           -0.0002  0.0095 -0.1218 -0.0178  0.0001
                                           -0.0121  0.0795  0.0029  0.0000  0.0000
                                            0.0000  0.0000  0.0505 -0.1172 -0.0606
                                            0.0000  0.0000  0.0000  0.0000  0.0000
                                            0.0000  0.0179 -0.0176 -0.0140  0.0702
                                           -0.2732 -0.0842  0.0000  0.0000 -0.5628
                                            0.0189  0.6927 -0.0102  0.0000  0.0000
                                            0.0000  0.0000 -0.2354  0.0128 -0.0955
                                            0.0172
    33. (0.00043) RY*(15) O   1           s(  0.00%)p 1.00(  3.25%)d 1.63(  5.30%)
                                                  f28.13( 91.45%)
                                            0.0000  0.0000  0.0000  0.0000  0.0000
                                            0.0000  0.0000  0.0000  0.0000  0.0000
                                            0.0000  0.0000  0.0000 -0.0008 -0.0045
                                            0.1773  0.0324  0.0000  0.0000  0.0000
                                            0.0497  0.0077 -0.0341 -0.0066 -0.2189
                                           -0.0360  0.0000  0.0000  0.0000  0.0000
                                            0.0000  0.0000  0.1628 -0.0076  0.0000
                                            0.0000  0.0000  0.0000 -0.1096 -0.0071
                                            0.9354 -0.0313  0.0000  0.0000  0.0000
                                            0.0000
    34. (0.00041) RY*(16) O   1           s(  0.00%)p 1.00(  0.31%)d42.61( 13.42%)
                                                  f99.99( 86.27%)
                                            0.0000  0.0000  0.0000  0.0000  0.0000
                                            0.0000  0.0000  0.0000  0.0000  0.0000
                                            0.0000  0.0000  0.0000 -0.0001  0.0085
[...]
   126. (0.00382) RY*( 3) H   4           s(  8.49%)p10.71( 90.90%)d 0.07(  0.60%)
                                           -0.0088  0.2691  0.1014  0.0464  0.7029
                                            0.0102 -0.0044 -0.6370  0.0948 -0.0092
                                           -0.0000 -0.0000 -0.0000 -0.0441  0.0008
                                           -0.0000 -0.0000 -0.0000 -0.0000  0.0343
                                            0.0290 -0.0448 -0.0086
   127. (0.00243) RY*( 4) H   4           s( 26.28%)p 2.79( 73.26%)d 0.02(  0.46%)
                                            0.0047  0.4564  0.2331  0.0110 -0.6749
                                            0.0411 -0.0233 -0.4888  0.1895  0.0099
                                           -0.0000 -0.0000 -0.0000  0.0506 -0.0251
                                           -0.0000 -0.0000 -0.0000 -0.0000  0.0084
                                            0.0228  0.0172  0.0227
   128. (0.00042) RY*( 5) H   4           s( 16.11%)p 4.70( 75.75%)d 0.51(  8.14%)
                                            0.0011  0.0150 -0.1939  0.3511 -0.0291
                                            0.7186 -0.1650 -0.0698 -0.2950  0.3480
                                            0.0000  0.0000  0.0000  0.1219  0.0222
                                            0.0000  0.0000  0.0000  0.0000  0.1505
                                           -0.1787 -0.0687 -0.0821
   129. (0.00034) RY*( 6) H   4           s(  8.29%)p 7.10( 58.85%)d 3.96( 32.86%)
                                           -0.0111 -0.0253  0.0333  0.2847  0.0073
                                           -0.3174  0.2355  0.0161  0.2315  0.6152
                                           -0.0000 -0.0000 -0.0000  0.0673  0.1866
                                           -0.0000 -0.0000 -0.0000 -0.0000 -0.3894
                                           -0.2780 -0.1280 -0.2094
   130. (0.00032) RY*( 7) H   4           s(  0.00%)p 1.00( 93.66%)d 0.07(  6.34%)
                                            0.0000  0.0000  0.0000  0.0000  0.0000
                                            0.0000  0.0000  0.0000  0.0000  0.0000
                                           -0.1413  0.9483 -0.1316  0.0000  0.0000
                                            0.0461 -0.0226  0.2458 -0.0179  0.0000
                                            0.0000  0.0000  0.0000
   131. (0.00022) RY*( 8) H   4           s( 25.34%)p 1.87( 47.30%)d 1.08( 27.37%)
                                           -0.0099 -0.0524  0.4728 -0.1644  0.1065
                                            0.4659 -0.0830  0.2393  0.4244 -0.0176
                                            0.0000  0.0000  0.0000  0.1160 -0.0175
                                            0.0000  0.0000  0.0000  0.0000 -0.3054
                                            0.2036 -0.3522  0.0334
   132. (0.00018) RY*( 9) H   4           s( 41.38%)p 0.14(  5.74%)d 1.28( 52.88%)
                                           -0.0026 -0.0810  0.6267  0.1200  0.0243
                                            0.0438 -0.0711  0.0962 -0.1325  0.1517
                                           -0.0000 -0.0000 -0.0000 -0.5560  0.1877
                                           -0.0000 -0.0000 -0.0000 -0.0000  0.1671
                                           -0.1088  0.3796  0.0240
   133. (0.00016) RY*(10) H   4           s(  0.00%)p 1.00(  9.53%)d 9.49( 90.47%)
                                            0.0000  0.0000  0.0000  0.0000  0.0000
                                            0.0000  0.0000  0.0000  0.0000  0.0000
                                            0.0332 -0.2508 -0.1770  0.0000  0.0000
                                           -0.1054 -0.2501  0.8688 -0.2761  0.0000
                                            0.0000  0.0000  0.0000
   134. (0.00014) RY*(11) H   4           s(  0.00%)p 1.00( 28.26%)d 2.54( 71.74%)
                                            0.0000  0.0000  0.0000  0.0000  0.0000
                                            0.0000  0.0000  0.0000  0.0000  0.0000
                                           -0.0323 -0.0859 -0.5237  0.0000  0.0000
                                            0.6231  0.3778 -0.0807 -0.4241  0.0000
                                            0.0000  0.0000  0.0000
   135. (0.00014) RY*(12) H   4           s(  4.24%)p 3.11( 13.20%)d19.47( 82.56%)
                                            0.0002 -0.0247  0.2023 -0.0294  0.0811
                                            0.0902  0.3373  0.0197 -0.0292 -0.0475
                                            0.0000  0.0000  0.0000  0.6461  0.2678
                                            0.0000  0.0000  0.0000  0.0000  0.0349
                                           -0.1175  0.4659  0.3231
   136. (0.00012) RY*(13) H   4           s(  4.35%)p11.08( 48.23%)d10.89( 47.41%)
                                           -0.0049 -0.0227  0.0643  0.1971  0.0649
                                           -0.2043 -0.6103  0.0756  0.2100  0.1186
                                           -0.0000 -0.0000 -0.0000  0.1970 -0.4717
                                           -0.0000 -0.0000 -0.0000 -0.0000  0.0039
                                           -0.2455  0.1659  0.3537
   137. (0.00013) RY*(14) H   4           s(  0.00%)p 1.00( 33.91%)d 1.95( 66.09%)
                                            0.0000  0.0000  0.0000  0.0000  0.0000
                                            0.0000  0.0000  0.0000  0.0000  0.0000
                                            0.0324 -0.0169  0.5812  0.0000  0.0000
                                            0.3686  0.5560  0.3949  0.2450  0.0000
                                            0.0000  0.0000  0.0000
   138. (0.00011) RY*(15) H   4           s(  6.93%)p 0.84(  5.84%)d12.60( 87.23%)
                                           -0.0085 -0.0763  0.2516 -0.0071  0.0245
                                           -0.1597 -0.0066  0.0796  0.1265  0.0996
                                           -0.0000 -0.0000 -0.0000  0.3343 -0.1313
                                           -0.0000 -0.0000 -0.0000 -0.0000  0.6539
                                            0.0755 -0.1067 -0.5465
   139. (0.00007) RY*(16) H   4           s( 57.15%)p 0.11(  6.08%)d 0.64( 36.76%)
   140. (0.00006) RY*(17) H   4           s( 13.88%)p 4.50( 62.48%)d 1.70( 23.63%)
   141. (0.00007) RY*(18) H   4           s(  2.56%)p 1.26(  3.23%)d36.79( 94.21%)
   142. (0.00006) RY*(19) H   4           s(  0.00%)p 1.00(  0.43%)d99.99( 99.57%)
   143. (0.00003) RY*(20) H   4           s(  0.00%)p 1.00( 34.27%)d 1.92( 65.73%)
   144. (0.00003) RY*(21) H   4           s(  1.97%)p18.77( 36.97%)d31.00( 61.06%)
   145. (0.00001) RY*(22) H   4           s( 12.92%)p 3.34( 43.09%)d 3.41( 44.00%)
   146. (0.02093) BD*( 1) O   1 - H   2  
                ( 27.14%)   0.5210* O   1 s( 20.60%)p 3.83( 78.98%)d 0.02(  0.41%)
                                                  f 0.00(  0.01%)
                                           -0.0002 -0.4539  0.0011  0.0010  0.0020
                                           -0.8844  0.0267 -0.0099  0.0020 -0.0806
                                            0.0182 -0.0009  0.0021 -0.0000 -0.0000
                                           -0.0000 -0.0000  0.0231 -0.0026 -0.0002
                                           -0.0000 -0.0000 -0.0000 -0.0000 -0.0000
                                           -0.0000 -0.0483  0.0030  0.0028  0.0344
                                           -0.0033 -0.0005 -0.0000 -0.0000  0.0097
                                            0.0001 -0.0002  0.0004 -0.0000 -0.0000
                                           -0.0000 -0.0000 -0.0027 -0.0027 -0.0025
                                            0.0003
                ( 72.86%)  -0.8536* H   2 s( 99.91%)p 0.00(  0.08%)d 0.00(  0.00%)
                                           -0.9996 -0.0027  0.0002 -0.0003 -0.0111
                                           -0.0240  0.0054  0.0097  0.0044  0.0026
                                           -0.0000 -0.0000 -0.0000  0.0008  0.0016
                                           -0.0000 -0.0000 -0.0000 -0.0000  0.0034
                                            0.0009  0.0004 -0.0009
   147. (0.01977) BD*( 1) O   1 - H   4  
                ( 26.67%)   0.5164* O   1 s( 34.02%)p 1.93( 65.56%)d 0.01(  0.40%)
                                                  f 0.00(  0.01%)
                                            0.0003  0.5831 -0.0149 -0.0024 -0.0034
                                           -0.2256  0.0229 -0.0009  0.0010 -0.7764
                                            0.0377 -0.0051  0.0006 -0.0000 -0.0000
                                           -0.0000 -0.0000  0.0020  0.0041  0.0012
                                           -0.0000 -0.0000 -0.0000 -0.0000 -0.0000
                                           -0.0000 -0.0518 -0.0005  0.0018 -0.0362
                                           -0.0009 -0.0011 -0.0000 -0.0000  0.0019
                                            0.0003  0.0081  0.0016 -0.0000 -0.0000
                                           -0.0000 -0.0000  0.0030  0.0030  0.0017
                                            0.0042
                ( 73.33%)  -0.8563* H   4 s( 99.90%)p 0.00(  0.09%)d 0.00(  0.01%)
                                            0.9995  0.0104  0.0001 -0.0005  0.0137
                                            0.0024  0.0015  0.0091  0.0228  0.0106
                                           -0.0000 -0.0000 -0.0000 -0.0021  0.0008
                                           -0.0000 -0.0000 -0.0000 -0.0000  0.0052
                                           -0.0042  0.0027 -0.0048


 NHO Directionality and "Bond Bending" (deviations from line of nuclear centers)

         [Thresholds for printing:  angular deviation  >  1.0 degree]
                                    hybrid p-character > 25.0%
                                    orbital occupancy  >  0.10e

                                Line of Centers        Hybrid 1              Hybrid 2
                                ---------------  -------------------   ------------------
                NBO               Theta   Phi    Theta   Phi    Dev    Theta   Phi    Dev
 ========================================================================================
     1. BD (   1) O   1 - H   2    90.0    0.0    90.0    4.0   4.0      --     --    --
     2. BD (   1) O   1 - H   4    90.0  258.1    90.0  254.7   3.4      --     --    --
    13. LP (   1) O   1             --     --     90.0  123.1   --       --     --    --
    14. LP (   2) O   1             --     --      0.0    0.0   --       --     --    --
    16. LP (   2) I   3             --     --      0.0    0.0   --       --     --    --
    17. LP (   3) I   3             --     --     90.0  166.9   --       --     --    --
    18. LP (   4) I   3             --     --     90.0   76.7   --       --     --    --


 Natural Bond Orbitals (Summary):

           NBO                  Occupancy  
 -----------------------------------------------
 Molecular unit  1  (H2O)
     1. BD (   1) O   1 - H   2          1.96754
     2. BD (   1) O   1 - H   4          1.97543
     3. CR (   1) O   1                  1.99956
    13. LP (   1) O   1                  1.97030
    14. LP (   2) O   1                  1.96123
    19. RY*(   1) O   1                  0.01726
    20. RY*(   2) O   1                  0.01378
    21. RY*(   3) O   1                  0.00617
    22. RY*(   4) O   1                  0.00586
    23. RY*(   5) O   1                  0.00579
    24. RY*(   6) O   1                  0.00577
    25. RY*(   7) O   1                  0.00551
    26. RY*(   8) O   1                  0.00236
    27. RY*(   9) O   1                  0.00190
    28. RY*(  10) O   1                  0.00073
    29. RY*(  11) O   1                  0.00054
    30. RY*(  12) O   1                  0.00044
    31. RY*(  13) O   1                  0.00043
    32. RY*(  14) O   1                  0.00043
    33. RY*(  15) O   1                  0.00043
    34. RY*(  16) O   1                  0.00041
    35. RY*(  17) O   1                  0.00040
    36. RY*(  18) O   1                  0.00037
    37. RY*(  19) O   1                  0.00037
    38. RY*(  20) O   1                  0.00032
    39. RY*(  21) O   1                  0.00032
    40. RY*(  22) O   1                  0.00029
    41. RY*(  23) O   1                  0.00025
    42. RY*(  24) O   1                  0.00019
    43. RY*(  25) O   1                  0.00016
    44. RY*(  26) O   1                  0.00013
    45. RY*(  27) O   1                  0.00007
    46. RY*(  28) O   1                  0.00007
    47. RY*(  29) O   1                  0.00006
    48. RY*(  30) O   1                  0.00007
    49. RY*(  31) O   1                  0.00007
    50. RY*(  32) O   1                  0.00006
    51. RY*(  33) O   1                  0.00005
    52. RY*(  34) O   1                  0.00006
    53. RY*(  35) O   1                  0.00004
    54. RY*(  36) O   1                  0.00004
    55. RY*(  37) O   1                  0.00003
    56. RY*(  38) O   1                  0.00003
    57. RY*(  39) O   1                  0.00001
    58. RY*(  40) O   1                  0.00001
    59. RY*(  41) O   1                  0.00000
    60. RY*(   1) H   2                  0.00522
    61. RY*(   2) H   2                  0.00231
    62. RY*(   3) H   2                  0.00164
    63. RY*(   4) H   2                  0.00067
    64. RY*(   5) H   2                  0.00031
    65. RY*(   6) H   2                  0.00020
    66. RY*(   7) H   2                  0.00018
    67. RY*(   8) H   2                  0.00010
    68. RY*(   9) H   2                  0.00011
    69. RY*(  10) H   2                  0.00010
    70. RY*(  11) H   2                  0.00008
    71. RY*(  12) H   2                  0.00008
    72. RY*(  13) H   2                  0.00006
    73. RY*(  14) H   2                  0.00005
    74. RY*(  15) H   2                  0.00003
    75. RY*(  16) H   2                  0.00003
    76. RY*(  17) H   2                  0.00003
    77. RY*(  18) H   2                  0.00002
    78. RY*(  19) H   2                  0.00002
    79. RY*(  20) H   2                  0.00001
    80. RY*(  21) H   2                  0.00002
    81. RY*(  22) H   2                  0.00002
   124. RY*(   1) H   4                  0.00712
   125. RY*(   2) H   4                  0.00422
   126. RY*(   3) H   4                  0.00382
   127. RY*(   4) H   4                  0.00243
   128. RY*(   5) H   4                  0.00042
   129. RY*(   6) H   4                  0.00034
   130. RY*(   7) H   4                  0.00032
   131. RY*(   8) H   4                  0.00022
   132. RY*(   9) H   4                  0.00018
   133. RY*(  10) H   4                  0.00016
   134. RY*(  11) H   4                  0.00014
   135. RY*(  12) H   4                  0.00014
   136. RY*(  13) H   4                  0.00012
   137. RY*(  14) H   4                  0.00013
   138. RY*(  15) H   4                  0.00011
   139. RY*(  16) H   4                  0.00007
   140. RY*(  17) H   4                  0.00006
   141. RY*(  18) H   4                  0.00007
   142. RY*(  19) H   4                  0.00006
   143. RY*(  20) H   4                  0.00003
   144. RY*(  21) H   4                  0.00003
   145. RY*(  22) H   4                  0.00001
   146. BD*(   1) O   1 - H   2          0.02093
   147. BD*(   1) O   1 - H   4          0.01977
       -------------------------------
              Total Lewis    9.87406  ( 98.5677%)
        Valence non-Lewis    0.04070  (  0.4063%)
        Rydberg non-Lewis    0.10278  (  1.0260%)
       -------------------------------
            Total unit  1   10.01754  (100.0000%)
           Charge unit  1   -0.01754

 Molecular unit  2  (I)
     4. CR (   1) I   3                  2.00002
     5. CR (   2) I   3                  2.00007
     6. CR (   3) I   3                  2.00006
     7. CR (   4) I   3                  2.00007
     8. CR (   5) I   3                  1.99675
     9. CR (   6) I   3                  1.99679
    10. CR (   7) I   3                  1.99677
    11. CR (   8) I   3                  1.99673
    12. CR (   9) I   3                  1.99677
    15. LP (   1) I   3                  1.98049
    16. LP (   2) I   3                  1.95174
    17. LP (   3) I   3                  1.95156
    18. LP (   4) I   3                  1.94344
    82. RY*(   1) I   3                  0.02029
    83. RY*(   2) I   3                  0.02028
    84. RY*(   3) I   3                  0.02019
    85. RY*(   4) I   3                  0.02019
    86. RY*(   5) I   3                  0.01996
    87. RY*(   6) I   3                  0.01121
    88. RY*(   7) I   3                  0.01118
    89. RY*(   8) I   3                  0.01028
    90. RY*(   9) I   3                  0.00406
    91. RY*(  10) I   3                  0.00279
    92. RY*(  11) I   3                  0.00279
    93. RY*(  12) I   3                  0.00277
    94. RY*(  13) I   3                  0.00277
    95. RY*(  14) I   3                  0.00273
    96. RY*(  15) I   3                  0.00272
    97. RY*(  16) I   3                  0.00271
    98. RY*(  17) I   3                  0.00169
    99. RY*(  18) I   3                  0.00169
   100. RY*(  19) I   3                  0.00147
   101. RY*(  20) I   3                  0.00145
   102. RY*(  21) I   3                  0.00131
   103. RY*(  22) I   3                  0.00075
   104. RY*(  23) I   3                  0.00075
   105. RY*(  24) I   3                  0.00072
   106. RY*(  25) I   3                  0.00048
   107. RY*(  26) I   3                  0.00044
   108. RY*(  27) I   3                  0.00044
   109. RY*(  28) I   3                  0.00043
   110. RY*(  29) I   3                  0.00043
   111. RY*(  30) I   3                  0.00040
   112. RY*(  31) I   3                  0.00040
   113. RY*(  32) I   3                  0.00038
   114. RY*(  33) I   3                  0.00016
   115. RY*(  34) I   3                  0.00016
   116. RY*(  35) I   3                  0.00014
   117. RY*(  36) I   3                  0.00015
   118. RY*(  37) I   3                  0.00015
   119. RY*(  38) I   3                  0.00008
   120. RY*(  39) I   3                  0.00008
   121. RY*(  40) I   3                  0.00009
   122. RY*(  41) I   3                  0.00006
   123. RY*(  42) I   3                  0.00000
       -------------------------------
              Total Lewis   53.81126  ( 99.6829%)
        Valence non-Lewis    0.00000  (  0.0000%)
        Rydberg non-Lewis    0.17120  (  0.3171%)
       -------------------------------
            Total unit  2   53.98246  (100.0000%)
           Charge unit  2   -0.98246
 Leave Link  607 at Tue Oct 26 13:20:17 2021, MaxMem= 16106127360 cpu:              67.3 elap:               2.4
 (Enter /sw/contrib/gaussian/g16/B01/g16/l9999.exe)
 1\1\GINC-N2097\SP\RMP2-FC\Gen\H2I1O1(1-)\CGAVINH\26-Oct-2021\0\\#p pop
 =NBO SP NoSymm mp2/gen Pseudo=read density=current\\title\\-1,1\O\X,1,
 10.\H,1,0.96090774,2,90.\I,1,3.50850138,2,90.,3,101.85832019,0\H,1,0.8
 ,2,90.,3,101.85832019,0\\Version=ES64L-G16RevB.01\HF=-370.7835217\MP2=
 -371.271488\RMSD=3.197e-09\Dipole=0.7809062,0.9576221,0.\Quadrupole=13
 .1422079,-25.977111,12.8349031,-7.6840432,0.,0.\PG=CS [SG(H2I1O1)]\\@


 When cryptography is outlawed, bayl bhgynjf jvyy unir cevinpl.
 Job cpu time:       0 days  0 hours  4 minutes  5.2 seconds.
 Elapsed time:       0 days  0 hours  0 minutes 11.3 seconds.
 File lengths (MBytes):  RWF=     11 Int=      0 D2E=      0 Chk=      8 Scr=      1
 Normal termination of Gaussian 16 at Tue Oct 26 13:20:17 2021.
