title                                                                   
SP        RMP2-FC                                                     Gen                 
Number of atoms                            I                4
Info1-9                                    I   N=           9
         144         135           0           0           0         110
           1           2           1
Charge                                     I               -1
Multiplicity                               I                1
Number of electrons                        I               36
Number of alpha electrons                  I               18
Number of beta electrons                   I               18
Number of basis functions                  I              191
Number of independent functions            I              147
Number of point charges in /Mol/           I                0
Number of translation vectors              I                0
Atomic numbers                             I   N=           4
           8           1          53           1
Nuclear charges                            R   N=           4
  8.00000000E+00  1.00000000E+00  2.50000000E+01  1.00000000E+00
Current cartesian coordinates              R   N=          12
  0.00000000E+00  0.00000000E+00  0.00000000E+00  1.81585239E+00  0.00000000E+00
  0.00000000E+00 -1.36243524E+00 -6.48861632E+00  0.00000000E+00 -3.10658990E-01
 -1.47951766E+00  0.00000000E+00
Force Field                                I                0
Int Atom Types                             I   N=           4
           0           0           0           0
MM charges                                 R   N=           4
  0.00000000E+00  0.00000000E+00  0.00000000E+00  0.00000000E+00
Integer atomic weights                     I   N=           4
          16           2         127           1
Real atomic weights                        R   N=           4
  1.59949146E+01  2.01410179E+00  1.26900400E+02  1.00782504E+00
Atom fragment info                         I   N=           4
           0           0           0           0
Atom residue num                           I   N=           4
           0           0           0           0
Nuclear spins                              I   N=           4
           0           2           5           1
Nuclear ZEff                               R   N=           4
 -5.60000000E+00 -1.00000000E+00 -5.83000000E+03 -1.00000000E+00
Nuclear ZNuc                               R   N=           4
  8.00000000E+00  1.00000000E+00  5.30000000E+01  1.00000000E+00
Nuclear QMom                               R   N=           4
  0.00000000E+00  2.86000000E-01 -7.10000000E+01  0.00000000E+00
Nuclear GFac                               R   N=           4
  0.00000000E+00  8.57438000E-01  2.81328000E+00  2.79284600E+00
MicOpt                                     I   N=           4
          -1          -1          -1          -1
Number of contracted shells                I               65
Number of primitive shells                 I              119
Pure/Cartesian d shells                    I                0
Pure/Cartesian f shells                    I                0
Highest angular momentum                   I                3
Largest degree of contraction              I                9
Shell types                                I   N=          65
           0           0           0           0           0           1
           1           1           1          -2          -2          -2
          -3          -3           0           0           0           0
           0           0           0           1           1           1
           1           1           1          -2          -2          -2
          -2           0           0           0           0           0
           0           1           1           1           1           1
          -2          -2          -2          -2          -3          -3
           0           0           0           0           0           0
           0           1           1           1           1           1
           1          -2          -2          -2          -2
Number of primitives per shell             I   N=          65
           7           6           1           1           1           3
           1           1           1           1           1           1
           1           1           3           1           1           1
           1           1           1           1           1           1
           1           1           1           1           1           1
           1           9           8           1           1           1
           1           8           8           1           1           1
           9           1           1           1           1           1
           3           1           1           1           1           1
           1           1           1           1           1           1
           1           1           1           1           1
Shell to atom map                          I   N=          65
           1           1           1           1           1           1
           1           1           1           1           1           1
           1           1           2           2           2           2
           2           2           2           2           2           2
           2           2           2           2           2           2
           2           3           3           3           3           3
           3           3           3           3           3           3
           3           3           3           3           3           3
           4           4           4           4           4           4
           4           4           4           4           4           4
           4           4           4           4           4
Primitive exponents                        R   N=         119
  1.53300000E+04  2.29900000E+03  5.22400000E+02  1.47300000E+02  4.75500000E+01
  1.67600000E+01  6.20700000E+00  5.22400000E+02  1.47300000E+02  4.75500000E+01
  1.67600000E+01  6.20700000E+00  6.88200000E-01  1.75200000E+00  2.38400000E-01
  7.37600000E-02  3.44600000E+01  7.74900000E+00  2.28000000E+00  7.15600000E-01
  2.14000000E-01  5.97400000E-02  2.31400000E+00  6.45000000E-01  2.14000000E-01
  1.42800000E+00  5.00000000E-01  3.38700000E+01  5.09500000E+00  1.15900000E+00
  3.25800000E-01  1.02700000E-01  2.52600000E-02  3.25800000E-01  1.02700000E-01
  2.52600000E-02  1.40700000E+00  3.88000000E-01  1.02000000E-01  1.40700000E+00
  3.88000000E-01  1.02000000E-01  1.05700000E+00  2.47000000E-01  1.05700000E+00
  2.47000000E-01  5.54650000E+03  8.38214000E+02  1.82187000E+02  3.12123000E+01
  1.95314000E+01  8.24099000E+00  2.19455000E+00  1.10911000E+00  8.10610000E-02
  5.54650000E+03  8.38214000E+02  3.12123000E+01  1.95314000E+01  8.24099000E+00
  2.19455000E+00  1.10911000E+00  8.10610000E-02  3.74641000E-01  1.77080000E-01
  1.00100000E-01  4.12000000E-02  1.88988000E+02  2.12868000E+01  1.00396000E+01
  3.45180000E+00  1.97456000E+00  1.02420000E+00  4.49437000E-01  7.34810000E-02
  1.88988000E+02  1.00396000E+01  3.45180000E+00  1.97456000E+00  1.02420000E+00
  4.49437000E-01  1.86648000E-01  7.34810000E-02  5.98100000E-01  9.61800000E-02
  3.59000000E-02  1.32662000E+02  3.76054000E+01  1.03891000E+01  6.49017000E+00
  3.45451000E+00  1.84413000E+00  9.62478000E-01  4.72853000E-01  1.93200000E-01
  4.72853000E-01  1.93200000E-01  7.82000000E-02  4.06400000E-01  1.84800000E-01
  3.38700000E+01  5.09500000E+00  1.15900000E+00  3.25800000E-01  1.02700000E-01
  2.52600000E-02  3.25800000E-01  1.02700000E-01  2.52600000E-02  1.40700000E+00
  3.88000000E-01  1.02000000E-01  1.40700000E+00  3.88000000E-01  1.02000000E-01
  1.05700000E+00  2.47000000E-01  1.05700000E+00  2.47000000E-01
Contraction coefficients                   R   N=         119
  5.19808943E-04  4.02025621E-03  2.07128267E-02  8.10105536E-02  2.35962985E-01
  4.42653446E-01  3.57064423E-01 -4.42115008E-05 -1.22591041E-03 -1.05517725E-02
 -6.74452633E-02 -1.71198607E-01  1.07329856E+00  1.00000000E+00  1.00000000E+00
  1.00000000E+00  4.11634896E-02  2.57762836E-01  8.02419274E-01  1.00000000E+00
  1.00000000E+00  1.00000000E+00  1.00000000E+00  1.00000000E+00  1.00000000E+00
  1.00000000E+00  1.00000000E+00  2.54948632E-02  1.90362766E-01  8.52162022E-01
  1.00000000E+00  1.00000000E+00  1.00000000E+00  1.00000000E+00  1.00000000E+00
  1.00000000E+00  1.00000000E+00  1.00000000E+00  1.00000000E+00  1.00000000E+00
  1.00000000E+00  1.00000000E+00  1.00000000E+00  1.00000000E+00  1.00000000E+00
  1.00000000E+00  1.58603022E-04  1.00211458E-03  2.83966410E-03 -4.40310212E-02
  2.38198152E-01 -7.63568980E-01  8.96516870E-01  4.68371203E-01  2.16251781E-03
 -2.17177846E-05 -2.59237305E-04 -1.50376554E-02  2.42214079E-02  6.99888661E-02
 -5.50491335E-01 -5.69654432E-01  3.76065139E-01  1.00000000E+00  1.00000000E+00
  1.00000000E+00  1.00000000E+00  5.85232173E-04  3.69335916E-02 -2.35399435E-01
  3.41625365E-01  5.34991615E-01  2.65244797E-01  2.54463150E-02  3.82802808E-04
 -6.76097015E-05  8.33123161E-03 -4.66496478E-02 -5.27406452E-02 -2.91398344E-02
  3.65650039E-01  5.48502805E-01  2.34644635E-01  1.00000000E+00  1.00000000E+00
  1.00000000E+00  5.72000072E-04  4.40200055E-03 -4.09220051E-02  9.96610125E-02
  3.22663040E-01  4.00343050E-01  2.68306034E-01  8.48470106E-02  7.63200096E-03
  1.00000000E+00  1.00000000E+00  1.00000000E+00  1.00000000E+00  1.00000000E+00
  2.54948632E-02  1.90362766E-01  8.52162022E-01  1.00000000E+00  1.00000000E+00
  1.00000000E+00  1.00000000E+00  1.00000000E+00  1.00000000E+00  1.00000000E+00
  1.00000000E+00  1.00000000E+00  1.00000000E+00  1.00000000E+00  1.00000000E+00
  1.00000000E+00  1.00000000E+00  1.00000000E+00  1.00000000E+00
Coordinates of each shell                  R   N=         195
  0.00000000E+00  0.00000000E+00  0.00000000E+00  0.00000000E+00  0.00000000E+00
  0.00000000E+00  0.00000000E+00  0.00000000E+00  0.00000000E+00  0.00000000E+00
  0.00000000E+00  0.00000000E+00  0.00000000E+00  0.00000000E+00  0.00000000E+00
  0.00000000E+00  0.00000000E+00  0.00000000E+00  0.00000000E+00  0.00000000E+00
  0.00000000E+00  0.00000000E+00  0.00000000E+00  0.00000000E+00  0.00000000E+00
  0.00000000E+00  0.00000000E+00  0.00000000E+00  0.00000000E+00  0.00000000E+00
  0.00000000E+00  0.00000000E+00  0.00000000E+00  0.00000000E+00  0.00000000E+00
  0.00000000E+00  0.00000000E+00  0.00000000E+00  0.00000000E+00  0.00000000E+00
  0.00000000E+00  0.00000000E+00  1.81585239E+00  0.00000000E+00  0.00000000E+00
  1.81585239E+00  0.00000000E+00  0.00000000E+00  1.81585239E+00  0.00000000E+00
  0.00000000E+00  1.81585239E+00  0.00000000E+00  0.00000000E+00  1.81585239E+00
  0.00000000E+00  0.00000000E+00  1.81585239E+00  0.00000000E+00  0.00000000E+00
  1.81585239E+00  0.00000000E+00  0.00000000E+00  1.81585239E+00  0.00000000E+00
  0.00000000E+00  1.81585239E+00  0.00000000E+00  0.00000000E+00  1.81585239E+00
  0.00000000E+00  0.00000000E+00  1.81585239E+00  0.00000000E+00  0.00000000E+00
  1.81585239E+00  0.00000000E+00  0.00000000E+00  1.81585239E+00  0.00000000E+00
  0.00000000E+00  1.81585239E+00  0.00000000E+00  0.00000000E+00  1.81585239E+00
  0.00000000E+00  0.00000000E+00  1.81585239E+00  0.00000000E+00  0.00000000E+00
  1.81585239E+00  0.00000000E+00  0.00000000E+00 -1.36243524E+00 -6.48861632E+00
  0.00000000E+00 -1.36243524E+00 -6.48861632E+00  0.00000000E+00 -1.36243524E+00
 -6.48861632E+00  0.00000000E+00 -1.36243524E+00 -6.48861632E+00  0.00000000E+00
 -1.36243524E+00 -6.48861632E+00  0.00000000E+00 -1.36243524E+00 -6.48861632E+00
  0.00000000E+00 -1.36243524E+00 -6.48861632E+00  0.00000000E+00 -1.36243524E+00
 -6.48861632E+00  0.00000000E+00 -1.36243524E+00 -6.48861632E+00  0.00000000E+00
 -1.36243524E+00 -6.48861632E+00  0.00000000E+00 -1.36243524E+00 -6.48861632E+00
  0.00000000E+00 -1.36243524E+00 -6.48861632E+00  0.00000000E+00 -1.36243524E+00
 -6.48861632E+00  0.00000000E+00 -1.36243524E+00 -6.48861632E+00  0.00000000E+00
 -1.36243524E+00 -6.48861632E+00  0.00000000E+00 -1.36243524E+00 -6.48861632E+00
  0.00000000E+00 -1.36243524E+00 -6.48861632E+00  0.00000000E+00 -3.10658990E-01
 -1.47951766E+00  0.00000000E+00 -3.10658990E-01 -1.47951766E+00  0.00000000E+00
 -3.10658990E-01 -1.47951766E+00  0.00000000E+00 -3.10658990E-01 -1.47951766E+00
  0.00000000E+00 -3.10658990E-01 -1.47951766E+00  0.00000000E+00 -3.10658990E-01
 -1.47951766E+00  0.00000000E+00 -3.10658990E-01 -1.47951766E+00  0.00000000E+00
 -3.10658990E-01 -1.47951766E+00  0.00000000E+00 -3.10658990E-01 -1.47951766E+00
  0.00000000E+00 -3.10658990E-01 -1.47951766E+00  0.00000000E+00 -3.10658990E-01
 -1.47951766E+00  0.00000000E+00 -3.10658990E-01 -1.47951766E+00  0.00000000E+00
 -3.10658990E-01 -1.47951766E+00  0.00000000E+00 -3.10658990E-01 -1.47951766E+00
  0.00000000E+00 -3.10658990E-01 -1.47951766E+00  0.00000000E+00 -3.10658990E-01
 -1.47951766E+00  0.00000000E+00 -3.10658990E-01 -1.47951766E+00  0.00000000E+00
Constraint Structure                       R   N=          12
  0.00000000E+00  0.00000000E+00  0.00000000E+00  1.81585239E+00  0.00000000E+00
  0.00000000E+00 -1.36243524E+00 -6.48861632E+00  0.00000000E+00 -3.10658990E-01
 -1.47951766E+00  0.00000000E+00
Num ILSW                                   I              100
ILSW                                       I   N=         100
           0           0           0           0           2           0
           0           0           0           0           0          -1
           0           0           0           0           0           0
           0           0           0           0           0           0
           1           1           0           0           0           0
           0           0      100000           0          -1           0
           0           0           0           0           0           0
           0           0           0           1           0           0
           0           0           1           0           0           0
           0           0           4          41           0           0
           0           0           0           0           0           0
           0           0           0           4           0           0
           0           0           0           0           0           0
           0           0           0           0           0           0
           0           0           0           0           0           0
           0           0           0           0           0           0
           0           0           0           0
Num RLSW                                   I               41
RLSW                                       R   N=          41
  1.00000000E+00  1.00000000E+00  1.00000000E+00  1.00000000E+00  1.00000000E+00
  0.00000000E+00  0.00000000E+00  1.00000000E+00  0.00000000E+00  0.00000000E+00
  0.00000000E+00  0.00000000E+00  1.00000000E+00  0.00000000E+00  0.00000000E+00
  0.00000000E+00  0.00000000E+00  1.00000000E+00  0.00000000E+00  0.00000000E+00
  0.00000000E+00  0.00000000E+00  1.00000000E+00  0.00000000E+00  0.00000000E+00
  0.00000000E+00  0.00000000E+00  1.00000000E+00  0.00000000E+00  0.00000000E+00
  0.00000000E+00  0.00000000E+00  1.00000000E+00  0.00000000E+00  0.00000000E+00
  0.00000000E+00  0.00000000E+00  0.00000000E+00  1.00000000E+00  1.00000000E+00
  0.00000000E+00
ECP-MxAtEC                                 I           250000
ECP-MaxLECP                                I               10
ECP-MaxAtL                                 I          2250000
ECP-MxTECP                                 I         11250000
ECP-LenNCZ                                 I               16
ECP-KFirst                                 I   N=          40
           0           0           1           0           0           0
           2           0           0           0           5           0
           0           0           9           0           0           0
          13           0           0           0           0           0
           0           0           0           0           0           0
           0           0           0           0           0           0
           0           0           0           0
ECP-KLast                                  I   N=          40
           0           0           1           0           0           0
           4           0           0           0           8           0
           0           0          12           0           0           0
          16           0           0           0           0           0
           0           0           0           0           0           0
           0           0           0           0           0           0
           0           0           0           0
ECP-LMax                                   I   N=           4
           0           0           4           0
ECP-LPSkip                                 I   N=           4
           1           1           0           1
ECP-RNFroz                                 R   N=           4
  0.00000000E+00  0.00000000E+00  2.80000000E+01  0.00000000E+00
ECP-NLP                                    I   N=          16
           2           2           2           2           2           2
           2           2           2           2           2           2
           2           2           2           2
ECP-CLP1                                   R   N=          16
  0.00000000E+00  4.99896490E+01  2.81006556E+02  6.14167390E+01  6.74162390E+01
  1.34807696E+02  1.45665480E+01  2.89684220E+01  3.55387560E+01  5.33397590E+01
  9.71646600E+00  1.49775000E+01 -2.01766180E+01 -2.60880770E+01 -2.20434000E-01
 -2.21646000E-01
ECP-CLP2                                   R   N=          16
  0.00000000E+00  0.00000000E+00  0.00000000E+00  0.00000000E+00  0.00000000E+00
  0.00000000E+00  0.00000000E+00  0.00000000E+00  0.00000000E+00  0.00000000E+00
  0.00000000E+00  0.00000000E+00  0.00000000E+00  0.00000000E+00  0.00000000E+00
  0.00000000E+00
ECP-ZLP                                    R   N=          16
  1.00000000E+00  4.00333760E+01  1.73005760E+01  8.85172000E+00  1.57201410E+01
  1.52082220E+01  8.29418600E+00  7.75394900E+00  1.38177510E+01  1.35878050E+01
  6.94763000E+00  6.96009900E+00  1.85229500E+01  1.82510350E+01  7.55790100E+00
  7.59740400E+00
MxBond                                     I                2
NBond                                      I   N=           4
           2           1           0           1
IBond                                      I   N=           8
           2           4           1           0           0           0
           1           0
RBond                                      R   N=           8
  1.00000000E+00  2.00000000E+00  1.00000000E+00  0.00000000E+00  0.00000000E+00
  0.00000000E+00  2.00000000E+00  0.00000000E+00
Virial Ratio                               R      2.979700360209046E+00
SCF Energy                                 R     -3.707835217673522E+02
MP2 Energy                                 R     -3.712714879664312E+02
Total Energy                               R     -3.712714879664312E+02
Post-SCF wavefunction norm                 R      1.072374672361189E+00
RMS Density                                R      2.974803729366132E-09
Job Status                                 I                1
Nuclear derivative order                   I                0
External E-field                           R   N=          35
  0.00000000E+00  0.00000000E+00  0.00000000E+00  0.00000000E+00  0.00000000E+00
  0.00000000E+00  0.00000000E+00  0.00000000E+00  0.00000000E+00  0.00000000E+00
  0.00000000E+00  0.00000000E+00  0.00000000E+00  0.00000000E+00  0.00000000E+00
  0.00000000E+00  0.00000000E+00  0.00000000E+00  0.00000000E+00  0.00000000E+00
  0.00000000E+00  0.00000000E+00  0.00000000E+00  0.00000000E+00  0.00000000E+00
  0.00000000E+00  0.00000000E+00  0.00000000E+00  0.00000000E+00  0.00000000E+00
  0.00000000E+00  0.00000000E+00  0.00000000E+00  0.00000000E+00  0.00000000E+00
IOpCl                                      I                0
IROHF                                      I                0
Alpha Orbital Energies                     R   N=         147
 -2.03972054E+01 -7.46180412E+00 -5.28726085E+00 -5.28711589E+00 -5.28711562E+00
 -2.01463526E+00 -2.01458836E+00 -2.01456023E+00 -2.01440914E+00 -2.01440269E+00
 -1.25115921E+00 -6.24353973E-01 -6.00530656E-01 -4.52778215E-01 -3.65819597E-01
 -1.41751269E-01 -1.37352962E-01 -1.37026682E-01  1.29944479E-01  1.68361795E-01
  2.34395320E-01  2.45184563E-01  2.53947211E-01  2.66855895E-01  2.81390155E-01
  2.86467940E-01  3.13430660E-01  3.32172252E-01  3.68082825E-01  3.73282091E-01
  3.75957047E-01  3.96262145E-01  4.08144241E-01  4.17099330E-01  4.52567910E-01
  4.74944131E-01  5.39112609E-01  5.46480699E-01  5.69562047E-01  6.02618829E-01
  6.64526050E-01  7.09718381E-01  7.73950129E-01  7.85181131E-01  7.86429072E-01
  7.99077350E-01  8.04025781E-01  8.04985851E-01  8.25788527E-01  8.45132186E-01
  8.55675166E-01  8.57248151E-01  8.72981170E-01  8.74540474E-01  8.85665799E-01
  8.88114191E-01  8.90681994E-01  9.02135220E-01  9.21534682E-01  9.74305107E-01
  9.91034702E-01  1.06886228E+00  1.07211758E+00  1.09111887E+00  1.09335553E+00
  1.12687229E+00  1.13232860E+00  1.14885681E+00  1.17709356E+00  1.20462324E+00
  1.33798248E+00  1.37404036E+00  1.38767856E+00  1.41316023E+00  1.46802544E+00
  1.53789688E+00  1.55064351E+00  1.67114534E+00  1.73369524E+00  1.75636438E+00
  1.75656529E+00  1.77406117E+00  1.78609082E+00  1.80009075E+00  1.81295971E+00
  1.84874908E+00  1.88151698E+00  1.88571615E+00  2.00168017E+00  2.05663550E+00
  2.05997286E+00  2.10082416E+00  2.10964756E+00  2.11448857E+00  2.17236041E+00
  2.26852803E+00  2.43316935E+00  2.49778769E+00  2.56406919E+00  2.58710809E+00
  2.62574246E+00  2.65138385E+00  2.79920039E+00  2.82831858E+00  2.86314522E+00
  2.93086811E+00  3.01584067E+00  3.07148621E+00  3.09582073E+00  3.23212885E+00
  3.25948797E+00  3.87165076E+00  3.94824288E+00  4.16700001E+00  4.25471229E+00
  4.34395084E+00  4.41363319E+00  4.48057559E+00  4.56496190E+00  4.61382131E+00
  4.61478980E+00  4.69383938E+00  4.77758870E+00  5.01656520E+00  5.20973989E+00
  5.37302091E+00  5.43735462E+00  5.57389934E+00  5.97701797E+00  6.01145997E+00
  6.29597045E+00  6.59516372E+00  6.71326123E+00  6.92847375E+00  7.27172234E+00
  7.34256080E+00  7.41369030E+00  7.44581982E+00  7.47977135E+00  7.79572684E+00
  8.04003581E+00  8.05463879E+00  8.26336853E+00  9.00523082E+00  9.34277517E+00
  2.03188190E+01  5.92192537E+01
Alpha MO coefficients                      R   N=       28077
  9.76617101E-01 -8.05305601E-03  4.41843505E-02  4.62826427E-03  3.01552476E-03
  1.16302697E-03 -1.45417063E-03 -6.31521048E-16 -1.51386609E-03 -4.22448982E-04
  2.83456952E-15 -1.72092969E-03 -1.77899734E-03  1.01439465E-14 -4.13930391E-04
 -6.87887105E-04  2.35941814E-15 -2.34031665E-04 -8.77533069E-16 -7.36293278E-16
 -2.56231719E-04  1.26130113E-04  3.49848285E-04  5.68529767E-16 -2.61595208E-15
 -5.09066493E-04  6.30272250E-05  1.54929288E-04  1.51603756E-15 -2.78706834E-15
 -2.05358897E-04 -1.33654945E-04 -8.79265182E-16  3.99676545E-05  1.40008137E-04
 -1.20682145E-15  8.54416217E-16  1.41069943E-04  1.72232616E-04 -1.12542010E-15
  9.11908025E-05 -2.01964658E-04  2.23848006E-18 -1.16815179E-16 -2.87584901E-04
 -2.71494963E-04  4.92475984E-04  1.28480168E-03  1.52687716E-03  1.48258126E-04
  1.28480168E-03  1.52687716E-03  1.48258126E-04 -1.24474525E-04 -5.45463537E-06
 -8.62820174E-16 -6.76966390E-04  6.51224441E-05 -3.50136648E-17 -5.62290474E-04
 -1.17953470E-05 -2.10530133E-15 -1.24474525E-04 -5.45463537E-06  1.07540972E-15
 -6.76966390E-04  6.51224441E-05 -3.27148405E-15 -5.62290474E-04 -1.17953470E-05
 -2.20992072E-16  1.08356338E-05  6.46146704E-16  3.13754341E-15 -4.39439808E-05
  2.14953399E-05 -1.21121922E-04  3.12206978E-16  1.17467093E-15  1.91462766E-04
 -2.89199281E-05  1.08356338E-05 -6.81850471E-16 -3.16982406E-15 -4.39439808E-05
  2.14953399E-05 -1.21121922E-04  1.95348017E-15 -1.10872708E-15  1.91462766E-04
 -2.89199281E-05 -1.77229933E-06  3.89384155E-06 -6.24472184E-05  1.11449391E-03
 -2.01607542E-03 -4.71677032E-04 -5.43608602E-06  2.34800627E-07 -1.01774288E-16
 -3.79056241E-07  1.33803619E-04 -1.58911886E-15  2.03926872E-05  3.50055198E-05
  8.69629062E-16 -2.67528637E-04 -1.47843149E-03  1.69273222E-15 -4.52058414E-05
 -2.10981081E-04  1.73601165E-17  6.80885984E-06 -9.46573736E-17  6.42008386E-18
  1.08999982E-05 -4.61866262E-06 -5.49263884E-05  5.82774097E-17  4.00272168E-16
 -8.69723263E-05  3.81171853E-05  2.08928412E-04  4.38782096E-17 -4.52012806E-16
  3.28459827E-04 -1.47037913E-04  2.28957166E-04  2.01671775E-16  6.25249156E-16
  3.75353399E-04 -1.33288687E-04  2.64030409E-16  3.09692981E-06  7.73856684E-07
  2.68995687E-17 -2.53860950E-16  4.40977932E-06 -5.84746837E-06 -1.74413117E-16
  1.99291596E-05  1.21976637E-04  1.23056055E-17  4.87916787E-16  8.41973139E-05
  1.42709420E-04  3.84860921E-04 -1.65636565E-03 -2.80125516E-03 -1.78251121E-04
 -1.65636565E-03 -2.80125516E-03 -1.78251121E-04 -4.29222854E-05 -3.35184006E-04
 -7.73488349E-16 -7.98274901E-05 -5.49028520E-04 -2.77399970E-15 -5.08119590E-04
 -1.91144974E-03 -2.24979486E-15 -4.29222854E-05 -3.35184006E-04 -7.73488349E-16
 -7.98274901E-05 -5.49028520E-04 -2.77399970E-15 -5.08119590E-04 -1.91144974E-03
 -2.33540499E-15  1.90265137E-04 -2.49746700E-16 -1.07965705E-15  3.26701240E-04
 -1.04566132E-04 -1.27184756E-04 -3.77164075E-16  2.90165007E-16 -2.11135066E-04
  9.94619930E-05  1.90265137E-04 -2.49746700E-16 -1.07965705E-15  3.26701240E-04
 -1.04566132E-04 -1.27184756E-04 -3.77164075E-16 -2.05599026E-15 -2.11135066E-04
  9.94619930E-05  1.70463419E-06 -1.77760163E-06 -1.48490490E-06 -1.53557675E-04
 -1.23943088E-04  8.61815275E-07  3.48523681E-06  1.17460126E-16  2.40735618E-07
  1.75945506E-05 -9.61064069E-16  4.79985731E-05  6.84897306E-05 -2.07504249E-14
  6.27789091E-05 -2.59383737E-05 -5.67132796E-15  2.69424766E-08  4.81501270E-16
 -6.69190427E-17  1.19824118E-06 -9.96031919E-09  1.25505465E-05 -4.12286446E-16
  1.81160296E-15  9.64872028E-06 -1.10757967E-05  5.39872453E-06 -4.73258536E-15
  6.02737900E-15  9.37428928E-06 -2.38845159E-05 -4.25827759E-16 -1.22825332E-07
 -1.85400119E-06  3.27648981E-16 -4.25296947E-16 -1.54124695E-06 -2.46047187E-06
  1.82615486E-15 -1.86552854E-06 -3.80880148E-06  4.31450479E-16  2.55250637E-16
 -6.83156282E-06 -1.23470261E-06  2.70253607E-07  1.06605403E-05 -9.69584524E-06
 -6.46952624E-05  1.06605403E-05 -9.69584524E-06 -6.46952624E-05 -2.81377355E-07
  1.23808248E-07 -1.12317649E-15 -6.93383224E-06 -3.43556505E-07  2.86288018E-15
 -1.94356291E-06 -1.81177937E-06  2.11674808E-15 -2.81377356E-07  1.23808247E-07
  1.56928758E-16 -6.93383224E-06 -3.43556505E-07  3.02174772E-15 -1.94356290E-06
 -1.81177937E-06  3.09899702E-15 -2.20831178E-07 -4.03911651E-16 -4.64605966E-17
  3.25541570E-07 -3.83470131E-07 -1.16160065E-06 -2.14346198E-15  2.82146490E-16
  2.53435823E-06 -1.34829638E-06 -2.20831177E-07  8.57310918E-16 -1.90083654E-16
  3.25541569E-07 -3.83470130E-07 -1.16160065E-06 -1.25978891E-15  2.37392244E-16
  2.53435823E-06 -1.34829638E-06  9.83175515E-01 -2.62422875E-03  2.28910439E-02
 -5.94951374E-03  1.73091823E-03 -7.34407981E-04  9.09237004E-05  6.61702019E-05
  8.37362014E-16 -1.95534095E-05 -5.91104291E-05  2.72174369E-15  2.32377528E-05
  6.01999100E-05 -1.51986447E-15  2.25548233E-05  9.14237991E-05 -2.95967568E-15
 -1.10035798E-05 -1.12838718E-04  8.71856706E-17 -1.18657358E-05 -2.34513256E-16
  2.24782490E-16  6.35400549E-06  2.14911977E-05 -2.75971861E-06  6.37748349E-17
 -2.99053667E-16 -2.32447232E-06  2.97872657E-06 -3.65919014E-06 -4.03342367E-16
  9.01391450E-16 -1.21884458E-05 -7.29527170E-07  5.57391323E-06 -3.08054810E-16
 -1.28783234E-15  1.77603088E-05  3.29868808E-06 -6.74680036E-17 -5.01830906E-08
 -3.05848174E-06 -1.19192133E-16  2.46430899E-16 -1.63201529E-06 -5.66002478E-06
  1.50372257E-16 -2.93444800E-07  3.07230642E-06  2.04299183E-16 -3.57658242E-16
  1.08412409E-06  6.88780943E-06  6.00694420E-06  5.85783111E-05  5.43516194E-05
  1.57395660E-04  5.85783111E-05  5.43516194E-05  1.57395660E-04  1.42983966E-06
  6.91431384E-06 -1.78891349E-16 -1.30645913E-05 -3.09114307E-06  4.83693763E-15
 -1.97584797E-05  4.76154819E-05  5.68496313E-15  1.42983966E-06  6.91431384E-06
 -1.78891349E-16 -1.30645913E-05 -3.09114307E-06  4.83693763E-15 -1.97584797E-05
  4.76154819E-05  5.45179537E-15 -2.49095885E-06  5.09518578E-17  2.56426202E-16
 -3.95416070E-06  8.70161899E-07 -1.71341396E-06  1.21335808E-15  2.99868253E-15
 -7.28707086E-06 -5.76923127E-06 -2.49095885E-06  5.09518578E-17  2.56426202E-16
 -3.95416070E-06  8.70161899E-07 -1.71341396E-06  1.21335808E-15  1.00395731E-15
 -7.28707086E-06 -5.76923127E-06  2.50325794E-06 -5.01514331E-06 -2.34435622E-06
 -1.13066252E-04 -5.57765482E-05  1.04734322E-06  6.13524257E-06  2.99455899E-16
  1.60227931E-06  2.30318408E-05 -1.18708617E-15  2.86055371E-05  5.73785998E-05
 -2.75515162E-15  5.33586719E-06  6.19680841E-06  4.40946603E-17  7.77187376E-07
  9.29773054E-16  1.68084857E-16  1.83527650E-06  1.37126822E-08  9.11154330E-06
 -1.40933717E-15  1.21377625E-18  5.70343767E-06 -9.83695436E-06  7.29391531E-06
  5.83044459E-16  4.01542090E-16 -1.63973763E-06  8.02001370E-07  1.82083600E-16
 -1.27577875E-07 -1.76130190E-06  7.29049125E-18 -3.36004299E-16 -2.39530353E-06
 -2.56800049E-06  5.04876332E-17 -8.25642023E-07 -1.26733038E-06  1.96175223E-16
 -3.58535008E-16 -2.87399976E-07  3.83187789E-06 -2.77433077E-07  1.88223010E-05
 -9.54400606E-06  7.72738358E-06  1.88223010E-05 -9.54400606E-06  7.72738358E-06
 -2.62291055E-07 -4.31011930E-07 -1.38640261E-15 -8.70515201E-06 -2.45621091E-06
 -1.51066334E-15  4.57951611E-06 -9.50296413E-07  3.48103606E-16 -2.62291058E-07