 Entering Gaussian System, Link 0=g09
 Input=ihod_rOH_105_sp.gjf
 Output=ihod_rOH_105_sp.log
 Initial command:
 /usr/local/gaussian/g09/l1.exe "/scratch/Gau-1778.inp" -scrdir="/scratch/"
 Entering Link 1 = /usr/local/gaussian/g09/l1.exe PID=      1779.
  
 Copyright (c) 1988,1990,1992,1993,1995,1998,2003,2009,2015,
            Gaussian, Inc.  All Rights Reserved.
  
 This is part of the Gaussian(R) 09 program.  It is based on
 the Gaussian(R) 03 system (copyright 2003, Gaussian, Inc.),
 the Gaussian(R) 98 system (copyright 1998, Gaussian, Inc.),
 the Gaussian(R) 94 system (copyright 1995, Gaussian, Inc.),
 the Gaussian 92(TM) system (copyright 1992, Gaussian, Inc.),
 the Gaussian 90(TM) system (copyright 1990, Gaussian, Inc.),
 the Gaussian 88(TM) system (copyright 1988, Gaussian, Inc.),
 the Gaussian 86(TM) system (copyright 1986, Carnegie Mellon
 University), and the Gaussian 82(TM) system (copyright 1983,
 Carnegie Mellon University). Gaussian is a federally registered
 trademark of Gaussian, Inc.
  
 This software contains proprietary and confidential information,
 including trade secrets, belonging to Gaussian, Inc.
  
 This software is provided under written license and may be
 used, copied, transmitted, or stored only in accord with that
 written license.
  
 The following legend is applicable only to US Government
 contracts under FAR:
  
                    RESTRICTED RIGHTS LEGEND
  
 Use, reproduction and disclosure by the US Government is
 subject to restrictions as set forth in subparagraphs (a)
 and (c) of the Commercial Computer Software - Restricted
 Rights clause in FAR 52.227-19.
  
 Gaussian, Inc.
 340 Quinnipiac St., Bldg. 40, Wallingford CT 06492
  
  
 ---------------------------------------------------------------
 Warning -- This program may not be used in any manner that
 competes with the business of Gaussian, Inc. or will provide
 assistance to any competitor of Gaussian, Inc.  The licensee
 of this program is prohibited from giving any competitor of
 Gaussian, Inc. access to this program.  By using this program,
 the user acknowledges that Gaussian, Inc. is engaged in the
 business of creating and licensing software in the field of
 computational chemistry and represents and warrants to the
 licensee that it is not a competitor of Gaussian, Inc. and that
 it will not use this program in any manner prohibited above.
 ---------------------------------------------------------------
  

 Cite this work as:
 Gaussian 09, Revision E.01,
 M. J. Frisch, G. W. Trucks, H. B. Schlegel, G. E. Scuseria, 
 M. A. Robb, J. R. Cheeseman, G. Scalmani, V. Barone, B. Mennucci, 
 G. A. Petersson, H. Nakatsuji, M. Caricato, X. Li, H. P. Hratchian, 
 A. F. Izmaylov, J. Bloino, G. Zheng, J. L. Sonnenberg, M. Hada, 
 M. Ehara, K. Toyota, R. Fukuda, J. Hasegawa, M. Ishida, T. Nakajima, 
 Y. Honda, O. Kitao, H. Nakai, T. Vreven, J. A. Montgomery, Jr., 
 J. E. Peralta, F. Ogliaro, M. Bearpark, J. J. Heyd, E. Brothers, 
 K. N. Kudin, V. N. Staroverov, T. Keith, R. Kobayashi, J. Normand, 
 K. Raghavachari, A. Rendell, J. C. Burant, S. S. Iyengar, J. Tomasi, 
 M. Cossi, N. Rega, J. M. Millam, M. Klene, J. E. Knox, J. B. Cross, 
 V. Bakken, C. Adamo, J. Jaramillo, R. Gomperts, R. E. Stratmann, 
 O. Yazyev, A. J. Austin, R. Cammi, C. Pomelli, J. W. Ochterski, 
 R. L. Martin, K. Morokuma, V. G. Zakrzewski, G. A. Voth, 
 P. Salvador, J. J. Dannenberg, S. Dapprich, A. D. Daniels, 
 O. Farkas, J. B. Foresman, J. V. Ortiz, J. Cioslowski, 
 and D. J. Fox, Gaussian, Inc., Wallingford CT, 2013.
 
 ******************************************
 Gaussian 09:  ES64L-G09RevE.01 30-Nov-2015
                12-Oct-2021 
 ******************************************
 %nproc=12
 Will use up to   12 processors via shared memory.
 %mem=8000MB
 %chk=/home/netid.washington.edu/cgavinh/mccoy_hocl/rOH_s_oop_0/ihod/ihod_rOH_105
 _sp.chk
 --------------------------------------------------------
 #p pop=NBO SP NoSymm mp2/gen Pseudo=read density=current
 --------------------------------------------------------
 1/30=1,38=1/1;
 2/12=2,15=1,17=6,18=5,40=1/2;
 3/5=7,11=9,16=1,17=8,25=1,30=1,71=1/1,2,3;
 4//1;
 5/5=2,38=5/2;
 8/6=4,10=1/1;
 9/15=1,16=-3/6;
 10/5=1,13=10,31=1/2;
 6/7=2,8=2,9=2,10=2,22=-1,40=1/1,7;
 99/5=1,9=1/99;
 Leave Link    1 at Tue Oct 12 16:22:42 2021, MaxMem=  1048576000 cpu:         0.2
 (Enter /usr/local/gaussian/g09/l101.exe)
 -----
 title
 -----
 Symbolic Z-matrix:
 Charge = -1 Multiplicity = 1
 O
 X                    1     10. 
 H(iso=2)             1    r1       2     90. 
 I                    1    r2       2     90.      3    a1       0
 H                    1    r3       2    oop      3    a1       0
       Variables:
  r1                    0.96091                  
  r2                    3.5085                   
  r3                    1.05                     
  a1                  101.85831                  
  OOP                  90.                       
 
 NAtoms=      4 NQM=        4 NQMF=       0 NMMI=      0 NMMIF=      0
                NMic=       0 NMicF=      0.
                    Isotopes and Nuclear Properties:
 (Nuclear quadrupole moments (NQMom) in fm**2, nuclear magnetic moments (NMagM)
  in nuclear magnetons)

  Atom         1           2           3           4
 IAtWgt=          16           2         127           1
 AtmWgt=  15.9949146   2.0141018 126.9004000   1.0078250
 NucSpn=           0           2           5           1
 AtZEff=   0.0000000   0.0000000   0.0000000   0.0000000
 NQMom=    0.0000000   0.2860000 -71.0000000   0.0000000
 NMagM=    0.0000000   0.8574380   2.8132800   2.7928460
 AtZNuc=   8.0000000   1.0000000  53.0000000   1.0000000
 Leave Link  101 at Tue Oct 12 16:22:42 2021, MaxMem=  1048576000 cpu:         0.5
 (Enter /usr/local/gaussian/g09/l202.exe)
                          Input orientation:                          
 ---------------------------------------------------------------------
 Center     Atomic      Atomic             Coordinates (Angstroms)
 Number     Number       Type             X           Y           Z
 ---------------------------------------------------------------------
      1          8           0        0.000000    0.000000    0.000000
      2          1           0        0.960908    0.000000    0.000000
      3         53           0       -0.720970   -3.433628    0.000000
      4          1           0       -0.215767   -1.027592    0.000000
 ---------------------------------------------------------------------
                    Distance matrix (angstroms):
                    1          2          3          4
     1  O    0.000000
     2  H    0.960908   0.000000
     3  I    3.508504   3.823416   0.000000
     4  H    1.050000   1.562212   2.458504   0.000000
 Symmetry turned off by external request.
 Stoichiometry    H2IO(1-)
 Framework group  CS[SG(H2IO)]
 Deg. of freedom     5
 Full point group                 CS      NOp   2
 Rotational constants (GHZ):    322.7276048      2.5152225      2.4957713
 Leave Link  202 at Tue Oct 12 16:22:42 2021, MaxMem=  1048576000 cpu:         0.0
 (Enter /usr/local/gaussian/g09/l301.exe)
 General basis read from cards:  (5D, 7F)
 Centers:       2      4      1      2      4
 aug-cc-pVTZ
 ****
 Centers:       3
 S 11 1.00
     Exponent=  5.5465000000D+03 Coefficients=  1.5600000000D-04
     Exponent=  8.3821400000D+02 Coefficients=  9.8600000000D-04
     Exponent=  1.8218700000D+02 Coefficients=  2.7920000000D-03
     Exponent=  3.1212300000D+01 Coefficients= -4.3251000000D-02
     Exponent=  1.9531400000D+01 Coefficients=  2.3413400000D-01
     Exponent=  8.2409900000D+00 Coefficients= -7.5094300000D-01
     Exponent=  2.1945500000D+00 Coefficients=  8.8296800000D-01
     Exponent=  1.1091100000D+00 Coefficients=  4.6206100000D-01
     Exponent=  3.7464100000D-01 Coefficients=  2.2286000000D-02
     Exponent=  1.7708000000D-01 Coefficients= -4.3530000000D-03
     Exponent=  8.1061000000D-02 Coefficients=  1.1020000000D-03
 S 11 1.00
     Exponent=  5.5465000000D+03 Coefficients= -7.3000000000D-05
     Exponent=  8.3821400000D+02 Coefficients= -5.0800000000D-04
     Exponent=  1.8218700000D+02 Coefficients= -1.1580000000D-03
     Exponent=  3.1212300000D+01 Coefficients=  1.2193000000D-02
     Exponent=  1.9531400000D+01 Coefficients= -8.7854000000D-02
     Exponent=  8.2409900000D+00 Coefficients=  3.3820000000D-01
     Exponent=  2.1945500000D+00 Coefficients= -5.7655000000D-01
     Exponent=  1.1091100000D+00 Coefficients= -4.0929800000D-01
     Exponent=  3.7464100000D-01 Coefficients=  5.6745900000D-01
     Exponent=  1.7708000000D-01 Coefficients=  6.1248900000D-01
     Exponent=  8.1061000000D-02 Coefficients=  1.4323100000D-01
 S 1 1.00
     Exponent=  3.7464100000D-01 Coefficients=  1.0000000000D+00
 S 1 1.00
     Exponent=  1.7708000000D-01 Coefficients=  1.0000000000D+00
 S 1 1.00
     Exponent=  1.0010000000D-01 Coefficients=  1.0000000000D+00
 S 1 1.00
     Exponent=  4.1200000000D-02 Coefficients=  1.0000000000D+00
 P 9 1.00
     Exponent=  1.8898800000D+02 Coefficients=  5.8500000000D-04
     Exponent=  2.1286800000D+01 Coefficients=  3.6923000000D-02
     Exponent=  1.0039600000D+01 Coefficients= -2.3532400000D-01
     Exponent=  3.4518000000D+00 Coefficients=  3.4148300000D-01
     Exponent=  1.9745600000D+00 Coefficients=  5.3478800000D-01
     Exponent=  1.0242000000D+00 Coefficients=  2.6514100000D-01
     Exponent=  4.4943700000D-01 Coefficients=  2.5787000000D-02
     Exponent=  1.8664800000D-01 Coefficients=  5.2200000000D-04
     Exponent=  7.3481000000D-02 Coefficients=  6.0600000000D-04
 P 9 1.00
     Exponent=  1.8898800000D+02 Coefficients= -2.5600000000D-04
     Exponent=  2.1286800000D+01 Coefficients= -1.1682000000D-02
     Exponent=  1.0039600000D+01 Coefficients=  8.3192000000D-02
     Exponent=  3.4518000000D+00 Coefficients= -1.5697000000D-01
     Exponent=  1.9745600000D+00 Coefficients= -2.2451800000D-01
     Exponent=  1.0242000000D+00 Coefficients= -1.1445100000D-01
     Exponent=  4.4943700000D-01 Coefficients=  3.7535600000D-01
     Exponent=  1.8664800000D-01 Coefficients=  5.7513600000D-01
     Exponent=  7.3481000000D-02 Coefficients=  2.4591700000D-01
 P 1 1.00
     Exponent=  5.9810000000D-01 Coefficients=  1.0000000000D+00
 P 1 1.00
     Exponent=  9.6180000000D-02 Coefficients=  1.0000000000D+00
 P 1 1.00
     Exponent=  3.5900000000D-02 Coefficients=  1.0000000000D+00
 D 9 1.00
     Exponent=  1.3266200000D+02 Coefficients=  5.7200000000D-04
     Exponent=  3.7605400000D+01 Coefficients=  4.4020000000D-03
     Exponent=  1.0389100000D+01 Coefficients= -4.0922000000D-02
     Exponent=  6.4901700000D+00 Coefficients=  9.9661000000D-02
     Exponent=  3.4545100000D+00 Coefficients=  3.2266300000D-01
     Exponent=  1.8441300000D+00 Coefficients=  4.0034300000D-01
     Exponent=  9.6247800000D-01 Coefficients=  2.6830600000D-01
     Exponent=  4.7285300000D-01 Coefficients=  8.4847000000D-02
     Exponent=  1.9320000000D-01 Coefficients=  7.6320000000D-03
 D 1 1.00
     Exponent=  4.7285300000D-01 Coefficients=  1.0000000000D+00
 D 1 1.00
     Exponent=  1.9320000000D-01 Coefficients=  1.0000000000D+00
 D 1 1.00
     Exponent=  7.8200000000D-02 Coefficients=  1.0000000000D+00
 F 1 1.00
     Exponent=  4.0640000000D-01 Coefficients=  1.0000000000D+00
 F 1 1.00
     Exponent=  1.8480000000D-01 Coefficients=  1.0000000000D+00
 ****
 ======================================================================================================
                                       Pseudopotential Parameters
 ======================================================================================================
  Center     Atomic      Valence      Angular      Power
  Number     Number     Electrons     Momentum     of R      Exponent        Coefficient   SO-Coeffient
 ======================================================================================================
    1          8
                                   No pseudopotential on this center.
    2          1
                                   No pseudopotential on this center.
    3         53           25
                                      G and up 
                                                     2        1.0000000        0.00000000    0.00000000
                                      S - G
                                                     2       40.0333760       49.98964900    0.00000000
                                                     2       17.3005760      281.00655600    0.00000000
                                                     2        8.8517200       61.41673900    0.00000000
                                      P - G
                                                     2       15.7201410       67.41623900    0.00000000
                                                     2       15.2082220      134.80769600    0.00000000
                                                     2        8.2941860       14.56654800    0.00000000
                                                     2        7.7539490       28.96842200    0.00000000
                                      D - G
                                                     2       13.8177510       35.53875600    0.00000000
                                                     2       13.5878050       53.33975900    0.00000000
                                                     2        6.9476300        9.71646600    0.00000000
                                                     2        6.9600990       14.97750000    0.00000000
                                      F - G
                                                     2       18.5229500      -20.17661800    0.00000000
                                                     2       18.2510350      -26.08807700    0.00000000
                                                     2        7.5579010       -0.22043400    0.00000000
                                                     2        7.5974040       -0.22164600    0.00000000
    4          1
                                   No pseudopotential on this center.
 ======================================================================================================
 Ernie: Thresh=  0.10000D-02 Tol=  0.10000D-05 Strict=F.
 Ernie:  16 primitive shells out of 135 were deleted.
   191 basis functions,   344 primitive gaussians,   218 cartesian basis functions
    18 alpha electrons       18 beta electrons
       nuclear repulsion energy        47.7828117798 Hartrees.
 IExCor=    0 DFT=F Ex=HF Corr=None ExCW=0 ScaHFX=  1.000000
 ScaDFX=  1.000000  1.000000  1.000000  1.000000 ScalE2=  1.000000  1.000000
 IRadAn=      0 IRanWt=     -1 IRanGd=            0 ICorTp=0 IEmpDi=  4
 NAtoms=    4 NActive=    4 NUniq=    4 SFac= 1.00D+00 NAtFMM=   60 NAOKFM=F Big=F
 Integral buffers will be    131072 words long.
 Raffenetti 1 integral format.
 Two-electron integral symmetry is turned off.
 Leave Link  301 at Tue Oct 12 16:22:42 2021, MaxMem=  1048576000 cpu:         0.7
 (Enter /usr/local/gaussian/g09/l302.exe)
 NPDir=0 NMtPBC=     1 NCelOv=     1 NCel=       1 NClECP=     1 NCelD=      1
         NCelK=      1 NCelE2=     1 NClLst=     1 CellRange=     0.0.
 One-electron integrals computed using PRISM.
   1 Symmetry operations used in ECPInt.
 ECPInt:  NShTT=    2145 NPrTT=    7341 LenC2=    2146 LenP2D=    6689.
 LDataN:  DoStor=T MaxTD1= 7 Len=  274
 NBasis=   191 RedAO= T EigKep=  4.04D-04  NBF=   191
 NBsUse=   147 1.00D-06 EigRej=  8.94D-16 NBFU=   147
 Leave Link  302 at Tue Oct 12 16:22:42 2021, MaxMem=  1048576000 cpu:         2.8
 (Enter /usr/local/gaussian/g09/l303.exe)
 DipDrv:  MaxL=1.
 Leave Link  303 at Tue Oct 12 16:22:42 2021, MaxMem=  1048576000 cpu:         0.2
 (Enter /usr/local/gaussian/g09/l401.exe)
 ExpMin= 2.53D-02 ExpMax= 1.53D+04 ExpMxC= 5.22D+02 IAcc=3 IRadAn=         5 AccDes= 0.00D+00
 Harris functional with IExCor=  205 and IRadAn=       5 diagonalized for initial guess.
 HarFok:  IExCor=  205 AccDes= 0.00D+00 IRadAn=         5 IDoV= 1 UseB2=F ITyADJ=14
 ICtDFT=  3500011 ScaDFX=  1.000000  1.000000  1.000000  1.000000
 Defaulting to unpruned grid for atomic number  53.
 Defaulting to unpruned grid for atomic number  53.
 Defaulting to unpruned grid for atomic number  53.
 Defaulting to unpruned grid for atomic number  53.
 Defaulting to unpruned grid for atomic number  53.
 Defaulting to unpruned grid for atomic number  53.
 Defaulting to unpruned grid for atomic number  53.
 Defaulting to unpruned grid for atomic number  53.
 Defaulting to unpruned grid for atomic number  53.
 Defaulting to unpruned grid for atomic number  53.
 Defaulting to unpruned grid for atomic number  53.
 Defaulting to unpruned grid for atomic number  53.
 FoFCou: FMM=F IPFlag=           0 FMFlag=      100000 FMFlg1=           0
         NFxFlg=           0 DoJE=T BraDBF=F KetDBF=T FulRan=T
         wScrn=  0.000000 ICntrl=     500 IOpCl=  0 I1Cent=   200000004 NGrid=           0
         NMat0=    1 NMatS0=      1 NMatT0=    0 NMatD0=    1 NMtDS0=    0 NMtDT0=    0
 Symmetry not used in FoFCou.
 Harris En= -372.678144496315    
 JPrj=0 DoOrth=F DoCkMO=F.
 Leave Link  401 at Tue Oct 12 16:22:42 2021, MaxMem=  1048576000 cpu:         2.8
 (Enter /usr/local/gaussian/g09/l502.exe)
 Closed shell SCF:
 Using DIIS extrapolation, IDIIS=  1040.
 Two-electron integral symmetry not used.
 Keep R1 ints in memory in canonical form, NReq=176646709.
 IVT=      165054 IEndB=      165054 NGot=  1048576000 MDV=   880297331
 LenX=   880297331 LenY=   880249366
 Requested convergence on RMS density matrix=1.00D-08 within 128 cycles.
 Requested convergence on MAX density matrix=1.00D-06.
 Requested convergence on             energy=1.00D-06.
 No special actions if energy rises.
 FoFCou: FMM=F IPFlag=           0 FMFlag=           0 FMFlg1=           0
         NFxFlg=           0 DoJE=F BraDBF=F KetDBF=F FulRan=T
         wScrn=  0.000000 ICntrl=     600 IOpCl=  0 I1Cent=           0 NGrid=           0
         NMat0=    1 NMatS0=  18336 NMatT0=    0 NMatD0=    1 NMtDS0=    0 NMtDT0=    0
 Symmetry not used in FoFCou.

 Cycle   1  Pass 1  IDiag  1:
 E= -370.649705202754    
 DIIS: error= 5.52D-02 at cycle   1 NSaved=   1.
 NSaved= 1 IEnMin= 1 EnMin= -370.649705202754     IErMin= 1 ErrMin= 5.52D-02
 ErrMax= 5.52D-02  0.00D+00 EMaxC= 1.00D-01 BMatC= 3.69D-01 BMatP= 3.69D-01
 IDIUse=3 WtCom= 4.48D-01 WtEn= 5.52D-01
 Coeff-Com:  0.100D+01
 Coeff-En:   0.100D+01
 Coeff:      0.100D+01
 Gap=     0.415 Goal=   None    Shift=    0.000
 GapD=    0.415 DampG=2.000 DampE=0.500 DampFc=1.0000 IDamp=-1.
 RMSDP=3.61D-03 MaxDP=1.03D-01              OVMax= 1.27D-01

 Cycle   2  Pass 1  IDiag  1:
 E= -370.762829928125     Delta-E=       -0.113124725371 Rises=F Damp=F
 DIIS: error= 4.00D-02 at cycle   2 NSaved=   2.
 NSaved= 2 IEnMin= 2 EnMin= -370.762829928125     IErMin= 2 ErrMin= 4.00D-02
 ErrMax= 4.00D-02  0.00D+00 EMaxC= 1.00D-01 BMatC= 7.50D-02 BMatP= 3.69D-01
 IDIUse=3 WtCom= 6.00D-01 WtEn= 4.00D-01
 Coeff-Com:  0.275D+00 0.725D+00
 Coeff-En:   0.000D+00 0.100D+01
 Coeff:      0.165D+00 0.835D+00
 Gap=     0.277 Goal=   None    Shift=    0.000
 RMSDP=1.70D-03 MaxDP=7.61D-02 DE=-1.13D-01 OVMax= 8.14D-02

 Cycle   3  Pass 1  IDiag  1:
 E= -370.801703736081     Delta-E=       -0.038873807957 Rises=F Damp=F
 DIIS: error= 1.67D-02 at cycle   3 NSaved=   3.
 NSaved= 3 IEnMin= 3 EnMin= -370.801703736081     IErMin= 3 ErrMin= 1.67D-02
 ErrMax= 1.67D-02  0.00D+00 EMaxC= 1.00D-01 BMatC= 1.35D-02 BMatP= 7.50D-02
 IDIUse=3 WtCom= 8.33D-01 WtEn= 1.67D-01
 Coeff-Com: -0.228D-02 0.292D+00 0.711D+00
 Coeff-En:   0.000D+00 0.000D+00 0.100D+01
 Coeff:     -0.190D-02 0.243D+00 0.759D+00
 Gap=     0.278 Goal=   None    Shift=    0.000
 RMSDP=4.29D-04 MaxDP=2.21D-02 DE=-3.89D-02 OVMax= 2.57D-02

 Cycle   4  Pass 1  IDiag  1:
 E= -370.809897124701     Delta-E=       -0.008193388619 Rises=F Damp=F
 DIIS: error= 2.59D-03 at cycle   4 NSaved=   4.
 NSaved= 4 IEnMin= 4 EnMin= -370.809897124701     IErMin= 4 ErrMin= 2.59D-03
 ErrMax= 2.59D-03  0.00D+00 EMaxC= 1.00D-01 BMatC= 2.50D-04 BMatP= 1.35D-02
 IDIUse=3 WtCom= 9.74D-01 WtEn= 2.59D-02
 Coeff-Com: -0.839D-02-0.874D-02 0.118D+00 0.899D+00
 Coeff-En:   0.000D+00 0.000D+00 0.000D+00 0.100D+01
 Coeff:     -0.817D-02-0.852D-02 0.115D+00 0.901D+00
 Gap=     0.279 Goal=   None    Shift=    0.000
 RMSDP=9.74D-05 MaxDP=5.35D-03 DE=-8.19D-03 OVMax= 4.71D-03

 Cycle   5  Pass 1  IDiag  1:
 E= -370.810084055185     Delta-E=       -0.000186930484 Rises=F Damp=F
 DIIS: error= 1.71D-04 at cycle   5 NSaved=   5.
 NSaved= 5 IEnMin= 5 EnMin= -370.810084055185     IErMin= 5 ErrMin= 1.71D-04
 ErrMax= 1.71D-04  0.00D+00 EMaxC= 1.00D-01 BMatC= 5.64D-06 BMatP= 2.50D-04
 IDIUse=3 WtCom= 9.98D-01 WtEn= 1.71D-03
 Coeff-Com:  0.147D-02-0.184D-01-0.492D-01 0.145D-01 0.105D+01
 Coeff-En:   0.000D+00 0.000D+00 0.000D+00 0.000D+00 0.100D+01
 Coeff:      0.146D-02-0.184D-01-0.491D-01 0.144D-01 0.105D+01
 Gap=     0.278 Goal=   None    Shift=    0.000
 RMSDP=4.45D-05 MaxDP=1.57D-03 DE=-1.87D-04 OVMax= 1.69D-03

 Cycle   6  Pass 1  IDiag  1:
 E= -370.810096163518     Delta-E=       -0.000012108333 Rises=F Damp=F
 DIIS: error= 1.18D-04 at cycle   6 NSaved=   6.
 NSaved= 6 IEnMin= 6 EnMin= -370.810096163518     IErMin= 6 ErrMin= 1.18D-04
 ErrMax= 1.18D-04  0.00D+00 EMaxC= 1.00D-01 BMatC= 5.02D-07 BMatP= 5.64D-06
 IDIUse=3 WtCom= 9.99D-01 WtEn= 1.18D-03
 Coeff-Com:  0.144D-03 0.620D-02 0.292D-02-0.103D+00-0.214D+00 0.131D+01
 Coeff-En:   0.000D+00 0.000D+00 0.000D+00 0.000D+00 0.000D+00 0.100D+01
 Coeff:      0.144D-03 0.620D-02 0.292D-02-0.103D+00-0.214D+00 0.131D+01
 Gap=     0.278 Goal=   None    Shift=    0.000
 RMSDP=1.44D-05 MaxDP=9.66D-04 DE=-1.21D-05 OVMax= 9.26D-04

 Cycle   7  Pass 1  IDiag  1:
 E= -370.810097830753     Delta-E=       -0.000001667235 Rises=F Damp=F
 DIIS: error= 1.46D-05 at cycle   7 NSaved=   7.
 NSaved= 7 IEnMin= 7 EnMin= -370.810097830753     IErMin= 7 ErrMin= 1.46D-05
 ErrMax= 1.46D-05  0.00D+00 EMaxC= 1.00D-01 BMatC= 1.86D-08 BMatP= 5.02D-07
 IDIUse=1 WtCom= 1.00D+00 WtEn= 0.00D+00
 Coeff-Com: -0.915D-04-0.855D-03 0.137D-02 0.307D-01 0.189D-02-0.357D+00
 Coeff-Com:  0.132D+01
 Coeff:     -0.915D-04-0.855D-03 0.137D-02 0.307D-01 0.189D-02-0.357D+00
 Coeff:      0.132D+01
 Gap=     0.278 Goal=   None    Shift=    0.000
 RMSDP=2.89D-06 MaxDP=1.32D-04 DE=-1.67D-06 OVMax= 1.60D-04

 Cycle   8  Pass 1  IDiag  1:
 E= -370.810097893000     Delta-E=       -0.000000062247 Rises=F Damp=F
 DIIS: error= 4.40D-06 at cycle   8 NSaved=   8.
 NSaved= 8 IEnMin= 8 EnMin= -370.810097893000     IErMin= 8 ErrMin= 4.40D-06
 ErrMax= 4.40D-06  0.00D+00 EMaxC= 1.00D-01 BMatC= 6.12D-10 BMatP= 1.86D-08
 IDIUse=1 WtCom= 1.00D+00 WtEn= 0.00D+00
 Coeff-Com:  0.652D-05-0.110D-03-0.198D-03-0.336D-03 0.675D-02-0.210D-03
 Coeff-Com: -0.171D+00 0.117D+01
 Coeff:      0.652D-05-0.110D-03-0.198D-03-0.336D-03 0.675D-02-0.210D-03
 Coeff:     -0.171D+00 0.117D+01
 Gap=     0.278 Goal=   None    Shift=    0.000
 RMSDP=4.58D-07 MaxDP=1.39D-05 DE=-6.22D-08 OVMax= 2.07D-05

 Cycle   9  Pass 1  IDiag  1:
 E= -370.810097894739     Delta-E=       -0.000000001739 Rises=F Damp=F
 DIIS: error= 6.12D-07 at cycle   9 NSaved=   9.
 NSaved= 9 IEnMin= 9 EnMin= -370.810097894739     IErMin= 9 ErrMin= 6.12D-07
 ErrMax= 6.12D-07  0.00D+00 EMaxC= 1.00D-01 BMatC= 4.08D-11 BMatP= 6.12D-10
 IDIUse=1 WtCom= 1.00D+00 WtEn= 0.00D+00
 Coeff-Com:  0.546D-05 0.647D-04-0.820D-04-0.200D-02-0.594D-03 0.228D-01
 Coeff-Com: -0.624D-01-0.166D+00 0.121D+01
 Coeff:      0.546D-05 0.647D-04-0.820D-04-0.200D-02-0.594D-03 0.228D-01
 Coeff:     -0.624D-01-0.166D+00 0.121D+01
 Gap=     0.278 Goal=   None    Shift=    0.000
 RMSDP=1.20D-07 MaxDP=3.86D-06 DE=-1.74D-09 OVMax= 6.66D-06

 Cycle  10  Pass 1  IDiag  1:
 E= -370.810097894875     Delta-E=       -0.000000000136 Rises=F Damp=F
 DIIS: error= 1.24D-07 at cycle  10 NSaved=  10.
 NSaved=10 IEnMin=10 EnMin= -370.810097894875     IErMin=10 ErrMin= 1.24D-07
 ErrMax= 1.24D-07  0.00D+00 EMaxC= 1.00D-01 BMatC= 2.52D-12 BMatP= 4.08D-11
 IDIUse=1 WtCom= 1.00D+00 WtEn= 0.00D+00
 Coeff-Com: -0.115D-05 0.188D-05 0.180D-04 0.187D-03-0.359D-03-0.155D-02
 Coeff-Com:  0.129D-01-0.421D-01-0.131D+00 0.116D+01
 Coeff:     -0.115D-05 0.188D-05 0.180D-04 0.187D-03-0.359D-03-0.155D-02
 Coeff:      0.129D-01-0.421D-01-0.131D+00 0.116D+01
 Gap=     0.278 Goal=   None    Shift=    0.000
 RMSDP=3.89D-08 MaxDP=2.16D-06 DE=-1.36D-10 OVMax= 1.62D-06

 Cycle  11  Pass 1  IDiag  1:
 E= -370.810097894883     Delta-E=       -0.000000000008 Rises=F Damp=F
 DIIS: error= 3.12D-08 at cycle  11 NSaved=  11.
 NSaved=11 IEnMin=11 EnMin= -370.810097894883     IErMin=11 ErrMin= 3.12D-08
 ErrMax= 3.12D-08  0.00D+00 EMaxC= 1.00D-01 BMatC= 1.65D-13 BMatP= 2.52D-12
 IDIUse=1 WtCom= 1.00D+00 WtEn= 0.00D+00
 Coeff-Com: -0.409D-06-0.371D-05 0.747D-05 0.139D-03-0.523D-05-0.146D-02
 Coeff-Com:  0.434D-02 0.107D-01-0.959D-01 0.881D-01 0.994D+00
 Coeff:     -0.409D-06-0.371D-05 0.747D-05 0.139D-03-0.523D-05-0.146D-02
 Coeff:      0.434D-02 0.107D-01-0.959D-01 0.881D-01 0.994D+00
 Gap=     0.278 Goal=   None    Shift=    0.000
 RMSDP=1.11D-08 MaxDP=6.78D-07 DE=-8.19D-12 OVMax= 4.72D-07

 Cycle  12  Pass 1  IDiag  1:
 E= -370.810097894881     Delta-E=        0.000000000002 Rises=F Damp=F
 DIIS: error= 1.19D-08 at cycle  12 NSaved=  12.
 NSaved=12 IEnMin=11 EnMin= -370.810097894883     IErMin=12 ErrMin= 1.19D-08
 ErrMax= 1.19D-08  0.00D+00 EMaxC= 1.00D-01 BMatC= 1.01D-14 BMatP= 1.65D-13
 IDIUse=1 WtCom= 1.00D+00 WtEn= 0.00D+00
 Coeff-Com:  0.132D-06 0.406D-06-0.166D-05-0.311D-04 0.207D-04 0.290D-03
 Coeff-Com: -0.147D-02 0.290D-02 0.163D-01-0.929D-01-0.791D-01 0.115D+01
 Coeff:      0.132D-06 0.406D-06-0.166D-05-0.311D-04 0.207D-04 0.290D-03
 Coeff:     -0.147D-02 0.290D-02 0.163D-01-0.929D-01-0.791D-01 0.115D+01
 Gap=     0.278 Goal=   None    Shift=    0.000
 RMSDP=3.06D-09 MaxDP=1.82D-07 DE= 2.16D-12 OVMax= 1.06D-07

 SCF Done:  E(RHF) =  -370.810097895     A.U. after   12 cycles
            NFock= 12  Conv=0.31D-08     -V/T= 2.9857
 KE= 1.867401596070D+02 PE=-9.091622218038D+02 EE= 3.038291525221D+02
 Leave Link  502 at Tue Oct 12 16:22:46 2021, MaxMem=  1048576000 cpu:        19.6
 (Enter /usr/local/gaussian/g09/l801.exe)
 ExpMin= 2.53D-02 ExpMax= 1.53D+04 ExpMxC= 5.22D+02 IAcc=3 IRadAn=         5 AccDes= 0.00D+00
 HarFok:  IExCor=  205 AccDes= 0.00D+00 IRadAn=         5 IDoV=-2 UseB2=F ITyADJ=14
 ICtDFT= 12500011 ScaDFX=  1.000000  1.000000  1.000000  1.000000
 Defaulting to unpruned grid for atomic number  53.
 Defaulting to unpruned grid for atomic number  53.
 Defaulting to unpruned grid for atomic number  53.
 Defaulting to unpruned grid for atomic number  53.
 Defaulting to unpruned grid for atomic number  53.
 Defaulting to unpruned grid for atomic number  53.
 Defaulting to unpruned grid for atomic number  53.
 Defaulting to unpruned grid for atomic number  53.
 Defaulting to unpruned grid for atomic number  53.
 Defaulting to unpruned grid for atomic number  53.
 Defaulting to unpruned grid for atomic number  53.
 Defaulting to unpruned grid for atomic number  53.
 Largest valence mixing into a core orbital is  1.29D-04
 Largest core mixing into a valence orbital is  2.22D-05
 Range of M.O.s used for correlation:     6   147
 NBasis=   191 NAE=    18 NBE=    18 NFC=     5 NFV=     0
 NROrb=    142 NOA=    13 NOB=    13 NVA=   129 NVB=   129

 **** Warning!!: The largest alpha MO coefficient is  0.11855252D+02

 Leave Link  801 at Tue Oct 12 16:22:46 2021, MaxMem=  1048576000 cpu:         0.8
 (Enter /usr/local/gaussian/g09/l906.exe)
 Frozen-core derivative calculation, NFC=   5 NFV=   0.
 FulOut=F Deriv=T AODrv=F NAtomX=     4
   MMem=         196  MDisk=          13 MDiskD=          13
  W3Min=      576828 MinDsk=     1313419 NBas6D=         218
 NBas2D=       24339    NTT=       23871    LW2=    26219120
    MDV=  1048236752 MDiskM=       23996 NBas2p=       24339
 Fully in-core method, ICMem=   672878533.
 IMap=   1   2   3   4   5   6   7   8   9  10  11  12  13  14  15  16  17  18
 JobTyp=1 Pass  1 fully in-core, NPsUse= 12.
 Compute canonical integrals.
 FoFCou: FMM=F IPFlag=           0 FMFlag=           0 FMFlg1=           0
         NFxFlg=           0 DoJE=F BraDBF=F KetDBF=F FulRan=T
         wScrn=  0.000000 ICntrl=     600 IOpCl=  1 I1Cent=           0 NGrid=           0
         NMat0=    1 NMatS0=  24339 NMatT0=    0 NMatD0=    1 NMtDS0=    0 NMtDT0=    0
 Symmetry not used in FoFCou.
 Spin components of T(2) and E(2):
     alpha-alpha T2 =       0.2201673967D-01 E2=     -0.6798501049D-01
     alpha-beta  T2 =       0.1151253385D+00 E2=     -0.3647078842D+00
     beta-beta   T2 =       0.2201673967D-01 E2=     -0.6798501049D-01
 The integrals were generated   1 times.
 ANorm=    0.1076642382D+01
 E2 =    -0.5006779052D+00 EUMP2 =    -0.37131077580010D+03
 Leave Link  906 at Tue Oct 12 16:22:55 2021, MaxMem=  1048576000 cpu:       101.4
 (Enter /usr/local/gaussian/g09/l1002.exe)
 Minotr:  Closed shell wavefunction.
          Computing MP2/KS-MP2 derivatives.
          Using Z-Vector for PSCF gradient.
          Skipping F1 and S1 gradient terms here.
          Frozen-core window.
          Direct CPHF calculation.
          Differentiating once with respect to electric field.
                with respect to dipole field.
          Electric field/nuclear overlap derivatives assumed to be zero.
          Requested convergence is 1.0D-10 RMS, and 1.0D-09 maximum.
          NewPWx=F KeepS1=T KeepF1=T KeepIn=T MapXYZ=F SortEE=F KeepMc=T.
          MDV=    1048575822 using IRadAn=       0.
 Keep R1 ints in memory in canonical form, NReq=176526568.
 FoFCou: FMM=F IPFlag=           0 FMFlag=           0 FMFlg1=           0
         NFxFlg=           0 DoJE=F BraDBF=F KetDBF=F FulRan=T
         wScrn=  0.000000 ICntrl=     600 IOpCl=  0 I1Cent=           0 NGrid=           0
         NMat0=    1 NMatS0=  18336 NMatT0=    0 NMatD0=    1 NMtDS0=    0 NMtDT0=    0
 Symmetry not used in FoFCou.
          Solving linear equations separately, MaxMat=       0.
          There are     1 degrees of freedom in the 1st order CPHF.  IDoFFX=0 NUNeed=     1.
 LinEq1:  Iter=  0 NonCon=     1 RMS=2.80D-03 Max=5.19D-02 NDo=     1
 AX will form     1 AO Fock derivatives at one time.
 LinEq1:  Iter=  1 NonCon=     1 RMS=4.57D-04 Max=5.86D-03 NDo=     1
 LinEq1:  Iter=  2 NonCon=     1 RMS=1.98D-04 Max=2.63D-03 NDo=     1
 LinEq1:  Iter=  3 NonCon=     1 RMS=4.88D-05 Max=8.15D-04 NDo=     1
 LinEq1:  Iter=  4 NonCon=     1 RMS=1.35D-05 Max=1.39D-04 NDo=     1
 LinEq1:  Iter=  5 NonCon=     1 RMS=3.92D-06 Max=5.01D-05 NDo=     1
 LinEq1:  Iter=  6 NonCon=     1 RMS=8.71D-07 Max=1.33D-05 NDo=     1
 LinEq1:  Iter=  7 NonCon=     1 RMS=1.86D-07 Max=2.46D-06 NDo=     1
 LinEq1:  Iter=  8 NonCon=     1 RMS=5.07D-08 Max=6.07D-07 NDo=     1
 LinEq1:  Iter=  9 NonCon=     1 RMS=1.04D-08 Max=1.71D-07 NDo=     1
 LinEq1:  Iter= 10 NonCon=     1 RMS=1.75D-09 Max=2.32D-08 NDo=     1
 LinEq1:  Iter= 11 NonCon=     1 RMS=3.24D-10 Max=4.94D-09 NDo=     1
 LinEq1:  Iter= 12 NonCon=     1 RMS=9.05D-11 Max=1.52D-09 NDo=     1
 LinEq1:  Iter= 13 NonCon=     0 RMS=1.70D-11 Max=1.66D-10 NDo=     1
 Linear equations converged to 1.000D-10 1.000D-09 after    13 iterations.
 End of Minotr F.D. properties file   721 does not exist.
 End of Minotr F.D. properties file   722 does not exist.
 End of Minotr F.D. properties file   788 does not exist.
 Leave Link 1002 at Tue Oct 12 16:22:59 2021, MaxMem=  1048576000 cpu:        18.7
 (Enter /usr/local/gaussian/g09/l601.exe)
 Copying SCF densities to generalized density rwf, IOpCl= 0 IROHF=0.

 **********************************************************************

            Population analysis using the MP2 density.

 **********************************************************************

 Alpha  occ. eigenvalues --  -20.40124  -7.46968  -5.29532  -5.29494  -5.29489
 Alpha  occ. eigenvalues --   -2.02281  -2.02258  -2.02252  -2.02212  -2.02212
 Alpha  occ. eigenvalues --   -1.16525  -0.63180  -0.52043  -0.41703  -0.33910
 Alpha  occ. eigenvalues --   -0.15069  -0.14488  -0.14449
 Alpha virt. eigenvalues --    0.13333   0.17010   0.23289   0.24528   0.25159
 Alpha virt. eigenvalues --    0.27109   0.29056   0.29377   0.31253   0.33786
 Alpha virt. eigenvalues --    0.36639   0.37142   0.37533   0.39533   0.40890
 Alpha virt. eigenvalues --    0.42176   0.44274   0.47639   0.53303   0.54464
 Alpha virt. eigenvalues --    0.57174   0.59673   0.66909   0.71643   0.77601
 Alpha virt. eigenvalues --    0.77611   0.78498   0.79621   0.79795   0.79928
 Alpha virt. eigenvalues --    0.82796   0.83729   0.85400   0.85687   0.86465
 Alpha virt. eigenvalues --    0.87732   0.88217   0.88949   0.89942   0.91239
 Alpha virt. eigenvalues --    0.93384   0.97128   1.01298   1.05380   1.07023
 Alpha virt. eigenvalues --    1.09830   1.10937   1.11994   1.14606   1.16499
 Alpha virt. eigenvalues --    1.16855   1.19094   1.32133   1.36215   1.38058
 Alpha virt. eigenvalues --    1.43060   1.48680   1.52134   1.55909   1.67298
 Alpha virt. eigenvalues --    1.71513   1.73362   1.74944   1.75011   1.76649
 Alpha virt. eigenvalues --    1.77569   1.81064   1.85087   1.88668   1.88989
 Alpha virt. eigenvalues --    2.03767   2.04091   2.05404   2.06647   2.10432
 Alpha virt. eigenvalues --    2.10715   2.14981   2.31032   2.44579   2.51024
 Alpha virt. eigenvalues --    2.55588   2.58695   2.60137   2.63582   2.66635
 Alpha virt. eigenvalues --    2.80956   2.89876   2.93386   2.98006   3.01259
 Alpha virt. eigenvalues --    3.05943   3.27822   3.29000   3.70301   3.86940
 Alpha virt. eigenvalues --    4.18454   4.25088   4.29245   4.29832   4.40900
 Alpha virt. eigenvalues --    4.42312   4.53048   4.57106   4.57641   4.72630
 Alpha virt. eigenvalues --    4.92559   5.04371   5.16873   5.23840   5.39534
 Alpha virt. eigenvalues --    5.44924   5.59660   5.75659   6.34521   6.71516
 Alpha virt. eigenvalues --    6.87737   7.04000   7.20954   7.38755   7.41092
 Alpha virt. eigenvalues --    7.44707   7.52845   7.57869   7.75334   8.01241
 Alpha virt. eigenvalues --    8.07397   8.74818  15.25432  59.21967
          Condensed to atoms (all electrons):
               1          2          3          4
     1  O    8.313673   0.199140  -0.062446   0.101634
     2  H    0.199140   0.600637   0.005429   0.024909
     3  I   -0.062446   0.005429  25.908493   0.035282
     4  H    0.101634   0.024909   0.035282   0.569300
 Mulliken charges:
               1
     1  O   -0.552002
     2  H    0.169885
     3  I   -0.886758
     4  H    0.268875
 Sum of Mulliken charges =  -1.00000
 Mulliken charges with hydrogens summed into heavy atoms:
               1
     1  O   -0.113242
     3  I   -0.886758
 Electronic spatial extent (au):  <R**2>=           1235.3552
 Charge=             -1.0000 electrons
 Dipole moment (field-independent basis, Debye):
    X=              4.0656    Y=             13.3212    Z=             -0.0000  Tot=             13.9278
 Quadrupole moment (field-independent basis, Debye-Ang):
   XX=            -41.3176   YY=            -90.5387   ZZ=            -41.8703
   XY=             -9.6760   XZ=              0.0000   YZ=              0.0000
 Traceless Quadrupole moment (field-independent basis, Debye-Ang):
   XX=             16.5912   YY=            -32.6298   ZZ=             16.0386
   XY=             -9.6760   XZ=              0.0000   YZ=              0.0000
 Octapole moment (field-independent basis, Debye-Ang**2):
  XXX=             73.9646  YYY=            518.3141  ZZZ=             -0.0000  XYY=             58.0048
  XXY=            123.0758  XXZ=             -0.0000  XZZ=             23.5307  YZZ=            115.9957
  YYZ=             -0.0000  XYZ=             -0.0000
 Hexadecapole moment (field-independent basis, Debye-Ang**3):
 XXXX=           -179.4550 YYYY=          -3028.0928 ZZZZ=            -75.8440 XXXY=           -252.9630
 XXXZ=              0.0000 YYYX=           -364.2061 YYYZ=              0.0000 ZZZX=              0.0000
 ZZZY=              0.0000 XXYY=           -463.0368 XXZZ=            -42.7500 YYZZ=           -421.9710
 XXYZ=              0.0000 YYXZ=              0.0000 ZZXY=            -82.7404
 N-N= 4.778281177982D+01 E-N=-9.085990908738D+02  KE= 1.869394663899D+02
 No NMR shielding tensors so no spin-rotation constants.
 Leave Link  601 at Tue Oct 12 16:22:59 2021, MaxMem=  1048576000 cpu:         2.1
 (Enter /usr/local/gaussian/g09/l607.exe)
 ******************************Gaussian NBO Version 3.1******************************
             N A T U R A L   A T O M I C   O R B I T A L   A N D
          N A T U R A L   B O N D   O R B I T A L   A N A L Y S I S
 ******************************Gaussian NBO Version 3.1******************************
       /RESON  / : Allow strongly delocalized NBO set

 Analyzing the MP2 density

 Job title: title                                                           

 Storage needed:    110417 in NPA,    146568 in NBO (1048575896 available)


 NATURAL POPULATIONS:  Natural atomic orbital occupancies 
                                                          
   NAO  Atom  No  lang   Type(AO)    Occupancy
 --------------------------------------------
     1    O    1  S      Cor( 1S)     1.99992
     2    O    1  S      Val( 2S)     1.89510
     3    O    1  S      Ryd( 3S)     0.00648
     4    O    1  S      Ryd( 4S)     0.00035
     5    O    1  S      Ryd( 5S)     0.00016
     6    O    1  px     Val( 2p)     1.67411
     7    O    1  px     Ryd( 3p)     0.01298
     8    O    1  px     Ryd( 4p)     0.00062
     9    O    1  px     Ryd( 5p)     0.00008
    10    O    1  py     Val( 2p)     1.76017
    11    O    1  py     Ryd( 3p)     0.01295
    12    O    1  py     Ryd( 4p)     0.00063
    13    O    1  py     Ryd( 5p)     0.00032
    14    O    1  pz     Val( 2p)     1.95402
    15    O    1  pz     Ryd( 3p)     0.02138
    16    O    1  pz     Ryd( 4p)     0.00055
    17    O    1  pz     Ryd( 5p)     0.00000
    18    O    1  dxy    Ryd( 3d)     0.00865
    19    O    1  dxy    Ryd( 4d)     0.00050
    20    O    1  dxy    Ryd( 5d)     0.00013
    21    O    1  dxz    Ryd( 3d)     0.00974
    22    O    1  dxz    Ryd( 4d)     0.00096
    23    O    1  dxz    Ryd( 5d)     0.00012
    24    O    1  dyz    Ryd( 3d)     0.00743
    25    O    1  dyz    Ryd( 4d)     0.00048
    26    O    1  dyz    Ryd( 5d)     0.00016
    27    O    1  dx2y2  Ryd( 3d)     0.01064
    28    O    1  dx2y2  Ryd( 4d)     0.00075
    29    O    1  dx2y2  Ryd( 5d)     0.00025
    30    O    1  dz2    Ryd( 3d)     0.00809
    31    O    1  dz2    Ryd( 4d)     0.00074
    32    O    1  dz2    Ryd( 5d)     0.00019
    33    O    1  f(0)   Ryd( 4f)     0.00088
    34    O    1  f(0)   Ryd( 5f)     0.00016
    35    O    1  f(C1)  Ryd( 4f)     0.00057
    36    O    1  f(C1)  Ryd( 5f)     0.00010
    37    O    1  f(S1)  Ryd( 4f)     0.00063
    38    O    1  f(S1)  Ryd( 5f)     0.00010
    39    O    1  f(C2)  Ryd( 4f)     0.00056
    40    O    1  f(C2)  Ryd( 5f)     0.00012
    41    O    1  f(S2)  Ryd( 4f)     0.00046
    42    O    1  f(S2)  Ryd( 5f)     0.00008
    43    O    1  f(C3)  Ryd( 4f)     0.00041
    44    O    1  f(C3)  Ryd( 5f)     0.00013
    45    O    1  f(S3)  Ryd( 4f)     0.00049
    46    O    1  f(S3)  Ryd( 5f)     0.00012

    47    H    2  S      Val( 1S)     0.32962
    48    H    2  S      Ryd( 2S)     0.00056
    49    H    2  S      Ryd( 3S)     0.00024
    50    H    2  S      Ryd( 4S)     0.00006
    51    H    2  px     Ryd( 2p)     0.00088
    52    H    2  px     Ryd( 3p)     0.00073
    53    H    2  px     Ryd( 4p)     0.00006
    54    H    2  py     Ryd( 2p)     0.00049
    55    H    2  py     Ryd( 3p)     0.00022
    56    H    2  py     Ryd( 4p)     0.00009
    57    H    2  pz     Ryd( 2p)     0.00130
    58    H    2  pz     Ryd( 3p)     0.00016
    59    H    2  pz     Ryd( 4p)     0.00006
    60    H    2  dxy    Ryd( 3d)     0.00009
    61    H    2  dxy    Ryd( 4d)     0.00007
    62    H    2  dxz    Ryd( 3d)     0.00034
    63    H    2  dxz    Ryd( 4d)     0.00008
    64    H    2  dyz    Ryd( 3d)     0.00010
    65    H    2  dyz    Ryd( 4d)     0.00006
    66    H    2  dx2y2  Ryd( 3d)     0.00024
    67    H    2  dx2y2  Ryd( 4d)     0.00006
    68    H    2  dz2    Ryd( 3d)     0.00020
    69    H    2  dz2    Ryd( 4d)     0.00007

    70    I    3  S      Cor( 4S)     2.00002
    71    I    3  S      Val( 5S)     1.97936
    72    I    3  S      Ryd( 6S)     0.00282
    73    I    3  S      Ryd( 7S)     0.00058
    74    I    3  S      Ryd( 8S)     0.00008
    75    I    3  S      Ryd( 9S)     0.00000
    76    I    3  px     Cor( 4p)     2.00006
    77    I    3  px     Val( 5p)     1.95015
    78    I    3  px     Ryd( 6p)     0.01089
    79    I    3  px     Ryd( 7p)     0.00074
    80    I    3  px     Ryd( 8p)     0.00008
    81    I    3  py     Cor( 4p)     2.00002
    82    I    3  py     Val( 5p)     1.92623
    83    I    3  py     Ryd( 6p)     0.00997
    84    I    3  py     Ryd( 7p)     0.00066
    85    I    3  py     Ryd( 8p)     0.00018
    86    I    3  pz     Cor( 4p)     2.00007
    87    I    3  pz     Val( 5p)     1.95160
    88    I    3  pz     Ryd( 6p)     0.01088
    89    I    3  pz     Ryd( 7p)     0.00074
    90    I    3  pz     Ryd( 8p)     0.00007
    91    I    3  dxy    Cor( 4d)     1.99674
    92    I    3  dxy    Ryd( 5d)     0.02033
    93    I    3  dxy    Ryd( 6d)     0.00140
    94    I    3  dxy    Ryd( 7d)     0.00018
    95    I    3  dxz    Cor( 4d)     1.99678
    96    I    3  dxz    Ryd( 5d)     0.02012
    97    I    3  dxz    Ryd( 6d)     0.00165
    98    I    3  dxz    Ryd( 7d)     0.00016
    99    I    3  dyz    Cor( 4d)     1.99675
   100    I    3  dyz    Ryd( 5d)     0.02022
   101    I    3  dyz    Ryd( 6d)     0.00138
   102    I    3  dyz    Ryd( 7d)     0.00018
   103    I    3  dx2y2  Cor( 4d)     1.99671
   104    I    3  dx2y2  Ryd( 5d)     0.02043
   105    I    3  dx2y2  Ryd( 6d)     0.00158
   106    I    3  dx2y2  Ryd( 7d)     0.00020
   107    I    3  dz2    Cor( 4d)     1.99676
   108    I    3  dz2    Ryd( 5d)     0.02027
   109    I    3  dz2    Ryd( 6d)     0.00164
   110    I    3  dz2    Ryd( 7d)     0.00017
   111    I    3  f(0)   Ryd( 4f)     0.00272
   112    I    3  f(0)   Ryd( 5f)     0.00043
   113    I    3  f(C1)  Ryd( 4f)     0.00276
   114    I    3  f(C1)  Ryd( 5f)     0.00043
   115    I    3  f(S1)  Ryd( 4f)     0.00279
   116    I    3  f(S1)  Ryd( 5f)     0.00047
   117    I    3  f(C2)  Ryd( 4f)     0.00271
   118    I    3  f(C2)  Ryd( 5f)     0.00043
   119    I    3  f(S2)  Ryd( 4f)     0.00277
   120    I    3  f(S2)  Ryd( 5f)     0.00043
   121    I    3  f(C3)  Ryd( 4f)     0.00269
   122    I    3  f(C3)  Ryd( 5f)     0.00045
   123    I    3  f(S3)  Ryd( 4f)     0.00275
   124    I    3  f(S3)  Ryd( 5f)     0.00047

   125    H    4  S      Val( 1S)     0.28628
   126    H    4  S      Ryd( 2S)     0.00602
   127    H    4  S      Ryd( 3S)     0.00062
   128    H    4  S      Ryd( 4S)     0.00020
   129    H    4  px     Ryd( 2p)     0.00399
   130    H    4  px     Ryd( 3p)     0.00042
   131    H    4  px     Ryd( 4p)     0.00013
   132    H    4  py     Ryd( 2p)     0.00455
   133    H    4  py     Ryd( 3p)     0.00070
   134    H    4  py     Ryd( 4p)     0.00029
   135    H    4  pz     Ryd( 2p)     0.00421
   136    H    4  pz     Ryd( 3p)     0.00043
   137    H    4  pz     Ryd( 4p)     0.00010
   138    H    4  dxy    Ryd( 3d)     0.00027
   139    H    4  dxy    Ryd( 4d)     0.00010
   140    H    4  dxz    Ryd( 3d)     0.00017
   141    H    4  dxz    Ryd( 4d)     0.00006
   142    H    4  dyz    Ryd( 3d)     0.00027
   143    H    4  dyz    Ryd( 4d)     0.00010
   144    H    4  dx2y2  Ryd( 3d)     0.00024
   145    H    4  dx2y2  Ryd( 4d)     0.00009
   146    H    4  dz2    Ryd( 3d)     0.00028
   147    H    4  dz2    Ryd( 4d)     0.00007

 [ 28 electrons found in the effective core potential]

 WARNING:  5 low occupancy (<1.9990e) core orbitals found on  I    3


 Summary of Natural Population Analysis:                  
                                                          
                                       Natural Population 
                Natural  -----------------------------------------------
    Atom  No    Charge         Core      Valence    Rydberg      Total
 -----------------------------------------------------------------------
      O    1   -1.39345      1.99992     7.28340    0.11013     9.39345
      H    2    0.66420      0.00000     0.32962    0.00618     0.33580
      I    3   -0.96119     45.98392     7.80734    0.16992    53.96119
      H    4    0.69042      0.00000     0.28628    0.02330     0.30958
 =======================================================================
   * Total *   -1.00002     47.98384    15.70664    0.30953    64.00002

                                 Natural Population      
 --------------------------------------------------------
   Effective Core            28.00000
   Core                      19.98384 ( 99.9192% of  20)
   Valence                   15.70664 ( 98.1665% of  16)
   Natural Minimal Basis     63.69048 ( 99.5164% of  64)
   Natural Rydberg Basis      0.30953 (  0.4836% of  64)
 --------------------------------------------------------

    Atom  No          Natural Electron Configuration
 ----------------------------------------------------------------------------
      O    1      [core]2S( 1.90)2p( 5.39)3S( 0.01)3p( 0.05)3d( 0.04)
      H    2            1S( 0.33)
      I    3      [core]5S( 1.98)5p( 5.83)4f( 0.02)5d( 0.10)6p( 0.03)6d( 0.01)
      H    4            1S( 0.29)2S( 0.01)2p( 0.01)


 NATURAL BOND ORBITAL ANALYSIS:
 Warning:  a bond orbital has occupanc of -0.00013

                       Occupancies       Lewis Structure    Low   High
           Occ.    -------------------  -----------------   occ   occ
  Cycle   Thresh.   Lewis   Non-Lewis     CR  BD  3C  LP    (L)   (NL)   Dev
 =============================================================================
   1(1)    1.90    63.65078   0.34922     10   2   0   6     0      0    0.04
 -----------------------------------------------------------------------------

 Structure accepted: No low occupancy Lewis orbitals

 WARNING:  5 low occupancy (<1.9990e) core orbitals found on  I    3

 --------------------------------------------------------
   Effective Core           28.00000
   Core                     19.98384 ( 99.919% of  20)
   Valence Lewis            15.66694 ( 97.918% of  16)
  ==================       ============================
   Total Lewis              63.65078 ( 99.454% of  64)
  -----------------------------------------------------
   Valence non-Lewis         0.06550 (  0.102% of  64)
   Rydberg non-Lewis         0.28372 (  0.443% of  64)
  ==================       ============================
   Total non-Lewis           0.34922 (  0.546% of  64)
 --------------------------------------------------------


       (Occupancy)   Bond orbital/ Coefficients/ Hybrids
 ---------------------------------------------------------------------------------
     1. (1.96358) BD ( 1) O   1 - H   2  
                ( 84.01%)   0.9166* O   1 s( 14.95%)p 5.66( 84.67%)d 0.02(  0.37%)
                                                  f 0.00(  0.01%)
                                            0.0001  0.3866  0.0000  0.0011 -0.0033
                                            0.9198 -0.0200  0.0050 -0.0022 -0.0098
                                           -0.0096 -0.0000 -0.0024  0.0000  0.0000
                                            0.0000  0.0000 -0.0220  0.0035  0.0011
                                            0.0000  0.0000  0.0000  0.0000  0.0000
                                            0.0000  0.0466 -0.0076  0.0048 -0.0303
                                            0.0028 -0.0019  0.0000  0.0000 -0.0097
                                            0.0011  0.0000 -0.0002  0.0000  0.0000
                                            0.0000  0.0000  0.0028  0.0023  0.0013
                                           -0.0003
                ( 15.99%)   0.3998* H   2 s( 99.75%)p 0.00(  0.20%)d 0.00(  0.05%)
                                            0.9988 -0.0018  0.0002  0.0000  0.0071
                                            0.0440 -0.0022 -0.0015 -0.0004 -0.0007
                                            0.0000  0.0000  0.0000  0.0015 -0.0028
                                            0.0000  0.0000  0.0000  0.0000  0.0166
                                           -0.0027 -0.0132  0.0010
     2. (1.96112) BD ( 1) O   1 - H   4  
                ( 87.43%)   0.9350* O   1 s( 15.35%)p 5.49( 84.29%)d 0.02(  0.35%)
                                                  f 0.00(  0.01%)
                                           -0.0001 -0.3918  0.0051  0.0030  0.0006
                                            0.1727 -0.0109 -0.0004 -0.0005  0.9015
                                           -0.0125  0.0074 -0.0058  0.0000  0.0000
                                            0.0000  0.0000  0.0120 -0.0050  0.0007
                                            0.0000  0.0000  0.0000  0.0000  0.0000
                                            0.0000  0.0482 -0.0072  0.0010  0.0304
                                           -0.0007 -0.0020  0.0000  0.0000 -0.0021
                                            0.0006 -0.0103  0.0017  0.0000  0.0000
                                            0.0000  0.0000 -0.0027 -0.0014  0.0011
                                           -0.0029
                ( 12.57%)   0.3545* H   4 s( 99.76%)p 0.00(  0.22%)d 0.00(  0.02%)
                                           -0.9982  0.0358 -0.0056  0.0009 -0.0282
                                           -0.0026 -0.0031  0.0150 -0.0296 -0.0168
                                            0.0000  0.0000  0.0000 -0.0048  0.0054
                                            0.0000  0.0000  0.0000  0.0000  0.0006
                                           -0.0008  0.0101 -0.0013
     3. (1.99992) CR ( 1) O   1           s(100.00%)
                                            1.0000 -0.0003  0.0000  0.0000  0.0000
                                           -0.0000  0.0000 -0.0000  0.0000  0.0001
                                           -0.0000  0.0000 -0.0000  0.0000  0.0000
                                            0.0000  0.0000 -0.0000 -0.0000  0.0000
                                            0.0000  0.0000  0.0000  0.0000  0.0000
                                            0.0000  0.0000 -0.0000  0.0000  0.0000
                                            0.0000 -0.0000  0.0000  0.0000  0.0000
                                            0.0000 -0.0000 -0.0000  0.0000  0.0000
                                            0.0000  0.0000 -0.0000 -0.0000 -0.0000
                                           -0.0000
     4. (2.00002) CR ( 1) I   3           s(100.00%)
                                            1.0000 -0.0000  0.0000 -0.0000  0.0000
                                            0.0000 -0.0000  0.0000  0.0000 -0.0000
                                           -0.0000 -0.0000  0.0001 -0.0000 -0.0000
                                            0.0000  0.0000  0.0000  0.0000  0.0000
                                            0.0000 -0.0000  0.0000 -0.0000 -0.0000
                                            0.0000  0.0000  0.0000  0.0000  0.0000
                                            0.0000  0.0000  0.0000  0.0000 -0.0000
                                            0.0000  0.0000  0.0000 -0.0000  0.0000
                                            0.0000  0.0000  0.0000 -0.0000 -0.0000
                                           -0.0000 -0.0000  0.0000  0.0000  0.0000
                                            0.0000 -0.0000 -0.0000 -0.0000 -0.0000
     5. (2.00006) CR ( 2) I   3           s(  0.00%)p 1.00(100.00%)
                                           -0.0000  0.0000  0.0000 -0.0000  0.0000
                                            0.0000  1.0000 -0.0001 -0.0000 -0.0000
                                            0.0000 -0.0000  0.0001 -0.0000 -0.0000
                                            0.0000  0.0000  0.0000  0.0000  0.0000
                                            0.0000 -0.0000 -0.0000  0.0000  0.0000
                                            0.0000  0.0000  0.0000  0.0000  0.0000
                                            0.0000  0.0000  0.0000  0.0000 -0.0000
                                            0.0000  0.0000  0.0000 -0.0000  0.0000
                                            0.0000  0.0000  0.0000  0.0000  0.0000
                                           -0.0000 -0.0000  0.0000  0.0000  0.0000
                                            0.0000  0.0000 -0.0000 -0.0000 -0.0000
     6. (2.00002) CR ( 3) I   3           s(  0.00%)p 1.00(100.00%)
                                           -0.0000  0.0001  0.0000 -0.0000  0.0000
                                            0.0000 -0.0000  0.0001  0.0000 -0.0000
                                           -0.0000  1.0000  0.0002 -0.0000 -0.0000
                                            0.0000  0.0000  0.0000  0.0000  0.0000
                                            0.0000 -0.0000  0.0000 -0.0000 -0.0000
                                            0.0000  0.0000  0.0000  0.0000  0.0000
                                            0.0000  0.0000  0.0000  0.0000 -0.0000
                                            0.0000  0.0000  0.0000 -0.0000  0.0000
                                            0.0000  0.0000  0.0000 -0.0000 -0.0000
                                           -0.0000 -0.0000  0.0000  0.0000  0.0000
                                            0.0000 -0.0000 -0.0000 -0.0000 -0.0000
     7. (2.00007) CR ( 4) I   3           s(  0.00%)p 1.00(100.00%)
                                            0.0000  0.0000  0.0000  0.0000  0.0000
                                            0.0000  0.0000  0.0000  0.0000  0.0000
                                            0.0000  0.0000  0.0000  0.0000  0.0000
                                            0.0000  1.0000 -0.0001 -0.0000 -0.0000
                                            0.0000  0.0000  0.0000  0.0000  0.0000
                                            0.0000 -0.0000  0.0000 -0.0000  0.0000
                                           -0.0000  0.0000  0.0000  0.0000  0.0000
                                            0.0000  0.0000  0.0000  0.0000  0.0000
                                            0.0000  0.0000  0.0000  0.0000  0.0000
                                            0.0000  0.0000  0.0000  0.0000 -0.0000
                                           -0.0000  0.0000  0.0000  0.0000  0.0000
     8. (1.99674) CR ( 5) I   3           s(  0.00%)p 0.00(  0.00%)d 1.00(100.00%)
                                           -0.0000  0.0000  0.0000 -0.0000  0.0000
                                            0.0000 -0.0000  0.0000  0.0000 -0.0000
                                           -0.0000 -0.0000  0.0001 -0.0000 -0.0000
                                            0.0000  0.0000  0.0000  0.0000  0.0000
                                            0.0000  1.0000  0.0000 -0.0000 -0.0000
                                            0.0000  0.0000  0.0000  0.0000  0.0000
                                            0.0000  0.0000  0.0000  0.0000 -0.0000
                                            0.0000  0.0000  0.0000 -0.0000  0.0000
                                            0.0000  0.0000  0.0000 -0.0000 -0.0000
                                           -0.0000 -0.0000  0.0000  0.0000  0.0000
                                            0.0000 -0.0000 -0.0000 -0.0000 -0.0000
     9. (1.99678) CR ( 6) I   3           s(  0.00%)p 0.00(  0.00%)d 1.00(100.00%)
                                            0.0000  0.0000  0.0000  0.0000  0.0000
                                            0.0000  0.0000  0.0000  0.0000  0.0000
                                            0.0000  0.0000  0.0000  0.0000  0.0000
                                            0.0000  0.0000  0.0000  0.0000  0.0000
                                           -0.0000  0.0000  0.0000  0.0000  0.0000
                                            1.0000  0.0000 -0.0000  0.0000 -0.0000
                                            0.0000 -0.0000 -0.0000  0.0000  0.0000
                                            0.0000  0.0000  0.0000  0.0000  0.0000
                                            0.0000 -0.0000 -0.0000  0.0000  0.0000
                                            0.0000  0.0000 -0.0000 -0.0000  0.0000
                                            0.0000  0.0000  0.0000  0.0000  0.0000
    10. (1.99675) CR ( 7) I   3           s(  0.00%)p 0.00(  0.00%)d 1.00(100.00%)
                                            0.0000  0.0000  0.0000  0.0000  0.0000
                                            0.0000  0.0000  0.0000  0.0000  0.0000
                                            0.0000  0.0000  0.0000  0.0000  0.0000
                                            0.0000  0.0000  0.0000  0.0000  0.0000
                                           -0.0000  0.0000  0.0000  0.0000  0.0000
                                           -0.0000  0.0000 -0.0000  0.0000  1.0000
                                            0.0000 -0.0000 -0.0000  0.0000  0.0000
                                            0.0000  0.0000  0.0000  0.0000  0.0000
                                            0.0000 -0.0000 -0.0000  0.0000  0.0000
                                            0.0000  0.0000 -0.0000 -0.0000  0.0000
                                            0.0000  0.0000  0.0000  0.0000  0.0000
    11. (1.99671) CR ( 8) I   3           s(  0.00%)p 0.00(  0.00%)d 1.00(100.00%)
                                            0.0000 -0.0000 -0.0000  0.0000 -0.0000
                                           -0.0000  0.0000 -0.0000 -0.0000  0.0000
                                            0.0000  0.0000 -0.0001  0.0000  0.0000
                                           -0.0000  0.0000  0.0000  0.0000  0.0000
                                            0.0000  0.0000 -0.0000  0.0000  0.0000
                                            0.0000  0.0000  0.0000  0.0000  0.0000
                                            0.0000  0.0000  0.0000  1.0000  0.0000
                                           -0.0000 -0.0000 -0.0000  0.0000 -0.0000
                                           -0.0000  0.0000  0.0000  0.0000  0.0000
                                            0.0000  0.0000  0.0000  0.0000  0.0000
                                            0.0000  0.0000  0.0000  0.0000  0.0000
    12. (1.99676) CR ( 9) I   3           s(  0.00%)p 0.00(  0.00%)d 1.00(100.00%)
                                            0.0000 -0.0000 -0.0000  0.0000 -0.0000
                                           -0.0000  0.0000 -0.0000 -0.0000  0.0000
                                            0.0000  0.0000 -0.0001  0.0000  0.0000
                                           -0.0000  0.0000  0.0000  0.0000  0.0000
                                            0.0000  0.0000 -0.0000  0.0000  0.0000
                                            0.0000  0.0000  0.0000  0.0000  0.0000
                                            0.0000  0.0000  0.0000 -0.0000  0.0000
                                           -0.0000 -0.0000  1.0000  0.0000 -0.0000
                                           -0.0000  0.0000  0.0000  0.0000  0.0000
                                            0.0000  0.0000  0.0000  0.0000  0.0000
                                            0.0000  0.0000  0.0000  0.0000  0.0000
    13. (1.97260) LP ( 1) O   1           s( 69.63%)p 0.43( 30.27%)d 0.00(  0.10%)
                                                  f 0.00(  0.00%)
                                            0.0002  0.8344  0.0022  0.0009  0.0015
                                           -0.3452 -0.0107  0.0064 -0.0007  0.4281
                                            0.0080 -0.0048  0.0002  0.0000  0.0000
                                            0.0000  0.0000  0.0272 -0.0028 -0.0024
                                            0.0000  0.0000  0.0000  0.0000  0.0000
                                            0.0000 -0.0009  0.0065 -0.0052  0.0102
                                           -0.0073  0.0045  0.0000  0.0000  0.0024
                                           -0.0021 -0.0025  0.0016  0.0000  0.0000
                                            0.0000  0.0000  0.0014  0.0017  0.0031
                                           -0.0009
    14. (1.96092) LP ( 2) O   1           s(  0.00%)p 1.00( 99.70%)d 0.00(  0.27%)
                                                  f 0.00(  0.03%)
                                            0.0000  0.0000  0.0000  0.0000  0.0000
                                            0.0000  0.0000  0.0000  0.0000  0.0000
                                            0.0000  0.0000  0.0000  0.9982  0.0225
                                           -0.0054  0.0056  0.0000  0.0000  0.0000
                                            0.0422 -0.0131  0.0038 -0.0265 -0.0008
                                            0.0049  0.0000  0.0000  0.0000  0.0000
                                            0.0000  0.0000 -0.0141  0.0054  0.0000
                                            0.0000  0.0000  0.0000  0.0049 -0.0029
                                            0.0022 -0.0004  0.0000  0.0000  0.0000
                                            0.0000
    15. (1.98005) LP ( 1) I   3           s( 98.85%)p 0.01(  1.15%)d 0.00(  0.00%)
                                                  f 0.00(  0.00%)
                                            0.0000  0.9942 -0.0001  0.0004 -0.0002
                                           -0.0001 -0.0000 -0.0196  0.0003 -0.0002
                                            0.0001 -0.0000 -0.1055  0.0004 -0.0008
                                            0.0002  0.0000  0.0000  0.0000  0.0000
                                            0.0000 -0.0000  0.0010 -0.0004 -0.0001
                                            0.0000  0.0000  0.0000  0.0000  0.0000
                                            0.0000  0.0000  0.0000  0.0000 -0.0018
                                            0.0005  0.0002  0.0000 -0.0014  0.0004
                                            0.0001  0.0000  0.0000 -0.0002 -0.0001
                                           -0.0008 -0.0006  0.0000  0.0000  0.0000
                                            0.0000 -0.0006 -0.0004 -0.0008 -0.0005
    16. (1.95170) LP ( 2) I   3           s(  0.00%)p 1.00(100.00%)d 0.00(  0.00%)
                                                  f 0.00(  0.00%)
                                            0.0000  0.0000  0.0000  0.0000  0.0000
                                            0.0000  0.0000  0.0000  0.0000  0.0000
                                            0.0000  0.0000  0.0000  0.0000  0.0000
                                            0.0000  0.0001  1.0000  0.0009  0.0012
                                           -0.0000  0.0000  0.0000  0.0000  0.0000
                                           -0.0000  0.0025 -0.0011  0.0008 -0.0000
                                            0.0048 -0.0006 -0.0019  0.0000  0.0000
                                            0.0000  0.0000  0.0000  0.0000  0.0000
                                            0.0000 -0.0019 -0.0012  0.0000  0.0000
                                            0.0000  0.0000 -0.0018 -0.0009  0.0012
                                            0.0009  0.0000  0.0000  0.0000  0.0000
    17. (1.95149) LP ( 3) I   3           s(  0.00%)p 1.00( 99.99%)d 0.00(  0.01%)
                                                  f 0.00(  0.00%)
                                           -0.0000  0.0034  0.0009 -0.0021  0.0018
                                           -0.0001 -0.0001 -0.9770 -0.0022 -0.0017
                                            0.0006  0.0000  0.2132 -0.0006 -0.0003
                                            0.0007 -0.0000 -0.0000 -0.0000 -0.0000
                                           -0.0000  0.0000 -0.0053  0.0005  0.0016
                                           -0.0000 -0.0000 -0.0000 -0.0000 -0.0000
                                           -0.0000 -0.0000 -0.0000  0.0000 -0.0041
                                            0.0015 -0.0004 -0.0000  0.0008 -0.0005
                                            0.0009 -0.0000 -0.0000  0.0009  0.0006
                                           -0.0002 -0.0001 -0.0000 -0.0000 -0.0000
                                           -0.0000  0.0018  0.0006 -0.0020 -0.0014
    18. (1.92548) LP ( 4) I   3           s(  1.15%)p85.88( 98.80%)d 0.04(  0.05%)
                                                  f 0.01(  0.01%)
                                           -0.0001  0.1072  0.0005 -0.0036  0.0014
                                            0.0005 -0.0000  0.2123  0.0002 -0.0005
                                           -0.0003 -0.0002  0.9710 -0.0031 -0.0029
                                            0.0006  0.0000  0.0000  0.0000  0.0000
                                            0.0000 -0.0001  0.0089 -0.0010 -0.0008
                                            0.0000  0.0000  0.0000  0.0000  0.0000
                                            0.0000  0.0000  0.0000  0.0001 -0.0160
                                            0.0015  0.0029  0.0001 -0.0112  0.0015
                                            0.0010  0.0000  0.0000 -0.0010 -0.0006
                                           -0.0045 -0.0030  0.0000  0.0000  0.0000
                                            0.0000 -0.0032 -0.0016 -0.0043 -0.0026
    19. (0.02081) RY*( 1) O   1           s(  0.00%)p 1.00( 97.56%)d 0.02(  2.35%)
                                                  f 0.00(  0.09%)
                                            0.0000  0.0000  0.0000  0.0000  0.0000
                                            0.0000  0.0000  0.0000  0.0000  0.0000
                                            0.0000  0.0000  0.0000 -0.0303  0.9867
                                            0.0327 -0.0099  0.0000  0.0000  0.0000
                                            0.1361 -0.0347  0.0077 -0.0603  0.0061
                                            0.0069  0.0000  0.0000  0.0000  0.0000
                                            0.0000  0.0000 -0.0212  0.0157  0.0000
                                            0.0000  0.0000  0.0000  0.0102 -0.0075
                                           -0.0020 -0.0002  0.0000  0.0000  0.0000
                                            0.0000
    20. (0.01659) RY*( 2) O   1           s( 13.21%)p 6.32( 83.40%)d 0.25(  3.29%)
                                                  f 0.01(  0.11%)
                                           -0.0000 -0.0141  0.3630  0.0082 -0.0024
                                            0.0064 -0.5645  0.0025  0.0023 -0.0100
                                            0.7173  0.0175 -0.0196  0.0000  0.0000
                                            0.0000  0.0000  0.1695 -0.0156 -0.0088
                                            0.0000  0.0000  0.0000  0.0000  0.0000
                                            0.0000  0.0029  0.0265 -0.0153  0.0340
                                           -0.0374  0.0173  0.0000  0.0000  0.0039
                                           -0.0090 -0.0031  0.0075  0.0000  0.0000
                                            0.0000  0.0000  0.0209  0.0015  0.0207
                                           -0.0072
    21. (0.01016) RY*( 3) O   1           s(  0.69%)p99.99( 92.52%)d 9.43(  6.54%)
                                                  f 0.36(  0.25%)
                                           -0.0000  0.0051  0.0755  0.0346 -0.0030
                                            0.0320  0.7844 -0.0165 -0.0075  0.0194
                                            0.5547  0.0143 -0.0187  0.0000  0.0000
                                            0.0000  0.0000  0.1298 -0.0083  0.0074
                                            0.0000  0.0000  0.0000  0.0000  0.0000
                                            0.0000 -0.1809 -0.1073  0.0439  0.0001
                                            0.0382 -0.0279  0.0000  0.0000  0.0146
                                            0.0103  0.0056 -0.0001  0.0000  0.0000
                                            0.0000  0.0000 -0.0131 -0.0116  0.0379
                                           -0.0194
    22. (0.00669) RY*( 4) O   1           s( 36.97%)p 0.04(  1.46%)d 1.65( 60.93%)
                                                  f 0.02(  0.64%)
                                            0.0000  0.0136  0.6075 -0.0146  0.0121
                                           -0.0068  0.0880 -0.0084 -0.0080  0.0082
                                           -0.0780  0.0042 -0.0233 -0.0000 -0.0000
                                           -0.0000 -0.0000 -0.7124 -0.0302  0.0039
                                           -0.0000 -0.0000 -0.0000 -0.0000 -0.0000
                                           -0.0000 -0.0991 -0.0114  0.0115  0.2982
                                            0.0432  0.0018 -0.0000 -0.0000 -0.0051
                                            0.0114  0.0113 -0.0058 -0.0000 -0.0000
                                           -0.0000 -0.0000 -0.0647  0.0198 -0.0380
                                            0.0089
    23. (0.00634) RY*( 5) O   1           s(  0.00%)p 1.00(  0.32%)d99.99( 98.34%)
                                                  f 4.25(  1.34%)
                                            0.0000  0.0000  0.0000  0.0000  0.0000
                                            0.0000  0.0000  0.0000  0.0000  0.0000
                                            0.0000  0.0000  0.0000 -0.0093 -0.0536
                                            0.0029 -0.0136  0.0000  0.0000  0.0000
                                            0.7019  0.0768 -0.0171  0.6933  0.0623
                                           -0.0064  0.0000  0.0000  0.0000  0.0000
                                            0.0000  0.0000  0.0077 -0.0078  0.0000
                                            0.0000  0.0000  0.0000  0.1045 -0.0458
                                           -0.0136  0.0084  0.0000  0.0000  0.0000
                                            0.0000
    24. (0.00592) RY*( 6) O   1           s(  0.00%)p 1.00(  2.07%)d47.01( 97.07%)
                                                  f 0.42(  0.86%)
                                            0.0000  0.0000  0.0000  0.0000  0.0000
                                            0.0000  0.0000  0.0000  0.0000  0.0000
                                            0.0000  0.0000  0.0000  0.0442  0.1348
                                            0.0230  0.0013  0.0000  0.0000  0.0000
                                           -0.6780 -0.1057  0.0232  0.7018  0.0829
                                           -0.0041  0.0000  0.0000  0.0000  0.0000
                                            0.0000  0.0000  0.0761 -0.0323  0.0000
                                            0.0000  0.0000  0.0000 -0.0012 -0.0042
                                            0.0397 -0.0139  0.0000  0.0000  0.0000
                                            0.0000
    25. (0.00582) RY*( 7) O   1           s(  6.16%)p 0.89(  5.51%)d14.20( 87.50%)
                                                  f 0.13(  0.83%)
                                           -0.0000  0.0096  0.2476 -0.0147  0.0019
                                            0.0200  0.0871  0.0103 -0.0124 -0.0465
                                           -0.2094 -0.0288 -0.0044  0.0000  0.0000
                                            0.0000  0.0000  0.5186  0.0553 -0.0124
                                            0.0000  0.0000  0.0000  0.0000  0.0000
                                            0.0000  0.2275  0.0085  0.0130  0.7327
                                            0.1172 -0.0140  0.0000  0.0000  0.0477
                                           -0.0160 -0.0580  0.0238  0.0000  0.0000
                                            0.0000  0.0000  0.0368 -0.0208  0.0039
                                            0.0039
    26. (0.00325) RY*( 8) O   1           s( 37.80%)p 0.34( 12.93%)d 1.28( 48.56%)
                                                  f 0.02(  0.71%)
                                            0.0000 -0.0086  0.6144 -0.0109 -0.0186
                                            0.0072  0.0532  0.0163 -0.0360  0.0127
                                           -0.3436  0.0154 -0.0802  0.0000  0.0000
                                            0.0000  0.0000  0.3883  0.0871 -0.0108
                                            0.0000  0.0000  0.0000  0.0000  0.0000
                                            0.0000 -0.2663 -0.0402  0.0154 -0.4892
                                           -0.1225  0.0042  0.0000  0.0000  0.0029
                                            0.0060  0.0408 -0.0306  0.0000  0.0000
                                            0.0000  0.0000  0.0193 -0.0319  0.0490
                                           -0.0259
    27. (0.00310) RY*( 9) O   1           s(  4.34%)p 1.07(  4.64%)d20.62( 89.54%)
                                                  f 0.34(  1.48%)
                                            0.0000 -0.0013  0.2081  0.0054 -0.0092
                                           -0.0492  0.1838 -0.0663  0.0125 -0.0242
                                            0.0568 -0.0369  0.0212  0.0000  0.0000
                                            0.0000  0.0000 -0.0594 -0.0272  0.0001
                                            0.0000  0.0000  0.0000  0.0000  0.0000
                                            0.0000  0.8793  0.1516  0.0165 -0.2956
                                           -0.0855  0.0008  0.0000  0.0000 -0.0346
                                            0.0323 -0.0144  0.0108  0.0000  0.0000
                                            0.0000  0.0000  0.0536 -0.0393 -0.0796
                                            0.0383
    28. (0.00068) RY*(10) O   1           s( 34.03%)p 1.51( 51.48%)d 0.36( 12.32%)
                                                  f 0.06(  2.18%)
                                            0.0000 -0.0044 -0.0251  0.5809  0.0468
                                           -0.0038 -0.0304  0.0213 -0.0773 -0.0019
                                           -0.0026 -0.6674 -0.2489 -0.0000 -0.0000
                                           -0.0000 -0.0000 -0.0368  0.1187 -0.0781
                                           -0.0000 -0.0000 -0.0000 -0.0000 -0.0000
                                           -0.0000  0.0290 -0.2128  0.1382  0.0308
                                           -0.1649  0.0911 -0.0000 -0.0000  0.0247
                                            0.0157  0.0685  0.0399 -0.0000 -0.0000
                                           -0.0000 -0.0000  0.0133  0.0329  0.1080
                                            0.0413
    29. (0.00058) RY*(11) O   1           s(  0.00%)p 1.00(  9.98%)d 7.58( 75.68%)
                                                  f 1.44( 14.35%)
                                            0.0000  0.0000  0.0000  0.0000  0.0000
                                            0.0000  0.0000  0.0000  0.0000  0.0000
                                            0.0000  0.0000  0.0000  0.0154  0.0599
                                           -0.3096  0.0109  0.0000  0.0000  0.0000
                                           -0.0604  0.7507  0.1609  0.0531 -0.3941
                                           -0.0751  0.0000  0.0000  0.0000  0.0000
                                            0.0000  0.0000  0.2989 -0.0337  0.0000
                                            0.0000  0.0000  0.0000 -0.2004  0.0255
                                            0.1097  0.0126  0.0000  0.0000  0.0000
                                            0.0000
    30. (0.00059) RY*(12) O   1           s(  1.20%)p52.95( 63.43%)d26.99( 32.33%)
                                                  f 2.54(  3.05%)
                                           -0.0000  0.0078  0.0294  0.0902 -0.0540
                                           -0.0012 -0.0541 -0.7855  0.0546 -0.0025
                                           -0.0499 -0.0271  0.0899 -0.0000 -0.0000
                                           -0.0000 -0.0000  0.0371 -0.4317 -0.0387
                                           -0.0000 -0.0000 -0.0000 -0.0000 -0.0000
                                           -0.0000 -0.0123 -0.3140 -0.0021 -0.0384
                                            0.1778 -0.0467 -0.0000 -0.0000  0.0644
                                            0.0246 -0.1310 -0.0130 -0.0000 -0.0000
                                           -0.0000 -0.0000  0.0360 -0.0788  0.0254
                                           -0.0153
    31. (0.00055) RY*(13) O   1           s(  0.00%)p 1.00( 51.72%)d 0.69( 35.46%)
                                                  f 0.25( 12.83%)
                                            0.0000  0.0000  0.0000  0.0000  0.0000
                                            0.0000  0.0000  0.0000  0.0000  0.0000
                                            0.0000  0.0000  0.0000  0.0092 -0.0100
                                            0.7076  0.1277  0.0000  0.0000  0.0000
                                            0.0026  0.3788  0.1219 -0.0256  0.4269
                                            0.1157  0.0000  0.0000  0.0000  0.0000
                                            0.0000  0.0000  0.0559  0.0091  0.0000
                                            0.0000  0.0000  0.0000 -0.3490  0.0181
                                            0.0536 -0.0058  0.0000  0.0000  0.0000
                                            0.0000
    32. (0.00052) RY*(14) O   1           s(  0.30%)p31.27(  9.30%)d99.99( 70.57%)
                                                  f66.65( 19.83%)
                                            0.0000 -0.0004  0.0375  0.0186 -0.0349
                                           -0.0051 -0.0345 -0.0140  0.0154  0.0117
                                            0.0242 -0.2653  0.1423  0.0000  0.0000
                                            0.0000  0.0000  0.0330  0.2953  0.1336
                                            0.0000  0.0000  0.0000  0.0000  0.0000
                                            0.0000 -0.0119  0.0557 -0.0044 -0.1457
                                            0.7513  0.1032  0.0000  0.0000 -0.0323
                                            0.0184  0.0738 -0.0344  0.0000  0.0000
                                            0.0000  0.0000 -0.2540 -0.0720 -0.3463
                                           -0.0270
    33. (0.00048) RY*(15) O   1           s(  0.41%)p34.54( 13.99%)d34.28( 13.89%)
                                                  f99.99( 71.71%)
                                            0.0000  0.0041 -0.0367  0.0414  0.0312
                                           -0.0023 -0.0214 -0.1796 -0.0671  0.0029
                                            0.0073  0.2875 -0.1413  0.0000  0.0000
                                            0.0000  0.0000 -0.0086  0.2311  0.0405
                                            0.0000  0.0000  0.0000  0.0000  0.0000
                                            0.0000  0.0483 -0.2573  0.0264  0.0503
[...]
                                            0.0000  0.0000  0.0000  0.0000  0.0280
                                           -0.0180 -0.0692  0.0050
   127. (0.00242) RY*( 4) H   4           s( 32.44%)p 2.06( 66.82%)d 0.02(  0.74%)
                                            0.0443  0.5053 -0.2482 -0.0742 -0.2618
                                           -0.0166  0.0606  0.7213 -0.2696  0.0515
                                            0.0000  0.0000  0.0000  0.0686  0.0128
                                            0.0000  0.0000  0.0000  0.0000 -0.0027
                                           -0.0469 -0.0132 -0.0128
   128. (0.00087) RY*( 5) H   4           s( 48.42%)p 0.95( 46.08%)d 0.11(  5.49%)
                                           -0.0027  0.2265  0.6314 -0.1852  0.0320
                                            0.3043 -0.0263  0.2743  0.4911 -0.2237
                                            0.0000  0.0000  0.0000 -0.0614 -0.0130
                                            0.0000  0.0000  0.0000  0.0000  0.1815
                                            0.0700  0.0950  0.0641
   129. (0.00043) RY*( 6) H   4           s(  5.52%)p15.14( 83.62%)d 1.97( 10.86%)
                                            0.0005 -0.0583  0.1212  0.1927 -0.0015
                                            0.8115  0.0432 -0.0287 -0.3235  0.2651
                                            0.0000  0.0000  0.0000 -0.0557  0.2463
                                            0.0000  0.0000  0.0000  0.0000 -0.1683
                                           -0.0474 -0.1002 -0.0648
   130. (0.00037) RY*( 7) H   4           s(  0.00%)p 1.00( 81.91%)d 0.22( 18.09%)
                                            0.0000  0.0000  0.0000  0.0000  0.0000
                                            0.0000  0.0000  0.0000  0.0000  0.0000
                                           -0.1300  0.8759  0.1872  0.0000  0.0000
                                            0.1196 -0.0005  0.3599  0.1926  0.0000
                                            0.0000  0.0000  0.0000
   131. (0.00032) RY*( 8) H   4           s( 16.82%)p 2.18( 36.67%)d 2.77( 46.51%)
                                           -0.0167 -0.0184  0.3971  0.0993  0.0126
                                           -0.2669  0.3699  0.0514  0.0688  0.3888
                                            0.0000  0.0000  0.0000  0.4865  0.0694
                                            0.0000  0.0000  0.0000  0.0000 -0.0354
                                           -0.2808 -0.3596 -0.1189
   132. (0.00028) RY*( 9) H   4           s(  8.80%)p 2.66( 23.44%)d 7.70( 67.75%)
                                            0.0059 -0.0329 -0.1090  0.2739  0.0102
                                            0.1864  0.1709 -0.0668 -0.1873 -0.3617
                                            0.0000  0.0000  0.0000  0.4598 -0.0890
                                            0.0000  0.0000  0.0000  0.0000  0.6475
                                            0.1317 -0.0493  0.1383
   133. (0.00026) RY*(10) H   4           s(  0.00%)p 1.00( 21.23%)d 3.71( 78.77%)
                                            0.0000  0.0000  0.0000  0.0000  0.0000
                                            0.0000  0.0000  0.0000  0.0000  0.0000
                                            0.1221 -0.3813  0.2280  0.0000  0.0000
                                            0.0998 -0.0510  0.8746 -0.1014  0.0000
                                            0.0000  0.0000  0.0000
   134. (0.00020) RY*(11) H   4           s( 54.05%)p 0.34( 18.50%)d 0.51( 27.44%)
                                            0.0165  0.0373  0.3511  0.6447 -0.0687
                                           -0.2854  0.1078  0.0830 -0.2452 -0.1422
                                            0.0000  0.0000  0.0000 -0.5078  0.0482
                                            0.0000  0.0000  0.0000  0.0000  0.0765
                                           -0.0662  0.0471  0.0419
   135. (0.00018) RY*(12) H   4           s(  3.84%)p 0.52(  2.01%)d24.50( 94.15%)
                                            0.0069  0.0201  0.1120  0.1595  0.0885
                                           -0.0336  0.0636  0.0090 -0.0838 -0.0007
                                            0.0000  0.0000  0.0000  0.3930  0.0515
                                            0.0000  0.0000  0.0000  0.0000 -0.2897
                                           -0.0469  0.8340  0.0511
   136. (0.00017) RY*(13) H   4           s(  0.00%)p 1.00(  0.46%)d99.99( 99.54%)
                                            0.0000  0.0000  0.0000  0.0000  0.0000
                                            0.0000  0.0000  0.0000  0.0000  0.0000
                                           -0.0126 -0.0629 -0.0219  0.0000  0.0000
                                            0.9822  0.0957 -0.1336 -0.0609  0.0000
                                            0.0000  0.0000  0.0000
   137. (0.00011) RY*(14) H   4           s(  0.00%)p 1.00( 59.53%)d 0.68( 40.47%)
                                            0.0000  0.0000  0.0000  0.0000  0.0000
                                            0.0000  0.0000  0.0000  0.0000  0.0000
                                           -0.0237 -0.2085  0.7425  0.0000  0.0000
                                            0.0073  0.0424 -0.2101  0.5989  0.0000
                                            0.0000  0.0000  0.0000
   138. (0.00010) RY*(15) H   4           s(  4.57%)p11.17( 51.08%)d 9.70( 44.34%)
                                            0.0031  0.0094  0.2136  0.0047  0.0180
                                            0.0173 -0.6486 -0.0027 -0.2534  0.1592
                                           -0.0000 -0.0000 -0.0000  0.1000 -0.5024
                                           -0.0000 -0.0000 -0.0000 -0.0000  0.1793
                                           -0.3616  0.0271 -0.1317
   139. (0.00008) RY*(16) H   4           s( 28.48%)p 0.68( 19.41%)d 1.83( 52.11%)
   140. (0.00006) RY*(17) H   4           s( 13.39%)p 3.33( 44.59%)d 3.14( 42.03%)
   141. (0.00005) RY*(18) H   4           s(  0.00%)p 1.00(  1.11%)d89.12( 98.89%)
   142. (0.00004) RY*(19) H   4           s(  5.59%)p 7.29( 40.78%)d 9.59( 53.63%)
   143. (0.00005) RY*(20) H   4           s(  1.52%)p 0.47(  0.71%)d64.24( 97.77%)
   144. (0.00004) RY*(21) H   4           s(  0.00%)p 1.00( 36.67%)d 1.73( 63.33%)
   145. (0.00003) RY*(22) H   4           s(  8.66%)p 4.16( 36.06%)d 6.38( 55.27%)
   146. (0.01963) BD*( 1) O   1 - H   2  
                ( 15.99%)   0.3998* O   1 s( 14.95%)p 5.66( 84.67%)d 0.02(  0.37%)
                                                  f 0.00(  0.01%)
                                           -0.0001 -0.3866 -0.0000 -0.0011  0.0033
                                           -0.9198  0.0200 -0.0050  0.0022  0.0098
                                            0.0096  0.0000  0.0024 -0.0000 -0.0000
                                           -0.0000 -0.0000  0.0220 -0.0035 -0.0011
                                           -0.0000 -0.0000 -0.0000 -0.0000 -0.0000
                                           -0.0000 -0.0466  0.0076 -0.0048  0.0303
                                           -0.0028  0.0019 -0.0000 -0.0000  0.0097
                                           -0.0011 -0.0000  0.0002 -0.0000 -0.0000
                                           -0.0000 -0.0000 -0.0028 -0.0023 -0.0013
                                            0.0003
                ( 84.01%)  -0.9166* H   2 s( 99.75%)p 0.00(  0.20%)d 0.00(  0.05%)
                                           -0.9988  0.0018 -0.0002 -0.0000 -0.0071
                                           -0.0440  0.0022  0.0015  0.0004  0.0007
                                           -0.0000 -0.0000 -0.0000 -0.0015  0.0028
                                           -0.0000 -0.0000 -0.0000 -0.0000 -0.0166
                                            0.0027  0.0132 -0.0010
   147. (0.04588) BD*( 1) O   1 - H   4  
                ( 12.57%)   0.3545* O   1 s( 15.35%)p 5.49( 84.29%)d 0.02(  0.35%)
                                                  f 0.00(  0.01%)
                                            0.0001  0.3918 -0.0051 -0.0030 -0.0006
                                           -0.1727  0.0109  0.0004  0.0005 -0.9015
                                            0.0125 -0.0074  0.0058 -0.0000 -0.0000
                                           -0.0000 -0.0000 -0.0120  0.0050 -0.0007
                                           -0.0000 -0.0000 -0.0000 -0.0000 -0.0000
                                           -0.0000 -0.0482  0.0072 -0.0010 -0.0304
                                            0.0007  0.0020 -0.0000 -0.0000  0.0021
                                           -0.0006  0.0103 -0.0017 -0.0000 -0.0000
                                           -0.0000 -0.0000  0.0027  0.0014 -0.0011
                                            0.0029
                ( 87.43%)  -0.9350* H   4 s( 99.76%)p 0.00(  0.22%)d 0.00(  0.02%)
                                            0.9982 -0.0358  0.0056 -0.0009  0.0282
                                            0.0026  0.0031 -0.0150  0.0296  0.0168
                                           -0.0000 -0.0000 -0.0000  0.0048 -0.0054
                                           -0.0000 -0.0000 -0.0000 -0.0000 -0.0006
                                            0.0008 -0.0101  0.0013


 NHO Directionality and "Bond Bending" (deviations from line of nuclear centers)

         [Thresholds for printing:  angular deviation  >  1.0 degree]
                                    hybrid p-character > 25.0%
                                    orbital occupancy  >  0.10e

                                Line of Centers        Hybrid 1              Hybrid 2
                                ---------------  -------------------   ------------------
                NBO               Theta   Phi    Theta   Phi    Dev    Theta   Phi    Dev
 ========================================================================================
     1. BD (   1) O   1 - H   2    90.0    0.0    90.0  358.6   1.4      --     --    --
     2. BD (   1) O   1 - H   4    90.0  258.1    90.0  259.8   1.6      --     --    --
    13. LP (   1) O   1             --     --     90.0  129.1   --       --     --    --
    14. LP (   2) O   1             --     --      0.0    0.0   --       --     --    --
    16. LP (   2) I   3             --     --      0.0    0.0   --       --     --    --
    17. LP (   3) I   3             --     --     90.0  167.7   --       --     --    --
    18. LP (   4) I   3             --     --     90.0   77.6   --       --     --    --


 Natural Bond Orbitals (Summary):

           NBO                  Occupancy  
 -----------------------------------------------
 Molecular unit  1  (H2O)
     1. BD (   1) O   1 - H   2          1.96358
     2. BD (   1) O   1 - H   4          1.96112
     3. CR (   1) O   1                  1.99992
    13. LP (   1) O   1                  1.97260
    14. LP (   2) O   1                  1.96092
    19. RY*(   1) O   1                  0.02081
    20. RY*(   2) O   1                  0.01659
    21. RY*(   3) O   1                  0.01016
    22. RY*(   4) O   1                  0.00669
    23. RY*(   5) O   1                  0.00634
    24. RY*(   6) O   1                  0.00592
    25. RY*(   7) O   1                  0.00582
    26. RY*(   8) O   1                  0.00325
    27. RY*(   9) O   1                  0.00310
    28. RY*(  10) O   1                  0.00068
    29. RY*(  11) O   1                  0.00058
    30. RY*(  12) O   1                  0.00059
    31. RY*(  13) O   1                  0.00055
    32. RY*(  14) O   1                  0.00052
    33. RY*(  15) O   1                  0.00048
    34. RY*(  16) O   1                  0.00044
    35. RY*(  17) O   1                  0.00044
    36. RY*(  18) O   1                  0.00045
    37. RY*(  19) O   1                  0.00042
    38. RY*(  20) O   1                  0.00042
    39. RY*(  21) O   1                  0.00040
    40. RY*(  22) O   1                  0.00036
    41. RY*(  23) O   1                  0.00032
    42. RY*(  24) O   1                  0.00029
    43. RY*(  25) O   1                  0.00025
    44. RY*(  26) O   1                  0.00016
    45. RY*(  27) O   1                  0.00010
    46. RY*(  28) O   1                  0.00008
    47. RY*(  29) O   1                  0.00008
    48. RY*(  30) O   1                  0.00007
    49. RY*(  31) O   1                  0.00008
    50. RY*(  32) O   1                  0.00008
    51. RY*(  33) O   1                  0.00007
    52. RY*(  34) O   1                  0.00007
    53. RY*(  35) O   1                  0.00007
    54. RY*(  36) O   1                  0.00007
    55. RY*(  37) O   1                  0.00006
    56. RY*(  38) O   1                  0.00005
    57. RY*(  39) O   1                  0.00003
    58. RY*(  40) O   1                  0.00002
    59. RY*(  41) O   1                 -0.00013
    60. RY*(   1) H   2                  0.00164
    61. RY*(   2) H   2                  0.00156
    62. RY*(   3) H   2                  0.00064
    63. RY*(   4) H   2                  0.00034
    64. RY*(   5) H   2                  0.00021
    65. RY*(   6) H   2                  0.00015
    66. RY*(   7) H   2                  0.00014
    67. RY*(   8) H   2                  0.00011
    68. RY*(   9) H   2                  0.00011
    69. RY*(  10) H   2                  0.00008
    70. RY*(  11) H   2                  0.00006
    71. RY*(  12) H   2                  0.00006
    72. RY*(  13) H   2                  0.00005
    73. RY*(  14) H   2                  0.00004
    74. RY*(  15) H   2                  0.00004
    75. RY*(  16) H   2                  0.00003
    76. RY*(  17) H   2                  0.00003
    77. RY*(  18) H   2                  0.00003
    78. RY*(  19) H   2                  0.00001
    79. RY*(  20) H   2                  0.00001
    80. RY*(  21) H   2                  0.00001
    81. RY*(  22) H   2                  0.00001
   124. RY*(   1) H   4                  0.00857
   125. RY*(   2) H   4                  0.00434
   126. RY*(   3) H   4                  0.00399
   127. RY*(   4) H   4                  0.00242
   128. RY*(   5) H   4                  0.00087
   129. RY*(   6) H   4                  0.00043
   130. RY*(   7) H   4                  0.00037
   131. RY*(   8) H   4                  0.00032
   132. RY*(   9) H   4                  0.00028
   133. RY*(  10) H   4                  0.00026
   134. RY*(  11) H   4                  0.00020
   135. RY*(  12) H   4                  0.00018
   136. RY*(  13) H   4                  0.00017
   137. RY*(  14) H   4                  0.00011
   138. RY*(  15) H   4                  0.00010
   139. RY*(  16) H   4                  0.00008
   140. RY*(  17) H   4                  0.00006
   141. RY*(  18) H   4                  0.00005
   142. RY*(  19) H   4                  0.00004
   143. RY*(  20) H   4                  0.00005
   144. RY*(  21) H   4                  0.00004
   145. RY*(  22) H   4                  0.00003
   146. BD*(   1) O   1 - H   2          0.01963
   147. BD*(   1) O   1 - H   4          0.04588
       -------------------------------
              Total Lewis    9.85814  ( 98.2002%)
        Valence non-Lewis    0.06550  (  0.6525%)
        Rydberg non-Lewis    0.11517  (  1.1473%)
       -------------------------------
            Total unit  1   10.03881  (100.0000%)
           Charge unit  1   -0.03881

 Molecular unit  2  (I)
     4. CR (   1) I   3                  2.00002
     5. CR (   2) I   3                  2.00006
     6. CR (   3) I   3                  2.00002
     7. CR (   4) I   3                  2.00007
     8. CR (   5) I   3                  1.99674
     9. CR (   6) I   3                  1.99678
    10. CR (   7) I   3                  1.99675
    11. CR (   8) I   3                  1.99671
    12. CR (   9) I   3                  1.99676
    15. LP (   1) I   3                  1.98005
    16. LP (   2) I   3                  1.95170
    17. LP (   3) I   3                  1.95149
    18. LP (   4) I   3                  1.92548
    82. RY*(   1) I   3                  0.02021
    83. RY*(   2) I   3                  0.02018
    84. RY*(   3) I   3                  0.02009
    85. RY*(   4) I   3                  0.02009
    86. RY*(   5) I   3                  0.01997
    87. RY*(   6) I   3                  0.01091
    88. RY*(   7) I   3                  0.01088
    89. RY*(   8) I   3                  0.00989
    90. RY*(   9) I   3                  0.00358
    91. RY*(  10) I   3                  0.00278
    92. RY*(  11) I   3                  0.00278
    93. RY*(  12) I   3                  0.00276
    94. RY*(  13) I   3                  0.00276
    95. RY*(  14) I   3                  0.00270
    96. RY*(  15) I   3                  0.00270
    97. RY*(  16) I   3                  0.00267
    98. RY*(  17) I   3                  0.00167
    99. RY*(  18) I   3                  0.00167
   100. RY*(  19) I   3                  0.00137
   101. RY*(  20) I   3                  0.00138
   102. RY*(  21) I   3                  0.00114
   103. RY*(  22) I   3                  0.00073
   104. RY*(  23) I   3                  0.00073
   105. RY*(  24) I   3                  0.00066
   106. RY*(  25) I   3                  0.00049
   107. RY*(  26) I   3                  0.00043
   108. RY*(  27) I   3                  0.00043
   109. RY*(  28) I   3                  0.00042
   110. RY*(  29) I   3                  0.00042
   111. RY*(  30) I   3                  0.00039
   112. RY*(  31) I   3                  0.00039
   113. RY*(  32) I   3                  0.00032
   114. RY*(  33) I   3                  0.00015
   115. RY*(  34) I   3                  0.00016
   116. RY*(  35) I   3                  0.00013
   117. RY*(  36) I   3                  0.00014
   118. RY*(  37) I   3                  0.00009
   119. RY*(  38) I   3                  0.00007
   120. RY*(  39) I   3                  0.00007
   121. RY*(  40) I   3                  0.00006
   122. RY*(  41) I   3                  0.00007
   123. RY*(  42) I   3                  0.00000
       -------------------------------
              Total Lewis   53.79264  ( 99.6876%)
        Valence non-Lewis    0.00000  (  0.0000%)
        Rydberg non-Lewis    0.16855  (  0.3124%)
       -------------------------------
            Total unit  2   53.96119  (100.0000%)
           Charge unit  2   -0.96119
 Leave Link  607 at Tue Oct 12 16:23:00 2021, MaxMem=  1048576000 cpu:         5.6
 (Enter /usr/local/gaussian/g09/l9999.exe)
 1\1\GINC-KRYPTON\SP\RMP2-FC\Gen\H2I1O1(1-)\CGAVINH\12-Oct-2021\0\\#p p
 op=NBO SP NoSymm mp2/gen Pseudo=read density=current\\title\\-1,1\O\X,
 1,10.\H,1,0.9609077,2,90.\I,1,3.50850362,2,90.,3,101.85830594,0\H,1,1.
 05,2,90.,3,101.85830594,0\\Version=ES64L-G09RevE.01\HF=-370.8100979\MP
 2=-371.3107758\RMSD=3.062e-09\Dipole=0.6666132,0.5507366,0.\Quadrupole
 =12.3351789,-24.259457,11.9242782,-7.1938543,0.,0.\PG=CS [SG(H2I1O1)]\
 \@


 BUT 'GLORY' DOESN'T MEAN 'A NICE KNOCK DOWN ARGUMENT', ALICE OBJECTED.
 WHEN I USE A WORD, HUMPTY DUMPTY SAID, IN A RATHER SCORNFUL TONE,
 IT MEANS JUST WHAT I CHOOSE IT TO MEAN....
 NEITHER MORE NOR LESS....
 THE QUESTION IS, SAID ALICE,
 WHETHER YOU CAN MAKE WORDS MEAN SO MANY DIFFERENT THINGS...
 THE QUESTION IS, SAID HUMPTY DUMPTY,
 WHICH IS TO BE MASTER....
 THAT IS ALL.....

 ALICE THROUGH THE LOOKING GLASS
 Job cpu time:       0 days  0 hours  2 minutes 36.0 seconds.
 File lengths (MBytes):  RWF=     15 Int=      0 D2E=      0 Chk=      3 Scr=      1
 Normal termination of Gaussian 09 at Tue Oct 12 16:23:00 2021.
