 Entering Gaussian System, Link 0=g16
 Input=ihod_rOH_120_sp.gjf
 Output=ihod_rOH_120_sp.log
 Initial command:
 /sw/contrib/gaussian/g16/B01/g16/l1.exe "/scr/Gau-27612.inp" -scrdir="/scr/"
 Entering Link 1 = /sw/contrib/gaussian/g16/B01/g16/l1.exe PID=     27613.
  
 Copyright (c) 1988-2017, Gaussian, Inc.  All Rights Reserved.
  
 This is part of the Gaussian(R) 16 program.  It is based on
 the Gaussian(R) 09 system (copyright 2009, Gaussian, Inc.),
 the Gaussian(R) 03 system (copyright 2003, Gaussian, Inc.),
 the Gaussian(R) 98 system (copyright 1998, Gaussian, Inc.),
 the Gaussian(R) 94 system (copyright 1995, Gaussian, Inc.),
 the Gaussian 92(TM) system (copyright 1992, Gaussian, Inc.),
 the Gaussian 90(TM) system (copyright 1990, Gaussian, Inc.),
 the Gaussian 88(TM) system (copyright 1988, Gaussian, Inc.),
 the Gaussian 86(TM) system (copyright 1986, Carnegie Mellon
 University), and the Gaussian 82(TM) system (copyright 1983,
 Carnegie Mellon University). Gaussian is a federally registered
 trademark of Gaussian, Inc.
  
 This software contains proprietary and confidential information,
 including trade secrets, belonging to Gaussian, Inc.
  
 This software is provided under written license and may be
 used, copied, transmitted, or stored only in accord with that
 written license.
  
 The following legend is applicable only to US Government
 contracts under FAR:
  
                    RESTRICTED RIGHTS LEGEND
  
 Use, reproduction and disclosure by the US Government is
 subject to restrictions as set forth in subparagraphs (a)
 and (c) of the Commercial Computer Software - Restricted
 Rights clause in FAR 52.227-19.
  
 Gaussian, Inc.
 340 Quinnipiac St., Bldg. 40, Wallingford CT 06492
  
  
 ---------------------------------------------------------------
 Warning -- This program may not be used in any manner that
 competes with the business of Gaussian, Inc. or will provide
 assistance to any competitor of Gaussian, Inc.  The licensee
 of this program is prohibited from giving any competitor of
 Gaussian, Inc. access to this program.  By using this program,
 the user acknowledges that Gaussian, Inc. is engaged in the
 business of creating and licensing software in the field of
 computational chemistry and represents and warrants to the
 licensee that it is not a competitor of Gaussian, Inc. and that
 it will not use this program in any manner prohibited above.
 ---------------------------------------------------------------
  

 Cite this work as:
 Gaussian 16, Revision B.01,
 M. J. Frisch, G. W. Trucks, H. B. Schlegel, G. E. Scuseria, 
 M. A. Robb, J. R. Cheeseman, G. Scalmani, V. Barone, 
 G. A. Petersson, H. Nakatsuji, X. Li, M. Caricato, A. V. Marenich, 
 J. Bloino, B. G. Janesko, R. Gomperts, B. Mennucci, H. P. Hratchian, 
 J. V. Ortiz, A. F. Izmaylov, J. L. Sonnenberg, D. Williams-Young, 
 F. Ding, F. Lipparini, F. Egidi, J. Goings, B. Peng, A. Petrone, 
 T. Henderson, D. Ranasinghe, V. G. Zakrzewski, J. Gao, N. Rega, 
 G. Zheng, W. Liang, M. Hada, M. Ehara, K. Toyota, R. Fukuda, 
 J. Hasegawa, M. Ishida, T. Nakajima, Y. Honda, O. Kitao, H. Nakai, 
 T. Vreven, K. Throssell, J. A. Montgomery, Jr., J. E. Peralta, 
 F. Ogliaro, M. J. Bearpark, J. J. Heyd, E. N. Brothers, K. N. Kudin, 
 V. N. Staroverov, T. A. Keith, R. Kobayashi, J. Normand, 
 K. Raghavachari, A. P. Rendell, J. C. Burant, S. S. Iyengar, 
 J. Tomasi, M. Cossi, J. M. Millam, M. Klene, C. Adamo, R. Cammi, 
 J. W. Ochterski, R. L. Martin, K. Morokuma, O. Farkas, 
 J. B. Foresman, and D. J. Fox, Gaussian, Inc., Wallingford CT, 2016.
 
 ******************************************
 Gaussian 16:  ES64L-G16RevB.01 20-Dec-2017
                26-Oct-2021 
 ******************************************
 %nproc=28
 Will use up to   28 processors via shared memory.
 %mem=120GB
 %chk=/gscratch/ilahie/mccoygrp/coire_hocl/rOH_s_oop_0/ihod/ihod_rOH_120.chk
 --------------------------------------------------------
 #p pop=NBO SP NoSymm mp2/gen Pseudo=read density=current
 --------------------------------------------------------
 1/30=1,38=1,172=1/1;
 2/12=2,15=1,17=6,18=5,40=1/2;
 3/5=7,11=9,16=1,17=8,25=1,30=1,71=1/1,2,3;
 4//1;
 5/5=2,38=5/2;
 8/6=4,10=1/1;
 9/15=1,16=-3/6;
 10/5=1,13=10,31=1/2;
 6/7=2,8=2,9=2,10=2,22=-1,40=1/1,7;
 99/5=1,9=1/99;
 Leave Link    1 at Tue Oct 26 13:21:42 2021, MaxMem= 16106127360 cpu:               2.6 elap:               0.1
 (Enter /sw/contrib/gaussian/g16/B01/g16/l101.exe)
 -----
 title
 -----
 Symbolic Z-matrix:
 Charge = -1 Multiplicity = 1
 O
 X                    1     10. 
 H(iso=2)             1    r1       2     90. 
 I                    1    r2       2     90.      3    a1       0
 H                    1    r3       2    oop      3    a1       0
       Variables:
  r1                    0.96091                  
  r2                    3.5085                   
  r3                    1.2                      
  a1                  101.85832                  
  OOP                  90.                       
 
 ITRead=  0  0  0  0
 MicOpt= -1 -1 -1 -1
 NAtoms=      4 NQM=        4 NQMF=       0 NMMI=      0 NMMIF=      0
                NMic=       0 NMicF=      0.
                    Isotopes and Nuclear Properties:
 (Nuclear quadrupole moments (NQMom) in fm**2, nuclear magnetic moments (NMagM)
  in nuclear magnetons)

  Atom         1           2           3           4
 IAtWgt=          16           2         127           1
 AtmWgt=  15.9949146   2.0141018 126.9004000   1.0078250
 NucSpn=           0           2           5           1
 AtZEff=  -0.0000000  -0.0000000  -0.0000000  -0.0000000
 NQMom=    0.0000000   0.2860000 -71.0000000   0.0000000
 NMagM=    0.0000000   0.8574380   2.8132800   2.7928460
 AtZNuc=   8.0000000   1.0000000  53.0000000   1.0000000
 Leave Link  101 at Tue Oct 26 13:21:42 2021, MaxMem= 16106127360 cpu:               3.4 elap:               0.2
 (Enter /sw/contrib/gaussian/g16/B01/g16/l202.exe)
                          Input orientation:                          
 ---------------------------------------------------------------------
 Center     Atomic      Atomic             Coordinates (Angstroms)
 Number     Number       Type             X           Y           Z
 ---------------------------------------------------------------------
      1          8           0        0.000000    0.000000    0.000000
      2          1           0        0.960908    0.000000    0.000000
      3         53           0       -0.720970   -3.433626    0.000000
      4          1           0       -0.246591   -1.174390    0.000000
 ---------------------------------------------------------------------
                    Distance matrix (angstroms):
                    1          2          3          4
     1  O    0.000000
     2  H    0.960908   0.000000
     3  I    3.508501   3.823414   0.000000
     4  H    1.200000   1.684413   2.308501   0.000000
 Symmetry turned off by external request.
 Stoichiometry    H2IO(1-)
 Framework group  CS[SG(H2IO)]
 Deg. of freedom     5
 Full point group                 CS      NOp   2
 Rotational constants (GHZ):         322.8681679           2.5225480           2.5029922
 Leave Link  202 at Tue Oct 26 13:21:42 2021, MaxMem= 16106127360 cpu:               0.2 elap:               0.0
 (Enter /sw/contrib/gaussian/g16/B01/g16/l301.exe)
 General basis read from cards:  (5D, 7F)
 Centers:       1      2      4
 aug-cc-pVTZ
 ****
 Centers:       3
 S 11 1.00
     Exponent=  5.5465000000D+03 Coefficients=  1.5600000000D-04
     Exponent=  8.3821400000D+02 Coefficients=  9.8600000000D-04
     Exponent=  1.8218700000D+02 Coefficients=  2.7920000000D-03
     Exponent=  3.1212300000D+01 Coefficients= -4.3251000000D-02
     Exponent=  1.9531400000D+01 Coefficients=  2.3413400000D-01
     Exponent=  8.2409900000D+00 Coefficients= -7.5094300000D-01
     Exponent=  2.1945500000D+00 Coefficients=  8.8296800000D-01
     Exponent=  1.1091100000D+00 Coefficients=  4.6206100000D-01
     Exponent=  3.7464100000D-01 Coefficients=  2.2286000000D-02
     Exponent=  1.7708000000D-01 Coefficients= -4.3530000000D-03
     Exponent=  8.1061000000D-02 Coefficients=  1.1020000000D-03
 S 11 1.00
     Exponent=  5.5465000000D+03 Coefficients= -7.3000000000D-05
     Exponent=  8.3821400000D+02 Coefficients= -5.0800000000D-04
     Exponent=  1.8218700000D+02 Coefficients= -1.1580000000D-03
     Exponent=  3.1212300000D+01 Coefficients=  1.2193000000D-02
     Exponent=  1.9531400000D+01 Coefficients= -8.7854000000D-02
     Exponent=  8.2409900000D+00 Coefficients=  3.3820000000D-01
     Exponent=  2.1945500000D+00 Coefficients= -5.7655000000D-01
     Exponent=  1.1091100000D+00 Coefficients= -4.0929800000D-01
     Exponent=  3.7464100000D-01 Coefficients=  5.6745900000D-01
     Exponent=  1.7708000000D-01 Coefficients=  6.1248900000D-01
     Exponent=  8.1061000000D-02 Coefficients=  1.4323100000D-01
 S 1 1.00
     Exponent=  3.7464100000D-01 Coefficients=  1.0000000000D+00
 S 1 1.00
     Exponent=  1.7708000000D-01 Coefficients=  1.0000000000D+00
 S 1 1.00
     Exponent=  1.0010000000D-01 Coefficients=  1.0000000000D+00
 S 1 1.00
     Exponent=  4.1200000000D-02 Coefficients=  1.0000000000D+00
 P 9 1.00
     Exponent=  1.8898800000D+02 Coefficients=  5.8500000000D-04
     Exponent=  2.1286800000D+01 Coefficients=  3.6923000000D-02
     Exponent=  1.0039600000D+01 Coefficients= -2.3532400000D-01
     Exponent=  3.4518000000D+00 Coefficients=  3.4148300000D-01
     Exponent=  1.9745600000D+00 Coefficients=  5.3478800000D-01
     Exponent=  1.0242000000D+00 Coefficients=  2.6514100000D-01
     Exponent=  4.4943700000D-01 Coefficients=  2.5787000000D-02
     Exponent=  1.8664800000D-01 Coefficients=  5.2200000000D-04
     Exponent=  7.3481000000D-02 Coefficients=  6.0600000000D-04
 P 9 1.00
     Exponent=  1.8898800000D+02 Coefficients= -2.5600000000D-04
     Exponent=  2.1286800000D+01 Coefficients= -1.1682000000D-02
     Exponent=  1.0039600000D+01 Coefficients=  8.3192000000D-02
     Exponent=  3.4518000000D+00 Coefficients= -1.5697000000D-01
     Exponent=  1.9745600000D+00 Coefficients= -2.2451800000D-01
     Exponent=  1.0242000000D+00 Coefficients= -1.1445100000D-01
     Exponent=  4.4943700000D-01 Coefficients=  3.7535600000D-01
     Exponent=  1.8664800000D-01 Coefficients=  5.7513600000D-01
     Exponent=  7.3481000000D-02 Coefficients=  2.4591700000D-01
 P 1 1.00
     Exponent=  5.9810000000D-01 Coefficients=  1.0000000000D+00
 P 1 1.00
     Exponent=  9.6180000000D-02 Coefficients=  1.0000000000D+00
 P 1 1.00
     Exponent=  3.5900000000D-02 Coefficients=  1.0000000000D+00
 D 9 1.00
     Exponent=  1.3266200000D+02 Coefficients=  5.7200000000D-04
     Exponent=  3.7605400000D+01 Coefficients=  4.4020000000D-03
     Exponent=  1.0389100000D+01 Coefficients= -4.0922000000D-02
     Exponent=  6.4901700000D+00 Coefficients=  9.9661000000D-02
     Exponent=  3.4545100000D+00 Coefficients=  3.2266300000D-01
     Exponent=  1.8441300000D+00 Coefficients=  4.0034300000D-01
     Exponent=  9.6247800000D-01 Coefficients=  2.6830600000D-01
     Exponent=  4.7285300000D-01 Coefficients=  8.4847000000D-02
     Exponent=  1.9320000000D-01 Coefficients=  7.6320000000D-03
 D 1 1.00
     Exponent=  4.7285300000D-01 Coefficients=  1.0000000000D+00
 D 1 1.00
     Exponent=  1.9320000000D-01 Coefficients=  1.0000000000D+00
 D 1 1.00
     Exponent=  7.8200000000D-02 Coefficients=  1.0000000000D+00
 F 1 1.00
     Exponent=  4.0640000000D-01 Coefficients=  1.0000000000D+00
 F 1 1.00
     Exponent=  1.8480000000D-01 Coefficients=  1.0000000000D+00
 ****
 ======================================================================================================
                                       Pseudopotential Parameters
 ======================================================================================================
  Center     Atomic      Valence      Angular      Power
  Number     Number     Electrons     Momentum     of R      Exponent        Coefficient   SO-Coeffient
 ======================================================================================================
    1          8
                                   No pseudopotential on this center.
    2          1
                                   No pseudopotential on this center.
    3         53           25
                                      G and up 
                                                     2        1.0000000        0.00000000    0.00000000
                                      S - G
                                                     2       40.0333760       49.98964900    0.00000000
                                                     2       17.3005760      281.00655600    0.00000000
                                                     2        8.8517200       61.41673900    0.00000000
                                      P - G
                                                     2       15.7201410       67.41623900    0.00000000
                                                     2       15.2082220      134.80769600    0.00000000
                                                     2        8.2941860       14.56654800    0.00000000
                                                     2        7.7539490       28.96842200    0.00000000
                                      D - G
                                                     2       13.8177510       35.53875600    0.00000000
                                                     2       13.5878050       53.33975900    0.00000000
                                                     2        6.9476300        9.71646600    0.00000000
                                                     2        6.9600990       14.97750000    0.00000000
                                      F - G
                                                     2       18.5229500      -20.17661800    0.00000000
                                                     2       18.2510350      -26.08807700    0.00000000
                                                     2        7.5579010       -0.22043400    0.00000000
                                                     2        7.5974040       -0.22164600    0.00000000
    4          1
                                   No pseudopotential on this center.
 ======================================================================================================
 Ernie: Thresh=  0.10000D-02 Tol=  0.10000D-05 Strict=F.
 Ernie:  10 primitive shells out of 113 were deleted.
   147 basis functions,   296 primitive gaussians,   170 cartesian basis functions
    18 alpha electrons       18 beta electrons
       nuclear repulsion energy        47.6039335390 Hartrees.
 IExCor=    0 DFT=F Ex=HF Corr=None ExCW=0 ScaHFX=  1.000000
 ScaDFX=  1.000000  1.000000  1.000000  1.000000 ScalE2=  1.000000  1.000000
 IRadAn=      5 IRanWt=     -1 IRanGd=            0 ICorTp=0 IEmpDi=  4
 NAtoms=    4 NActive=    4 NUniq=    4 SFac= 1.00D+00 NAtFMM=   60 NAOKFM=F Big=F
 Integral buffers will be    131072 words long.
 Raffenetti 1 integral format.
 Two-electron integral symmetry is turned off.
 Leave Link  301 at Tue Oct 26 13:21:42 2021, MaxMem= 16106127360 cpu:               4.3 elap:               0.2
 (Enter /sw/contrib/gaussian/g16/B01/g16/l302.exe)
 NPDir=0 NMtPBC=     1 NCelOv=     1 NCel=       1 NClECP=     1 NCelD=      1
         NCelK=      1 NCelE2=     1 NClLst=     1 CellRange=     0.0.
 One-electron integrals computed using PRISM.
   1 Symmetry operations used in ECPInt.
 ECPInt:  NShTT=    1225 NPrTT=    5557 LenC2=    1226 LenP2D=    4930.
 LDataN:  DoStor=T MaxTD1= 7 Len=  274
 NBasis=   147 RedAO= T EigKep=  3.48D-04  NBF=   147
 NBsUse=   147 1.00D-06 EigRej= -1.00D+00 NBFU=   147
 Leave Link  302 at Tue Oct 26 13:21:42 2021, MaxMem= 16106127360 cpu:               6.5 elap:               0.3
 (Enter /sw/contrib/gaussian/g16/B01/g16/l303.exe)
 DipDrv:  MaxL=1.
 Leave Link  303 at Tue Oct 26 13:21:42 2021, MaxMem= 16106127360 cpu:               0.6 elap:               0.0
 (Enter /sw/contrib/gaussian/g16/B01/g16/l401.exe)
 ExpMin= 2.53D-02 ExpMax= 1.53D+04 ExpMxC= 5.22D+02 IAcc=3 IRadAn=         5 AccDes= 0.00D+00
 Harris functional with IExCor=  205 and IRadAn=       5 diagonalized for initial guess.
 HarFok:  IExCor=  205 AccDes= 0.00D+00 IRadAn=         5 IDoV= 1 UseB2=F ITyADJ=14
 ICtDFT=  3500011 ScaDFX=  1.000000  1.000000  1.000000  1.000000
 Defaulting to unpruned grid for atomic number  53.
 FoFCou: FMM=F IPFlag=           0 FMFlag=      100000 FMFlg1=           0
         NFxFlg=           0 DoJE=T BraDBF=F KetDBF=T FulRan=T
         wScrn=  0.000000 ICntrl=       500 IOpCl=  0 I1Cent=   200000004 NGrid=           0
         NMat0=    1 NMatS0=      1 NMatT0=    0 NMatD0=    1 NMtDS0=    0 NMtDT0=    0
 Symmetry not used in FoFCou.
 Harris En= -372.662766097414    
 JPrj=0 DoOrth=F DoCkMO=F.
 Leave Link  401 at Tue Oct 26 13:21:43 2021, MaxMem= 16106127360 cpu:               6.1 elap:               0.3
 (Enter /sw/contrib/gaussian/g16/B01/g16/l502.exe)
 Keep R1 ints in memory in canonical form, NReq=117069463.
 FoFCou: FMM=F IPFlag=           0 FMFlag=           0 FMFlg1=           0
         NFxFlg=           0 DoJE=F BraDBF=F KetDBF=F FulRan=T
         wScrn=  0.000000 ICntrl=       600 IOpCl=  0 I1Cent=           0 NGrid=           0
         NMat0=    1 NMatS0=  10878 NMatT0=    0 NMatD0=    1 NMtDS0=    0 NMtDT0=    0
 Symmetry not used in FoFCou.
 Two-electron integral symmetry not used.
 Closed shell SCF:
 Using DIIS extrapolation, IDIIS=  1040.
 NGot= 16106127360 LenX= 16046892803 LenY= 16046863462
 Requested convergence on RMS density matrix=1.00D-08 within 128 cycles.
 Requested convergence on MAX density matrix=1.00D-06.
 Requested convergence on             energy=1.00D-06.
 No special actions if energy rises.

 Cycle   1  Pass 1  IDiag  1:
 E= -370.613263954165    
 DIIS: error= 3.67D-02 at cycle   1 NSaved=   1.
 NSaved= 1 IEnMin= 1 EnMin= -370.613263954165     IErMin= 1 ErrMin= 3.67D-02
 ErrMax= 3.67D-02  0.00D+00 EMaxC= 1.00D-01 BMatC= 3.81D-01 BMatP= 3.81D-01
 IDIUse=3 WtCom= 6.33D-01 WtEn= 3.67D-01
 Coeff-Com:  0.100D+01
 Coeff-En:   0.100D+01
 Coeff:      0.100D+01
 Gap=     0.472 Goal=   None    Shift=    0.000
 GapD=    0.472 DampG=2.000 DampE=0.500 DampFc=1.0000 IDamp=-1.
 RMSDP=4.04D-03 MaxDP=1.06D-01              OVMax= 1.41D-01

 Cycle   2  Pass 1  IDiag  1:
 E= -370.720163045672     Delta-E=       -0.106899091508 Rises=F Damp=F
 DIIS: error= 2.60D-02 at cycle   2 NSaved=   2.
 NSaved= 2 IEnMin= 2 EnMin= -370.720163045672     IErMin= 2 ErrMin= 2.60D-02
 ErrMax= 2.60D-02  0.00D+00 EMaxC= 1.00D-01 BMatC= 9.53D-02 BMatP= 3.81D-01
 IDIUse=3 WtCom= 7.40D-01 WtEn= 2.60D-01
 Coeff-Com:  0.302D+00 0.698D+00
 Coeff-En:   0.105D+00 0.895D+00
 Coeff:      0.251D+00 0.749D+00
 Gap=     0.316 Goal=   None    Shift=    0.000
 RMSDP=1.83D-03 MaxDP=7.71D-02 DE=-1.07D-01 OVMax= 8.87D-02

 Cycle   3  Pass 1  IDiag  1:
 E= -370.775959389251     Delta-E=       -0.055796343579 Rises=F Damp=F
 DIIS: error= 8.37D-03 at cycle   3 NSaved=   3.
 NSaved= 3 IEnMin= 3 EnMin= -370.775959389251     IErMin= 3 ErrMin= 8.37D-03
 ErrMax= 8.37D-03  0.00D+00 EMaxC= 1.00D-01 BMatC= 1.05D-02 BMatP= 9.53D-02
 IDIUse=3 WtCom= 9.16D-01 WtEn= 8.37D-02
 Coeff-Com:  0.507D-03 0.242D+00 0.757D+00
 Coeff-En:   0.000D+00 0.000D+00 0.100D+01
 Coeff:      0.464D-03 0.222D+00 0.778D+00
 Gap=     0.289 Goal=   None    Shift=    0.000
 RMSDP=4.67D-04 MaxDP=2.31D-02 DE=-5.58D-02 OVMax= 2.26D-02

 Cycle   4  Pass 1  IDiag  1:
 E= -370.782823294674     Delta-E=       -0.006863905422 Rises=F Damp=F
 DIIS: error= 1.02D-03 at cycle   4 NSaved=   4.
 NSaved= 4 IEnMin= 4 EnMin= -370.782823294674     IErMin= 4 ErrMin= 1.02D-03
 ErrMax= 1.02D-03  0.00D+00 EMaxC= 1.00D-01 BMatC= 1.40D-04 BMatP= 1.05D-02
 IDIUse=3 WtCom= 9.90D-01 WtEn= 1.02D-02
 Coeff-Com: -0.101D-01-0.365D-02 0.103D+00 0.911D+00
 Coeff-En:   0.000D+00 0.000D+00 0.000D+00 0.100D+01
 Coeff:     -0.100D-01-0.361D-02 0.102D+00 0.912D+00
 Gap=     0.291 Goal=   None    Shift=    0.000
 RMSDP=1.13D-04 MaxDP=7.69D-03 DE=-6.86D-03 OVMax= 5.05D-03

 Cycle   5  Pass 1  IDiag  1:
 E= -370.782972408077     Delta-E=       -0.000149113403 Rises=F Damp=F
 DIIS: error= 2.24D-04 at cycle   5 NSaved=   5.
 NSaved= 5 IEnMin= 5 EnMin= -370.782972408077     IErMin= 5 ErrMin= 2.24D-04
 ErrMax= 2.24D-04  0.00D+00 EMaxC= 1.00D-01 BMatC= 8.49D-06 BMatP= 1.40D-04
 IDIUse=3 WtCom= 9.98D-01 WtEn= 2.24D-03
 Coeff-Com:  0.203D-02-0.172D-01-0.626D-01-0.451D-01 0.112D+01
 Coeff-En:   0.000D+00 0.000D+00 0.000D+00 0.000D+00 0.100D+01
 Coeff:      0.202D-02-0.172D-01-0.625D-01-0.450D-01 0.112D+01
 Gap=     0.289 Goal=   None    Shift=    0.000
 RMSDP=6.09D-05 MaxDP=1.99D-03 DE=-1.49D-04 OVMax= 2.73D-03

 Cycle   6  Pass 1  IDiag  1:
 E= -370.782995876408     Delta-E=       -0.000023468332 Rises=F Damp=F
 DIIS: error= 9.30D-05 at cycle   6 NSaved=   6.
 NSaved= 6 IEnMin= 6 EnMin= -370.782995876408     IErMin= 6 ErrMin= 9.30D-05
 ErrMax= 9.30D-05  0.00D+00 EMaxC= 1.00D-01 BMatC= 8.81D-07 BMatP= 8.49D-06
 IDIUse=1 WtCom= 1.00D+00 WtEn= 0.00D+00
 Coeff-Com:  0.799D-04 0.597D-02 0.116D-01-0.956D-01-0.277D+00 0.136D+01
 Coeff:      0.799D-04 0.597D-02 0.116D-01-0.956D-01-0.277D+00 0.136D+01
 Gap=     0.289 Goal=   None    Shift=    0.000
 RMSDP=2.20D-05 MaxDP=1.35D-03 DE=-2.35D-05 OVMax= 1.42D-03

 Cycle   7  Pass 1  IDiag  1:
 E= -370.782999248431     Delta-E=       -0.000003372022 Rises=F Damp=F
 DIIS: error= 1.61D-05 at cycle   7 NSaved=   7.
 NSaved= 7 IEnMin= 7 EnMin= -370.782999248431     IErMin= 7 ErrMin= 1.61D-05
 ErrMax= 1.61D-05  0.00D+00 EMaxC= 1.00D-01 BMatC= 3.98D-08 BMatP= 8.81D-07
 IDIUse=1 WtCom= 1.00D+00 WtEn= 0.00D+00
 Coeff-Com: -0.126D-03-0.783D-03-0.186D-04 0.357D-01 0.761D-02-0.402D+00
 Coeff-Com:  0.136D+01
 Coeff:     -0.126D-03-0.783D-03-0.186D-04 0.357D-01 0.761D-02-0.402D+00
 Coeff:      0.136D+01
 Gap=     0.289 Goal=   None    Shift=    0.000
 RMSDP=4.16D-06 MaxDP=1.72D-04 DE=-3.37D-06 OVMax= 2.50D-04

 Cycle   8  Pass 1  IDiag  1:
 E= -370.782999398948     Delta-E=       -0.000000150517 Rises=F Damp=F
 DIIS: error= 3.84D-06 at cycle   8 NSaved=   8.
 NSaved= 8 IEnMin= 8 EnMin= -370.782999398948     IErMin= 8 ErrMin= 3.84D-06
 ErrMax= 3.84D-06  0.00D+00 EMaxC= 1.00D-01 BMatC= 1.75D-09 BMatP= 3.98D-08
 IDIUse=1 WtCom= 1.00D+00 WtEn= 0.00D+00
 Coeff-Com:  0.193D-04-0.143D-03-0.344D-03-0.170D-02 0.101D-01 0.597D-02
 Coeff-Com: -0.203D+00 0.119D+01
 Coeff:      0.193D-04-0.143D-03-0.344D-03-0.170D-02 0.101D-01 0.597D-02
 Coeff:     -0.203D+00 0.119D+01
 Gap=     0.289 Goal=   None    Shift=    0.000
 RMSDP=7.42D-07 MaxDP=3.62D-05 DE=-1.51D-07 OVMax= 4.22D-05

 Cycle   9  Pass 1  IDiag  1:
 E= -370.782999403909     Delta-E=       -0.000000004962 Rises=F Damp=F
 DIIS: error= 1.00D-06 at cycle   9 NSaved=   9.
 NSaved= 9 IEnMin= 9 EnMin= -370.782999403909     IErMin= 9 ErrMin= 1.00D-06
 ErrMax= 1.00D-06  0.00D+00 EMaxC= 1.00D-01 BMatC= 1.52D-10 BMatP= 1.75D-09
 IDIUse=1 WtCom= 1.00D+00 WtEn= 0.00D+00
 Coeff-Com:  0.939D-05 0.698D-04 0.128D-04-0.339D-02-0.513D-03 0.365D-01
 Coeff-Com: -0.127D+00 0.322D-01 0.106D+01
 Coeff:      0.939D-05 0.698D-04 0.128D-04-0.339D-02-0.513D-03 0.365D-01
 Coeff:     -0.127D+00 0.322D-01 0.106D+01
 Gap=     0.289 Goal=   None    Shift=    0.000
 RMSDP=2.45D-07 MaxDP=9.80D-06 DE=-4.96D-09 OVMax= 9.47D-06

 Cycle  10  Pass 1  IDiag  1:
 E= -370.782999404327     Delta-E=       -0.000000000418 Rises=F Damp=F
 DIIS: error= 2.63D-07 at cycle  10 NSaved=  10.
 NSaved=10 IEnMin=10 EnMin= -370.782999404327     IErMin=10 ErrMin= 2.63D-07
 ErrMax= 2.63D-07  0.00D+00 EMaxC= 1.00D-01 BMatC= 1.16D-11 BMatP= 1.52D-10
 IDIUse=1 WtCom= 1.00D+00 WtEn= 0.00D+00
 Coeff-Com: -0.123D-05 0.113D-04 0.153D-04 0.121D-03-0.709D-03 0.130D-03
 Coeff-Com:  0.141D-01-0.942D-01-0.209D-02 0.108D+01
 Coeff:     -0.123D-05 0.113D-04 0.153D-04 0.121D-03-0.709D-03 0.130D-03
 Coeff:      0.141D-01-0.942D-01-0.209D-02 0.108D+01
 Gap=     0.289 Goal=   None    Shift=    0.000
 RMSDP=7.59D-08 MaxDP=3.36D-06 DE=-4.18D-10 OVMax= 3.75D-06

 Cycle  11  Pass 1  IDiag  1:
 E= -370.782999404357     Delta-E=       -0.000000000030 Rises=F Damp=F
 DIIS: error= 8.15D-08 at cycle  11 NSaved=  11.
 NSaved=11 IEnMin=11 EnMin= -370.782999404357     IErMin=11 ErrMin= 8.15D-08
 ErrMax= 8.15D-08  0.00D+00 EMaxC= 1.00D-01 BMatC= 5.60D-13 BMatP= 1.16D-11
 IDIUse=1 WtCom= 1.00D+00 WtEn= 0.00D+00
 Coeff-Com: -0.568D-06-0.332D-05 0.363D-05 0.169D-03-0.915D-05-0.168D-02
 Coeff-Com:  0.502D-02 0.900D-02-0.673D-01-0.111D+00 0.117D+01
 Coeff:     -0.568D-06-0.332D-05 0.363D-05 0.169D-03-0.915D-05-0.168D-02
 Coeff:      0.502D-02 0.900D-02-0.673D-01-0.111D+00 0.117D+01
 Gap=     0.289 Goal=   None    Shift=    0.000
 RMSDP=2.01D-08 MaxDP=9.30D-07 DE=-2.97D-11 OVMax= 7.50D-07

 Cycle  12  Pass 1  IDiag  1:
 E= -370.782999404360     Delta-E=       -0.000000000003 Rises=F Damp=F
 DIIS: error= 2.33D-08 at cycle  12 NSaved=  12.
 NSaved=12 IEnMin=12 EnMin= -370.782999404360     IErMin=12 ErrMin= 2.33D-08
 ErrMax= 2.33D-08  0.00D+00 EMaxC= 1.00D-01 BMatC= 3.04D-14 BMatP= 5.60D-13
 IDIUse=1 WtCom= 1.00D+00 WtEn= 0.00D+00
 Coeff-Com:  0.204D-06 0.977D-07-0.583D-06-0.411D-04 0.327D-04 0.322D-03
 Coeff-Com: -0.177D-02 0.478D-02 0.840D-02-0.477D-01-0.143D+00 0.118D+01
 Coeff:      0.204D-06 0.977D-07-0.583D-06-0.411D-04 0.327D-04 0.322D-03
 Coeff:     -0.177D-02 0.478D-02 0.840D-02-0.477D-01-0.143D+00 0.118D+01
 Gap=     0.289 Goal=   None    Shift=    0.000
 RMSDP=3.59D-09 MaxDP=1.27D-07 DE=-2.84D-12 OVMax= 1.43D-07

 SCF Done:  E(RHF) =  -370.782999404     A.U. after   12 cycles
            NFock= 12  Conv=0.36D-08     -V/T= 2.9871
 KE= 1.865995670700D+02 PE=-9.086790151902D+02 EE= 3.036925151768D+02
 Leave Link  502 at Tue Oct 26 13:21:45 2021, MaxMem= 16106127360 cpu:              30.5 elap:               2.1
 (Enter /sw/contrib/gaussian/g16/B01/g16/l801.exe)
 ExpMin= 2.53D-02 ExpMax= 1.53D+04 ExpMxC= 5.22D+02 IAcc=3 IRadAn=         5 AccDes= 0.00D+00
 HarFok:  IExCor=  205 AccDes= 0.00D+00 IRadAn=         5 IDoV=-2 UseB2=F ITyADJ=14
 ICtDFT= 12500011 ScaDFX=  1.000000  1.000000  1.000000  1.000000
 Defaulting to unpruned grid for atomic number  53.
 Largest valence mixing into a core orbital is  1.30D-04
 Largest core mixing into a valence orbital is  2.36D-05
 Range of M.O.s used for correlation:     6   147
 NBasis=   147 NAE=    18 NBE=    18 NFC=     5 NFV=     0
 NROrb=    142 NOA=    13 NOB=    13 NVA=   129 NVB=   129

 **** Warning!!: The largest alpha MO coefficient is  0.16652174D+02

 Leave Link  801 at Tue Oct 26 13:21:45 2021, MaxMem= 16106127360 cpu:               2.0 elap:               0.1
 (Enter /sw/contrib/gaussian/g16/B01/g16/l906.exe)
 Frozen-core derivative calculation, NFC=   5 NFV=   0.
 FulOut=F Deriv=T AODrv=F NAtomX=     4
   MMem=         225  MDisk=          13 MDiskD=          13
  W3Min=      449820 MinDsk=      818995 NBas6D=         170
 NBas2D=       14925    NTT=       14535    LW2=    26219120
    MDV= 16105851477 MDiskM=      473642 NBas2p=       14925
 Fully in-core method, ICMem=   303093605.
 IMap=   1   2   3   4   5   6   7   8   9  10  11  12  13  14  15  16  17  18
 JobTyp=1 Pass  1 fully in-core, NPsUse= 28.
 Compute canonical integrals.
 FoFCou: FMM=F IPFlag=           0 FMFlag=           0 FMFlg1=           0
         NFxFlg=           0 DoJE=F BraDBF=F KetDBF=F FulRan=T
         wScrn=  0.000000 ICntrl=       600 IOpCl=  1 I1Cent=           0 NGrid=           0
         NMat0=    1 NMatS0=  14925 NMatT0=    0 NMatD0=    1 NMtDS0=    0 NMtDT0=    0
 Symmetry not used in FoFCou.
 Spin components of T(2) and E(2):
     alpha-alpha T2 =       0.2293264280D-01 E2=     -0.6931736988D-01
     alpha-beta  T2 =       0.1198847261D+00 E2=     -0.3705557980D+00
     beta-beta   T2 =       0.2293264280D-01 E2=     -0.6931736988D-01
 The integrals were generated   1 times.
 ANorm=    0.1079699038D+01
 E2 =    -0.5091905377D+00 EUMP2 =    -0.37129218994209D+03
 Leave Link  906 at Tue Oct 26 13:21:48 2021, MaxMem= 16106127360 cpu:              86.6 elap:               3.1
 (Enter /sw/contrib/gaussian/g16/B01/g16/l1002.exe)
 Minotr:  Closed shell wavefunction.
          Computing MP2/KS-MP2 derivatives.
          Using Z-Vector for PSCF gradient.
          Skipping F1 and S1 gradient terms here.
          Frozen-core window.
          Direct CPHF calculation.
          Differentiating once with respect to electric field.
                with respect to dipole field.
          Electric field/nuclear overlap derivatives assumed to be zero.
          Requested convergence is 1.0D-10 RMS, and 1.0D-09 maximum.
          NewPWx=F KeepS1=T KeepF1=T KeepIn=T MapXYZ=F SortEE=F KeepMc=T.
 Keep R1 ints in memory in canonical form, NReq=117072107.
 FoFCou: FMM=F IPFlag=           0 FMFlag=           0 FMFlg1=           0
         NFxFlg=           0 DoJE=F BraDBF=F KetDBF=F FulRan=T
         wScrn=  0.000000 ICntrl=       600 IOpCl=  0 I1Cent=           0 NGrid=           0
         NMat0=    1 NMatS0=  10878 NMatT0=    0 NMatD0=    1 NMtDS0=    0 NMtDT0=    0
 Symmetry not used in FoFCou.
 Two-electron integral symmetry not used.
          MDV=   16106127360 using IRadAn=       5.
          Solving linear equations separately, MaxMat=       0.
          There are     1 degrees of freedom in the 1st order CPHF.  IDoFFX=0 NUNeed=     1.
 LinEq1:  Iter=  0 NonCon=     1 RMS=3.15D-03 Max=6.40D-02 NDo=     1
 AX will form     1 AO Fock derivatives at one time.
 LinEq1:  Iter=  1 NonCon=     1 RMS=5.40D-04 Max=6.67D-03 NDo=     1
 LinEq1:  Iter=  2 NonCon=     1 RMS=2.13D-04 Max=2.85D-03 NDo=     1
 LinEq1:  Iter=  3 NonCon=     1 RMS=5.61D-05 Max=1.08D-03 NDo=     1
 LinEq1:  Iter=  4 NonCon=     1 RMS=7.41D-06 Max=8.09D-05 NDo=     1
 LinEq1:  Iter=  5 NonCon=     1 RMS=2.63D-06 Max=3.89D-05 NDo=     1
 LinEq1:  Iter=  6 NonCon=     1 RMS=1.20D-06 Max=1.39D-05 NDo=     1
 LinEq1:  Iter=  7 NonCon=     1 RMS=2.43D-07 Max=2.39D-06 NDo=     1
 LinEq1:  Iter=  8 NonCon=     1 RMS=4.65D-08 Max=5.67D-07 NDo=     1
 LinEq1:  Iter=  9 NonCon=     1 RMS=1.42D-08 Max=1.84D-07 NDo=     1
 LinEq1:  Iter= 10 NonCon=     1 RMS=3.33D-09 Max=5.74D-08 NDo=     1
 LinEq1:  Iter= 11 NonCon=     1 RMS=6.02D-10 Max=7.63D-09 NDo=     1
 LinEq1:  Iter= 12 NonCon=     1 RMS=1.40D-10 Max=2.37D-09 NDo=     1
 LinEq1:  Iter= 13 NonCon=     0 RMS=2.91D-11 Max=2.80D-10 NDo=     1
 Linear equations converged to 1.000D-10 1.000D-09 after    13 iterations.
 End of Minotr F.D. properties file   721 does not exist.
 End of Minotr F.D. properties file   722 does not exist.
 End of Minotr F.D. properties file   788 does not exist.
 Leave Link 1002 at Tue Oct 26 13:21:50 2021, MaxMem= 16106127360 cpu:              32.8 elap:               2.4
 (Enter /sw/contrib/gaussian/g16/B01/g16/l601.exe)
 Copying SCF densities to generalized density rwf, IOpCl= 0 IROHF=0.

 **********************************************************************

            Population analysis using the MP2 Density.

 **********************************************************************

 Alpha  occ. eigenvalues --  -20.38882  -7.47838  -5.30433  -5.30349  -5.30343
 Alpha  occ. eigenvalues --   -2.03192  -2.03145  -2.03139  -2.03049  -2.03049
 Alpha  occ. eigenvalues --   -1.12657  -0.64149  -0.47833  -0.38570  -0.31738
 Alpha  occ. eigenvalues --   -0.15880  -0.15258  -0.15216
 Alpha virt. eigenvalues --    0.13681   0.17025   0.23150   0.24412   0.24886
 Alpha virt. eigenvalues --    0.27453   0.29647   0.29706   0.31319   0.34080
 Alpha virt. eigenvalues --    0.36538   0.36894   0.37249   0.39404   0.40325
 Alpha virt. eigenvalues --    0.42676   0.44151   0.47757   0.50983   0.54916
 Alpha virt. eigenvalues --    0.57450   0.59976   0.67009   0.71717   0.76878
 Alpha virt. eigenvalues --    0.76945   0.77920   0.79004   0.79122   0.79580
 Alpha virt. eigenvalues --    0.82140   0.82862   0.85331   0.85892   0.86341
 Alpha virt. eigenvalues --    0.87416   0.87655   0.89618   0.90347   0.93260
 Alpha virt. eigenvalues --    0.93813   0.97023   1.02794   1.05470   1.07633
 Alpha virt. eigenvalues --    1.11054   1.12036   1.12087   1.15677   1.17184
 Alpha virt. eigenvalues --    1.19846   1.19897   1.30284   1.36404   1.37693
 Alpha virt. eigenvalues --    1.44922   1.48943   1.51472   1.59921   1.63631
 Alpha virt. eigenvalues --    1.71397   1.73383   1.74219   1.74317   1.75766
 Alpha virt. eigenvalues --    1.76544   1.80390   1.84709   1.85785   1.89994
 Alpha virt. eigenvalues --    2.01492   2.04739   2.05090   2.05395   2.09327
 Alpha virt. eigenvalues --    2.11132   2.14640   2.32586   2.44170   2.46144
 Alpha virt. eigenvalues --    2.55286   2.57722   2.60043   2.62715   2.70845
 Alpha virt. eigenvalues --    2.78329   2.91520   2.92223   2.97775   3.02674
 Alpha virt. eigenvalues --    3.20035   3.31867   3.32203   3.54293   3.87029
 Alpha virt. eigenvalues --    4.15149   4.21628   4.24822   4.27386   4.36568
 Alpha virt. eigenvalues --    4.40670   4.50925   4.53963   4.59497   4.66783
 Alpha virt. eigenvalues --    4.80193   4.88524   4.92922   5.03678   5.23381
 Alpha virt. eigenvalues --    5.41520   5.55250   5.64456   6.32407   6.67697
 Alpha virt. eigenvalues --    6.88570   6.98297   7.08080   7.34366   7.40961
 Alpha virt. eigenvalues --    7.45351   7.52974   7.56344   7.68131   7.87456
 Alpha virt. eigenvalues --    8.14609   8.34447  14.45667  59.21068
          Condensed to atoms (all electrons):
               1          2          3          4
     1  O    8.332889   0.179469  -0.078051   0.147075
     2  H    0.179469   0.607139   0.001110   0.042861
     3  I   -0.078051   0.001110  25.859312   0.020641
     4  H    0.147075   0.042861   0.020641   0.574451
 Mulliken charges:
               1
     1  O   -0.581382
     2  H    0.169422
     3  I   -0.803012
     4  H    0.214972
 Sum of Mulliken charges =  -1.00000
 Mulliken charges with hydrogens summed into heavy atoms:
               1
     1  O   -0.196988
     3  I   -0.803012
 Electronic spatial extent (au):  <R**2>=           1233.4705
 Charge=             -1.0000 electrons
 Dipole moment (field-independent basis, Debye):
    X=              3.8045    Y=             12.3137    Z=             -0.0000  Tot=             12.8881
 Quadrupole moment (field-independent basis, Debye-Ang):
   XX=            -41.0469   YY=            -86.7767   ZZ=            -41.7488
   XY=             -8.9760   XZ=             -0.0000   YZ=             -0.0000
 Traceless Quadrupole moment (field-independent basis, Debye-Ang):
   XX=             15.4772   YY=            -30.2526   ZZ=             14.7753
   XY=             -8.9760   XZ=             -0.0000   YZ=             -0.0000
 Octapole moment (field-independent basis, Debye-Ang**2):
  XXX=             72.9138  YYY=            501.3278  ZZZ=              0.0000  XYY=             55.1472
  XXY=            121.2239  XXZ=             -0.0000  XZZ=             23.2302  YZZ=            114.6533
  YYZ=              0.0000  XYZ=              0.0000
 Hexadecapole moment (field-independent basis, Debye-Ang**3):
 XXXX=           -176.5296 YYYY=          -2947.3760 ZZZZ=            -74.2342 XXXY=           -249.7991
 XXXZ=             -0.0000 YYYX=           -351.4230 YYYZ=             -0.0000 ZZZX=             -0.0000
 ZZZY=             -0.0000 XXYY=           -455.5305 XXZZ=            -41.9980 YYZZ=           -416.6530
 XXYZ=             -0.0000 YYXZ=             -0.0000 ZZXY=            -81.8111
 N-N= 4.760393353903D+01 E-N=-9.081179627502D+02  KE= 1.868175308722D+02
 No NMR shielding tensors so no spin-rotation constants.
 Leave Link  601 at Tue Oct 26 13:21:51 2021, MaxMem= 16106127360 cpu:               4.7 elap:               0.2
 (Enter /sw/contrib/gaussian/g16/B01/g16/l607.exe)
 ******************************Gaussian NBO Version 3.1******************************
             N A T U R A L   A T O M I C   O R B I T A L   A N D
          N A T U R A L   B O N D   O R B I T A L   A N A L Y S I S
 ******************************Gaussian NBO Version 3.1******************************
       /RESON  / : Allow strongly delocalized NBO set

 Analyzing the MP2 density

 Job title: title                                                           

 Storage needed:     65577 in NPA,     86948 in NBO (********** available)
 GSVD:  LWork=         -15 too small for GESVD, short by       42345 words or       42345 for optimal perf.


 NATURAL POPULATIONS:  Natural atomic orbital occupancies 
                                                          
   NAO  Atom  No  lang   Type(AO)    Occupancy
 --------------------------------------------
     1    O    1  S      Cor( 1S)     1.99971
     2    O    1  S      Val( 2S)     1.78261
     3    O    1  S      Ryd( 3S)     0.00730
     4    O    1  S      Ryd( 4S)     0.00043
     5    O    1  S      Ryd( 5S)     0.00019
     6    O    1  px     Val( 2p)     1.52303
     7    O    1  px     Ryd( 3p)     0.01156
     8    O    1  px     Ryd( 4p)     0.00054
     9    O    1  px     Ryd( 5p)     0.00010
    10    O    1  py     Val( 2p)     1.66944
    11    O    1  py     Ryd( 3p)     0.01232
    12    O    1  py     Ryd( 4p)     0.00056
    13    O    1  py     Ryd( 5p)     0.00018
    14    O    1  pz     Val( 2p)     1.95306
    15    O    1  pz     Ryd( 3p)     0.02265
    16    O    1  pz     Ryd( 4p)     0.00058
    17    O    1  pz     Ryd( 5p)     0.00000
    18    O    1  dxy    Ryd( 3d)     0.00816
    19    O    1  dxy    Ryd( 4d)     0.00048
    20    O    1  dxy    Ryd( 5d)     0.00008
    21    O    1  dxz    Ryd( 3d)     0.00864
    22    O    1  dxz    Ryd( 4d)     0.00051
    23    O    1  dxz    Ryd( 5d)     0.00007
    24    O    1  dyz    Ryd( 3d)     0.00724
    25    O    1  dyz    Ryd( 4d)     0.00056
    26    O    1  dyz    Ryd( 5d)     0.00008
    27    O    1  dx2y2  Ryd( 3d)     0.01257
    28    O    1  dx2y2  Ryd( 4d)     0.00041
    29    O    1  dx2y2  Ryd( 5d)     0.00011
    30    O    1  dz2    Ryd( 3d)     0.00856
    31    O    1  dz2    Ryd( 4d)     0.00055
    32    O    1  dz2    Ryd( 5d)     0.00012
    33    O    1  f(0)   Ryd( 4f)     0.00064
    34    O    1  f(0)   Ryd( 5f)     0.00011
    35    O    1  f(C1)  Ryd( 4f)     0.00057
    36    O    1  f(C1)  Ryd( 5f)     0.00009
    37    O    1  f(S1)  Ryd( 4f)     0.00061
    38    O    1  f(S1)  Ryd( 5f)     0.00010
    39    O    1  f(C2)  Ryd( 4f)     0.00048
    40    O    1  f(C2)  Ryd( 5f)     0.00010
    41    O    1  f(S2)  Ryd( 4f)     0.00047
    42    O    1  f(S2)  Ryd( 5f)     0.00008
    43    O    1  f(C3)  Ryd( 4f)     0.00045
    44    O    1  f(C3)  Ryd( 5f)     0.00013
    45    O    1  f(S3)  Ryd( 4f)     0.00045
    46    O    1  f(S3)  Ryd( 5f)     0.00010

    47    H    2  S      Val( 1S)     0.55196
    48    H    2  S      Ryd( 2S)     0.00208
    49    H    2  S      Ryd( 3S)     0.00020
    50    H    2  S      Ryd( 4S)     0.00009
    51    H    2  px     Ryd( 2p)     0.00188
    52    H    2  px     Ryd( 3p)     0.00068
    53    H    2  px     Ryd( 4p)     0.00015
    54    H    2  py     Ryd( 2p)     0.00196
    55    H    2  py     Ryd( 3p)     0.00026
    56    H    2  py     Ryd( 4p)     0.00011
    57    H    2  pz     Ryd( 2p)     0.00442
    58    H    2  pz     Ryd( 3p)     0.00019
    59    H    2  pz     Ryd( 4p)     0.00005
    60    H    2  dxy    Ryd( 3d)     0.00007
    61    H    2  dxy    Ryd( 4d)     0.00005
    62    H    2  dxz    Ryd( 3d)     0.00008
    63    H    2  dxz    Ryd( 4d)     0.00006
    64    H    2  dyz    Ryd( 3d)     0.00012
    65    H    2  dyz    Ryd( 4d)     0.00004
    66    H    2  dx2y2  Ryd( 3d)     0.00010
    67    H    2  dx2y2  Ryd( 4d)     0.00006
    68    H    2  dz2    Ryd( 3d)     0.00012
    69    H    2  dz2    Ryd( 4d)     0.00007

    70    I    3  S      Cor( 4S)     1.99982
    71    I    3  S      Val( 5S)     1.96710
    72    I    3  S      Ryd( 6S)     0.00212
    73    I    3  S      Ryd( 7S)     0.00051
    74    I    3  S      Ryd( 8S)     0.00007
    75    I    3  S      Ryd( 9S)     0.00001
    76    I    3  px     Cor( 4p)     2.00000
    77    I    3  px     Val( 5p)     1.94603
    78    I    3  px     Ryd( 6p)     0.01058
    79    I    3  px     Ryd( 7p)     0.00073
    80    I    3  px     Ryd( 8p)     0.00008
    81    I    3  py     Cor( 4p)     1.99980
    82    I    3  py     Val( 5p)     1.83378
    83    I    3  py     Ryd( 6p)     0.00912
    84    I    3  py     Ryd( 7p)     0.00067
    85    I    3  py     Ryd( 8p)     0.00019
    86    I    3  pz     Cor( 4p)     2.00001
    87    I    3  pz     Val( 5p)     1.95166
    88    I    3  pz     Ryd( 6p)     0.01061
    89    I    3  pz     Ryd( 7p)     0.00072
    90    I    3  pz     Ryd( 8p)     0.00007
    91    I    3  dxy    Cor( 4d)     1.99671
    92    I    3  dxy    Ryd( 5d)     0.01991
    93    I    3  dxy    Ryd( 6d)     0.00131
    94    I    3  dxy    Ryd( 7d)     0.00019
    95    I    3  dxz    Cor( 4d)     1.99678
    96    I    3  dxz    Ryd( 5d)     0.01998
    97    I    3  dxz    Ryd( 6d)     0.00162
    98    I    3  dxz    Ryd( 7d)     0.00016
    99    I    3  dyz    Cor( 4d)     1.99675
   100    I    3  dyz    Ryd( 5d)     0.01998
   101    I    3  dyz    Ryd( 6d)     0.00130
   102    I    3  dyz    Ryd( 7d)     0.00019
   103    I    3  dx2y2  Cor( 4d)     1.99659
   104    I    3  dx2y2  Ryd( 5d)     0.01950
   105    I    3  dx2y2  Ryd( 6d)     0.00151
   106    I    3  dx2y2  Ryd( 7d)     0.00019
   107    I    3  dz2    Cor( 4d)     1.99671
   108    I    3  dz2    Ryd( 5d)     0.01982
   109    I    3  dz2    Ryd( 6d)     0.00160
   110    I    3  dz2    Ryd( 7d)     0.00016
   111    I    3  f(0)   Ryd( 4f)     0.00271
   112    I    3  f(0)   Ryd( 5f)     0.00042
   113    I    3  f(C1)  Ryd( 4f)     0.00275
   114    I    3  f(C1)  Ryd( 5f)     0.00042
   115    I    3  f(S1)  Ryd( 4f)     0.00278
   116    I    3  f(S1)  Ryd( 5f)     0.00045
   117    I    3  f(C2)  Ryd( 4f)     0.00269
   118    I    3  f(C2)  Ryd( 5f)     0.00042
   119    I    3  f(S2)  Ryd( 4f)     0.00275
   120    I    3  f(S2)  Ryd( 5f)     0.00043
   121    I    3  f(C3)  Ryd( 4f)     0.00267
   122    I    3  f(C3)  Ryd( 5f)     0.00043
   123    I    3  f(S3)  Ryd( 4f)     0.00274
   124    I    3  f(S3)  Ryd( 5f)     0.00045

   125    H    4  S      Val( 1S)     0.52862
   126    H    4  S      Ryd( 2S)     0.00720
   127    H    4  S      Ryd( 3S)     0.00047
   128    H    4  S      Ryd( 4S)     0.00016
   129    H    4  px     Ryd( 2p)     0.00373
   130    H    4  px     Ryd( 3p)     0.00043
   131    H    4  px     Ryd( 4p)     0.00007
   132    H    4  py     Ryd( 2p)     0.00390
   133    H    4  py     Ryd( 3p)     0.00089
   134    H    4  py     Ryd( 4p)     0.00020
   135    H    4  pz     Ryd( 2p)     0.00392
   136    H    4  pz     Ryd( 3p)     0.00041
   137    H    4  pz     Ryd( 4p)     0.00006
   138    H    4  dxy    Ryd( 3d)     0.00033
   139    H    4  dxy    Ryd( 4d)     0.00009
   140    H    4  dxz    Ryd( 3d)     0.00019
   141    H    4  dxz    Ryd( 4d)     0.00004
   142    H    4  dyz    Ryd( 3d)     0.00034
   143    H    4  dyz    Ryd( 4d)     0.00010
   144    H    4  dx2y2  Ryd( 3d)     0.00024
   145    H    4  dx2y2  Ryd( 4d)     0.00009
   146    H    4  dz2    Ryd( 3d)     0.00023
   147    H    4  dz2    Ryd( 4d)     0.00005

 [ 28 electrons found in the effective core potential]

 WARNING:  5 low occupancy (<1.9990e) core orbitals found on  I    3


 Summary of Natural Population Analysis:                  
                                                          
                                       Natural Population 
                Natural  -----------------------------------------------
    Atom  No    Charge         Core      Valence    Rydberg      Total
 -----------------------------------------------------------------------
      O    1   -1.03677      1.99971     6.92815    0.10892     9.03677
      H    2    0.43521      0.00000     0.55196    0.01283     0.56479
      I    3   -0.84672     45.98318     7.69856    0.16497    53.84672
      H    4    0.44825      0.00000     0.52862    0.02313     0.55175
 =======================================================================
   * Total *   -1.00004     47.98289    15.70728    0.30987    64.00004

                                 Natural Population      
 --------------------------------------------------------
   Effective Core            28.00000
   Core                      19.98289 ( 99.9144% of  20)
   Valence                   15.70728 ( 98.1705% of  16)
   Natural Minimal Basis     63.69017 ( 99.5159% of  64)
   Natural Rydberg Basis      0.30987 (  0.4842% of  64)
 --------------------------------------------------------

    Atom  No          Natural Electron Configuration
 ----------------------------------------------------------------------------
      O    1      [core]2S( 1.78)2p( 5.15)3S( 0.01)3p( 0.05)3d( 0.05)
      H    2            1S( 0.55)2p( 0.01)
      I    3      [core]5S( 1.97)5p( 5.73)4f( 0.02)5d( 0.10)6p( 0.03)6d( 0.01)
      H    4            1S( 0.53)2S( 0.01)2p( 0.01)


 NATURAL BOND ORBITAL ANALYSIS:
 Warning:  a bond orbital has occupanc of -0.00012

                       Occupancies       Lewis Structure    Low   High
           Occ.    -------------------  -----------------   occ   occ
  Cycle   Thresh.   Lewis   Non-Lewis     CR  BD  3C  LP    (L)   (NL)   Dev
 =============================================================================
   1(1)    1.90    63.53085   0.46915     10   2   0   6     1      1    0.19
 Warning:  a bond orbital has occupanc of -0.00012
   2(2)    1.90    63.29640   0.70360     10   2   0   6     1      1    0.53
 Warning:  a bond orbital has occupanc of -0.00012
   3(3)    1.90    63.53085   0.46915     10   2   0   6     1      1    0.19
 Warning:  a bond orbital has occupanc of -0.00012
   4(1)    1.80    63.53085   0.46915     10   2   0   6     0      1    0.19
 Warning:  a bond orbital has occupanc of -0.00012
   5(2)    1.80    63.53085   0.46915     10   2   0   6     0      1    0.19
 Warning:  a bond orbital has occupanc of -0.00012
   6(1)    1.70    63.53085   0.46915     10   2   0   6     0      1    0.19
 Warning:  a bond orbital has occupanc of -0.00012
   7(2)    1.70    63.53085   0.46915     10   2   0   6     0      1    0.19
 Warning:  a bond orbital has occupanc of -0.00012
   8(1)    1.60    63.53085   0.46915     10   2   0   6     0      1    0.19
 Warning:  a bond orbital has occupanc of -0.00012
   9(2)    1.60    63.53085   0.46915     10   2   0   6     0      1    0.19
 Warning:  a bond orbital has occupanc of -0.00012
  10(1)    1.50    63.16416   0.83584     10   1   0   7     0      1    0.53
 Warning:  a bond orbital has occupanc of -0.00012
  11(2)    1.50    63.16416   0.83584     10   1   0   7     0      1    0.53
 Warning:  a bond orbital has occupanc of -0.00012
  12(1)    1.90    63.53085   0.46915     10   2   0   6     1      1    0.19
 -----------------------------------------------------------------------------

 Structure accepted: RESONANCE keyword permits strongly delocalized structure

 WARNING:  5 low occupancy (<1.9990e) core orbitals found on  I    3

 --------------------------------------------------------
   Effective Core           28.00000
   Core                     19.98288 ( 99.914% of  20)
   Valence Lewis            15.54797 ( 97.175% of  16)
  ==================       ============================
   Total Lewis              63.53085 ( 99.267% of  64)
  -----------------------------------------------------
   Valence non-Lewis         0.18371 (  0.287% of  64)
   Rydberg non-Lewis         0.28544 (  0.446% of  64)
  ==================       ============================
   Total non-Lewis           0.46915 (  0.733% of  64)
 --------------------------------------------------------


       (Occupancy)   Bond orbital/ Coefficients/ Hybrids
 ---------------------------------------------------------------------------------
     1. (1.96371) BD ( 1) O   1 - H   2  
                ( 72.67%)   0.8525* O   1 s( 21.44%)p 3.64( 78.05%)d 0.02(  0.50%)
                                                  f 0.00(  0.01%)
                                            0.0002  0.4630 -0.0088 -0.0039 -0.0017
                                            0.8820 -0.0366  0.0091 -0.0045  0.0325
                                           -0.0076 -0.0008 -0.0026  0.0000  0.0000
                                            0.0000  0.0000 -0.0167  0.0040 -0.0019
                                            0.0000  0.0000  0.0000  0.0000  0.0000
                                            0.0000  0.0587 -0.0054  0.0043 -0.0341
                                            0.0012  0.0000  0.0000  0.0000 -0.0099
                                            0.0006 -0.0005  0.0001  0.0000  0.0000
                                            0.0000  0.0000  0.0047  0.0036  0.0011
                                           -0.0005
                ( 27.33%)   0.5228* H   2 s( 99.84%)p 0.00(  0.15%)d 0.00(  0.00%)
                                            0.9992  0.0045  0.0001 -0.0003  0.0207
                                           -0.0314 -0.0046 -0.0092  0.0018 -0.0005
                                            0.0000  0.0000  0.0000 -0.0000  0.0028
                                            0.0000  0.0000  0.0000  0.0000  0.0015
                                            0.0031 -0.0027 -0.0022
     2. (1.95700) BD ( 1) O   1 - H   4  
                ( 79.58%)   0.8921* O   1 s( 19.05%)p 4.23( 80.60%)d 0.02(  0.34%)
                                                  f 0.00(  0.01%)
                                           -0.0003 -0.4365 -0.0029  0.0006 -0.0004
                                            0.1944 -0.0156  0.0020 -0.0017  0.8763
                                            0.0021  0.0042 -0.0037  0.0000  0.0000
                                            0.0000  0.0000  0.0109 -0.0024  0.0014
                                            0.0000  0.0000  0.0000  0.0000  0.0000
                                            0.0000  0.0473 -0.0059  0.0002  0.0312
                                           -0.0039 -0.0013  0.0000  0.0000 -0.0017
                                           -0.0001 -0.0093  0.0019  0.0000  0.0000
                                            0.0000  0.0000 -0.0031 -0.0004 -0.0019
                                            0.0002
                ( 20.42%)   0.4519* H   4 s( 99.86%)p 0.00(  0.14%)d 0.00(  0.00%)
                                           -0.9985 -0.0392 -0.0057  0.0036 -0.0186
                                           -0.0045 -0.0019  0.0066 -0.0294 -0.0112
                                            0.0000  0.0000  0.0000  0.0012  0.0010
                                            0.0000  0.0000  0.0000  0.0000  0.0013
                                            0.0021  0.0029  0.0014
     3. (1.99971) CR ( 1) O   1           s(100.00%)p 0.00(  0.00%)
                                            1.0000 -0.0004  0.0000  0.0000  0.0000
                                           -0.0001  0.0000 -0.0000  0.0000  0.0001
                                            0.0000  0.0000 -0.0000  0.0000  0.0000
                                            0.0000  0.0000  0.0000 -0.0000  0.0000
                                            0.0000  0.0000  0.0000  0.0000  0.0000
                                            0.0000 -0.0000 -0.0000 -0.0000  0.0000
                                           -0.0000 -0.0000  0.0000  0.0000  0.0000
                                            0.0000 -0.0000  0.0000  0.0000  0.0000
                                            0.0000  0.0000 -0.0000 -0.0000 -0.0000
                                            0.0000
     4. (1.99982) CR ( 1) I   3           s(100.00%)
                                            1.0000 -0.0002 -0.0000 -0.0000  0.0000
                                            0.0000  0.0000  0.0000 -0.0000  0.0000
                                           -0.0000  0.0000  0.0001 -0.0000  0.0000
                                            0.0000  0.0000  0.0000  0.0000  0.0000
                                            0.0000  0.0000  0.0000  0.0000  0.0000
                                            0.0000  0.0000  0.0000  0.0000  0.0000
                                            0.0000  0.0000  0.0000 -0.0000 -0.0000
                                           -0.0000  0.0000 -0.0000 -0.0000 -0.0000
                                           -0.0000  0.0000  0.0000 -0.0000  0.0000
                                            0.0000  0.0000  0.0000  0.0000  0.0000
                                            0.0000 -0.0000  0.0000  0.0000  0.0000
     5. (2.00000) CR ( 2) I   3           s(  0.00%)p 1.00(100.00%)
                                            0.0000  0.0000  0.0000 -0.0000  0.0000
                                           -0.0000  1.0000 -0.0004 -0.0000 -0.0000
                                            0.0000  0.0000  0.0001  0.0000 -0.0000
                                            0.0000  0.0000  0.0000  0.0000  0.0000
                                            0.0000  0.0000 -0.0000 -0.0000  0.0000
                                            0.0000  0.0000  0.0000  0.0000  0.0000
                                            0.0000  0.0000  0.0000  0.0000 -0.0000
                                            0.0000  0.0000  0.0000  0.0000 -0.0000
                                            0.0000  0.0000  0.0000  0.0000  0.0000
                                           -0.0000 -0.0000  0.0000  0.0000  0.0000
                                            0.0000  0.0000  0.0000 -0.0000 -0.0000
     6. (1.99980) CR ( 3) I   3           s(  0.00%)p 1.00(100.00%)
                                            0.0000  0.0002 -0.0000  0.0000 -0.0000
                                           -0.0000  0.0000  0.0001  0.0000  0.0000
                                           -0.0000  1.0000 -0.0001  0.0000 -0.0000
                                           -0.0000  0.0000  0.0000  0.0000  0.0000
                                            0.0000 -0.0000  0.0000 -0.0000 -0.0000
                                            0.0000  0.0000  0.0000  0.0000  0.0000
                                            0.0000  0.0000  0.0000  0.0000  0.0000
                                           -0.0000 -0.0000  0.0000  0.0000  0.0000
                                           -0.0000  0.0000  0.0000 -0.0000 -0.0000
                                            0.0000 -0.0000  0.0000  0.0000  0.0000
                                            0.0000 -0.0000 -0.0000  0.0000  0.0000
     7. (2.00001) CR ( 4) I   3           s(  0.00%)p 1.00(100.00%)
                                            0.0000  0.0000  0.0000  0.0000  0.0000
                                            0.0000  0.0000  0.0000  0.0000  0.0000
                                            0.0000  0.0000  0.0000  0.0000  0.0000
                                            0.0000  1.0000 -0.0004 -0.0000 -0.0000
                                            0.0000  0.0000  0.0000  0.0000  0.0000
                                            0.0000 -0.0000  0.0000 -0.0000  0.0000
                                           -0.0000 -0.0000  0.0000  0.0000  0.0000
                                            0.0000  0.0000  0.0000  0.0000  0.0000
                                            0.0000  0.0000  0.0000  0.0000  0.0000
                                            0.0000  0.0000  0.0000  0.0000 -0.0000
                                           -0.0000  0.0000  0.0000  0.0000  0.0000
     8. (1.99671) CR ( 5) I   3           s(  0.00%)p 0.00(  0.00%)d 1.00(100.00%)
                                            0.0000  0.0000 -0.0000  0.0000 -0.0000
                                           -0.0000  0.0000  0.0000  0.0000  0.0000
                                           -0.0000 -0.0000 -0.0000  0.0000 -0.0000
                                           -0.0000  0.0000  0.0000  0.0000  0.0000
                                            0.0000  1.0000  0.0000 -0.0000 -0.0000
                                            0.0000  0.0000  0.0000  0.0000  0.0000
                                            0.0000  0.0000  0.0000  0.0000  0.0000
                                           -0.0000 -0.0000  0.0000 -0.0000  0.0000
                                           -0.0000  0.0000  0.0000 -0.0000 -0.0000
                                            0.0000 -0.0000  0.0000  0.0000  0.0000
                                            0.0000 -0.0000 -0.0000  0.0000  0.0000
     9. (1.99678) CR ( 6) I   3           s(  0.00%)p 0.00(  0.00%)d 1.00(100.00%)
                                            0.0000  0.0000  0.0000  0.0000  0.0000
                                            0.0000  0.0000  0.0000  0.0000  0.0000
                                            0.0000  0.0000  0.0000  0.0000  0.0000
                                            0.0000  0.0000  0.0000  0.0000  0.0000
                                           -0.0000  0.0000  0.0000  0.0000  0.0000
                                            1.0000  0.0000 -0.0000  0.0000 -0.0000
                                            0.0000  0.0000 -0.0000  0.0000  0.0000
                                            0.0000  0.0000  0.0000  0.0000  0.0000
                                            0.0000 -0.0000 -0.0000  0.0000  0.0000
                                            0.0000  0.0000 -0.0000 -0.0000  0.0000
                                            0.0000  0.0000  0.0000  0.0000  0.0000
    10. (1.99675) CR ( 7) I   3           s(  0.00%)p 0.00(  0.00%)d 1.00(100.00%)
                                            0.0000  0.0000  0.0000  0.0000  0.0000
                                            0.0000  0.0000  0.0000  0.0000  0.0000
                                            0.0000  0.0000  0.0000  0.0000  0.0000
                                            0.0000  0.0000  0.0000  0.0000  0.0000
                                           -0.0000  0.0000  0.0000  0.0000  0.0000
                                           -0.0000  0.0000 -0.0000  0.0000  1.0000
                                            0.0000  0.0000 -0.0000  0.0000  0.0000
                                            0.0000  0.0000  0.0000  0.0000  0.0000
                                            0.0000 -0.0000 -0.0000  0.0000  0.0000
                                            0.0000  0.0000 -0.0000 -0.0000  0.0000
                                            0.0000  0.0000  0.0000  0.0000  0.0000
    11. (1.99659) CR ( 8) I   3           s(  0.00%)p 0.00(  0.00%)d 1.00(100.00%)
                                           -0.0000 -0.0001 -0.0000 -0.0000  0.0000
                                            0.0000  0.0000  0.0000  0.0000  0.0000
                                           -0.0000  0.0000  0.0000 -0.0000  0.0000
                                           -0.0000  0.0000  0.0000  0.0000  0.0000
                                            0.0000  0.0000  0.0000  0.0000 -0.0000
                                            0.0000  0.0000  0.0000  0.0000  0.0000
                                            0.0000  0.0000  0.0000  1.0000 -0.0000
                                           -0.0000  0.0000 -0.0000 -0.0000 -0.0000
                                           -0.0000  0.0000  0.0000 -0.0000 -0.0000
                                            0.0000  0.0000  0.0000  0.0000  0.0000
                                            0.0000 -0.0000  0.0000  0.0000  0.0000
    12. (1.99671) CR ( 9) I   3           s(  0.00%)p 0.00(  0.00%)d 1.00(100.00%)
                                           -0.0000 -0.0000 -0.0000 -0.0000  0.0000
                                            0.0000  0.0000  0.0000 -0.0000  0.0000
                                           -0.0000  0.0000  0.0000 -0.0000  0.0000
                                            0.0000  0.0000  0.0000  0.0000  0.0000
                                            0.0000  0.0000  0.0000  0.0000  0.0000
                                            0.0000  0.0000  0.0000  0.0000  0.0000
                                            0.0000  0.0000  0.0000 -0.0000 -0.0000
                                           -0.0000  0.0000  1.0000 -0.0000 -0.0000
                                           -0.0000  0.0000  0.0000  0.0000  0.0000
                                            0.0000  0.0000  0.0000  0.0000  0.0000
                                            0.0000  0.0000  0.0000 -0.0000  0.0000
    13. (1.96902) LP ( 1) O   1           s( 59.44%)p 0.68( 40.47%)d 0.00(  0.09%)
                                                  f 0.00(  0.00%)
                                            0.0002  0.7710  0.0013  0.0019  0.0002
                                           -0.4212 -0.0023  0.0027  0.0005  0.4767
                                            0.0051 -0.0037  0.0013  0.0000  0.0000
                                            0.0000  0.0000  0.0264 -0.0038 -0.0009
                                            0.0000  0.0000  0.0000  0.0000  0.0000
                                            0.0000 -0.0009  0.0003 -0.0007  0.0121
                                           -0.0021  0.0016  0.0000  0.0000  0.0029
                                           -0.0009 -0.0019  0.0006  0.0000  0.0000
                                            0.0000  0.0000  0.0009 -0.0017  0.0016
                                           -0.0001
    14. (1.95804) LP ( 2) O   1           s(  0.00%)p 1.00( 99.80%)d 0.00(  0.19%)
                                                  f 0.00(  0.01%)
                                            0.0000  0.0000  0.0000  0.0000  0.0000
                                            0.0000  0.0000  0.0000  0.0000  0.0000
                                            0.0000  0.0000  0.0000  0.9987  0.0232
                                           -0.0059  0.0048  0.0000  0.0000  0.0000
                                            0.0361 -0.0035 -0.0014 -0.0230  0.0030
                                            0.0018  0.0000  0.0000  0.0000  0.0000
                                            0.0000  0.0000 -0.0093  0.0032  0.0000
                                            0.0000  0.0000  0.0000  0.0004  0.0016
                                            0.0020 -0.0007  0.0000  0.0000  0.0000
                                            0.0000
    15. (1.97810) LP ( 1) I   3           s( 93.14%)p 0.07(  6.86%)d 0.00(  0.00%)
                                                  f 0.00(  0.00%)
                                            0.0002  0.9651  0.0000  0.0010 -0.0004
                                           -0.0001 -0.0000 -0.0525  0.0004 -0.0001
                                            0.0001 -0.0002 -0.2566  0.0015 -0.0004
                                           -0.0000  0.0000  0.0000  0.0000  0.0000
                                            0.0000 -0.0000 -0.0004 -0.0002 -0.0000
                                            0.0000  0.0000  0.0000  0.0000  0.0000
                                            0.0000  0.0000  0.0000  0.0001  0.0008
                                            0.0003 -0.0001  0.0000  0.0005  0.0002
                                            0.0000  0.0000  0.0000 -0.0000 -0.0000
                                           -0.0000 -0.0002  0.0000  0.0000  0.0000
                                            0.0000  0.0000 -0.0002 -0.0000 -0.0002
    16. (1.95178) LP ( 2) I   3           s(  0.00%)p 1.00( 99.99%)d 0.00(  0.00%)
                                                  f 0.00(  0.00%)
                                            0.0000  0.0000  0.0000  0.0000  0.0000
                                            0.0000  0.0000  0.0000  0.0000  0.0000
                                            0.0000  0.0000  0.0000  0.0000  0.0000
                                            0.0000  0.0004  1.0000  0.0028  0.0015
                                           -0.0001  0.0000  0.0000  0.0000  0.0000
                                           -0.0000  0.0023 -0.0009  0.0005 -0.0000
                                            0.0046  0.0003 -0.0031  0.0000  0.0000
                                            0.0000  0.0000  0.0000  0.0000  0.0000
                                            0.0000 -0.0024 -0.0013  0.0000  0.0000
                                            0.0000  0.0000 -0.0023 -0.0010  0.0014
                                            0.0009  0.0000  0.0000  0.0000  0.0000
    17. (1.95156) LP ( 3) I   3           s(  0.00%)p 1.00( 99.99%)d 0.00(  0.01%)
                                                  f 0.00(  0.00%)
                                            0.0000  0.0022  0.0005 -0.0018  0.0016
                                           -0.0001 -0.0004 -0.9780 -0.0039 -0.0020
                                            0.0007  0.0001  0.2085  0.0001 -0.0002
                                            0.0006 -0.0000 -0.0000 -0.0000 -0.0000
                                           -0.0000  0.0000 -0.0050 -0.0002  0.0027
                                           -0.0000 -0.0000 -0.0000 -0.0000 -0.0000
                                           -0.0000 -0.0000 -0.0000  0.0000 -0.0042
                                            0.0010  0.0002 -0.0000  0.0006 -0.0005
                                            0.0008 -0.0000 -0.0000  0.0011  0.0007
                                           -0.0002 -0.0000 -0.0000 -0.0000 -0.0000
                                           -0.0000  0.0024  0.0009 -0.0023 -0.0014
    18. (1.81875) LP ( 4) I   3           s(  6.86%)p13.57( 93.08%)d 0.01(  0.05%)
                                                  f 0.00(  0.01%)
                                           -0.0000  0.2618 -0.0002 -0.0040  0.0015
                                            0.0005 -0.0000  0.2018 -0.0010 -0.0007
                                            0.0001 -0.0000  0.9434 -0.0070 -0.0038
                                            0.0008  0.0000  0.0000  0.0000  0.0000
                                            0.0000 -0.0000  0.0088 -0.0008 -0.0008
                                            0.0000  0.0000  0.0000  0.0000  0.0000
                                            0.0000  0.0000  0.0000 -0.0000 -0.0173
                                            0.0016  0.0029 -0.0000 -0.0119  0.0015
                                            0.0010  0.0000  0.0000 -0.0013 -0.0006
                                           -0.0061 -0.0029  0.0000  0.0000  0.0000
                                            0.0000 -0.0043 -0.0014 -0.0060 -0.0024
    19. (0.02188) RY*( 1) O   1           s(  0.00%)p 1.00( 98.53%)d 0.01(  1.43%)
                                                  f 0.00(  0.04%)
                                            0.0000  0.0000  0.0000  0.0000  0.0000
                                            0.0000  0.0000  0.0000  0.0000  0.0000
                                            0.0000  0.0000  0.0000 -0.0280  0.9918
                                            0.0241 -0.0181  0.0000  0.0000  0.0000
                                            0.0904 -0.0158  0.0055 -0.0738  0.0183
                                           -0.0102  0.0000  0.0000  0.0000  0.0000
                                            0.0000  0.0000 -0.0122  0.0127  0.0000
                                            0.0000  0.0000  0.0000 -0.0052  0.0034
                                           -0.0001 -0.0017  0.0000  0.0000  0.0000
                                            0.0000
    20. (0.01682) RY*( 2) O   1           s( 21.15%)p 3.60( 76.09%)d 0.13(  2.65%)
                                                  f 0.00(  0.10%)
                                           -0.0000 -0.0054  0.4598  0.0056 -0.0076
                                           -0.0023 -0.5008 -0.0065  0.0114 -0.0145
                                            0.7137  0.0073 -0.0190  0.0000  0.0000
                                            0.0000  0.0000  0.1571 -0.0246  0.0086
                                            0.0000  0.0000  0.0000  0.0000  0.0000
                                            0.0000  0.0016  0.0048  0.0005  0.0309
                                           -0.0119  0.0066  0.0000  0.0000  0.0037
                                           -0.0032  0.0034  0.0018  0.0000  0.0000
                                            0.0000  0.0000  0.0237 -0.0140  0.0133
                                           -0.0051
    21. (0.00832) RY*( 3) O   1           s(  6.47%)p12.72( 82.35%)d 1.70( 11.00%)
                                                  f 0.03(  0.18%)
                                            0.0000 -0.0068  0.2510 -0.0281  0.0299
                                           -0.0449 -0.6742 -0.0250  0.0240 -0.0174
                                           -0.6034 -0.0001 -0.0371 -0.0000 -0.0000
                                           -0.0000 -0.0000 -0.1716 -0.0162  0.0060
                                           -0.0000 -0.0000 -0.0000 -0.0000 -0.0000
                                           -0.0000  0.2703  0.0524 -0.0224  0.0600
                                            0.0164 -0.0070 -0.0000 -0.0000 -0.0156
                                            0.0089 -0.0000 -0.0027 -0.0000 -0.0000
                                           -0.0000 -0.0000  0.0282 -0.0196 -0.0157
                                            0.0057
    22. (0.00652) RY*( 4) O   1           s( 21.30%)p 0.25(  5.36%)d 3.41( 72.54%)
                                                  f 0.04(  0.81%)
                                           -0.0000  0.0164  0.4612  0.0019  0.0041
                                            0.0220  0.2253  0.0063 -0.0051  0.0280
                                            0.0191  0.0094 -0.0324 -0.0000 -0.0000
                                           -0.0000 -0.0000 -0.7453 -0.0217 -0.0018
                                           -0.0000 -0.0000 -0.0000 -0.0000 -0.0000
                                           -0.0000 -0.3391 -0.0074  0.0007  0.2310
                                            0.0317 -0.0116 -0.0000 -0.0000  0.0041
                                            0.0056  0.0285 -0.0183 -0.0000 -0.0000
                                           -0.0000 -0.0000 -0.0732  0.0338 -0.0194
                                           -0.0022
    23. (0.00635) RY*( 5) O   1           s(  0.00%)p 1.00(  0.01%)d99.99( 98.78%)
                                                  f99.99(  1.21%)
                                            0.0000  0.0000  0.0000  0.0000  0.0000
                                            0.0000  0.0000  0.0000  0.0000  0.0000
                                            0.0000  0.0000  0.0000 -0.0026  0.0070
                                            0.0074 -0.0004  0.0000  0.0000  0.0000
                                            0.5837  0.0417 -0.0111  0.8018  0.0491
                                           -0.0024  0.0000  0.0000  0.0000  0.0000
                                            0.0000  0.0000  0.0131 -0.0130  0.0000
                                            0.0000  0.0000  0.0000  0.0938 -0.0542
                                           -0.0014  0.0056  0.0000  0.0000  0.0000
                                            0.0000
    24. (0.00594) RY*( 6) O   1           s(  0.00%)p 1.00(  1.51%)d64.78( 97.54%)
                                                  f 0.63(  0.95%)
                                            0.0000  0.0000  0.0000  0.0000  0.0000
                                            0.0000  0.0000  0.0000  0.0000  0.0000
                                            0.0000  0.0000  0.0000 -0.0398 -0.1148
                                           -0.0163  0.0059  0.0000  0.0000  0.0000
                                            0.7932  0.0788 -0.0266 -0.5799 -0.0536
                                            0.0100  0.0000  0.0000  0.0000  0.0000
                                            0.0000  0.0000 -0.0730  0.0391  0.0000
                                            0.0000  0.0000  0.0000  0.0281 -0.0109
                                           -0.0382  0.0173  0.0000  0.0000  0.0000
                                            0.0000
    25. (0.00580) RY*( 7) O   1           s(  4.34%)p 1.30(  5.63%)d20.60( 89.30%)
                                                  f 0.17(  0.73%)
                                           -0.0000  0.0158  0.2074 -0.0101  0.0025
                                            0.0362  0.1955  0.0204 -0.0027 -0.0357
                                           -0.1209 -0.0111 -0.0160  0.0000  0.0000
                                            0.0000  0.0000  0.4034  0.0242 -0.0023
                                            0.0000  0.0000  0.0000  0.0000  0.0000
                                            0.0000  0.0934  0.0124  0.0004  0.8437
                                            0.0928 -0.0189  0.0000  0.0000  0.0557
                                           -0.0283 -0.0485  0.0269  0.0000  0.0000
                                            0.0000  0.0000  0.0116 -0.0050  0.0144
                                           -0.0027
    26. (0.00467) RY*( 8) O   1           s( 15.40%)p 0.74( 11.42%)d 4.61( 71.04%)
                                                  f 0.14(  2.15%)
                                            0.0000 -0.0051  0.3923  0.0075 -0.0023
                                            0.0439  0.0283  0.0156 -0.0016  0.0305
                                           -0.3223  0.0011 -0.0799 -0.0000 -0.0000
                                           -0.0000 -0.0000  0.4499  0.0249  0.0062
                                           -0.0000 -0.0000 -0.0000 -0.0000 -0.0000
                                           -0.0000 -0.6484 -0.0224 -0.0091 -0.2924
                                           -0.0277  0.0038 -0.0000 -0.0000  0.0277
                                           -0.0163  0.0542 -0.0378 -0.0000 -0.0000
                                           -0.0000 -0.0000  0.0126 -0.0178  0.1092
                                           -0.0610
    27. (0.00240) RY*( 9) O   1           s( 29.26%)p 0.69( 20.18%)d 1.70( 49.66%)
                                                  f 0.03(  0.90%)
                                            0.0000 -0.0051  0.5393 -0.0299 -0.0291
                                           -0.0242  0.4419  0.0111  0.0022 -0.0074
                                           -0.0486 -0.0243 -0.0527  0.0000  0.0000
                                            0.0000  0.0000  0.0845  0.0164 -0.0149
                                            0.0000  0.0000  0.0000  0.0000  0.0000
                                            0.0000  0.5836  0.1366  0.0648 -0.3350
                                           -0.1143 -0.0145  0.0000  0.0000 -0.0284
                                            0.0460  0.0105 -0.0056  0.0000  0.0000
                                            0.0000  0.0000  0.0513 -0.0568 -0.0086
                                           -0.0013
    28. (0.00066) RY*(10) O   1           s( 40.09%)p 1.17( 46.97%)d 0.25( 10.20%)
                                                  f 0.07(  2.73%)
                                            0.0000 -0.0045 -0.0140  0.6286 -0.0746
                                           -0.0018 -0.0322  0.1470 -0.1261 -0.0017
                                           -0.0084 -0.6478 -0.1073 -0.0000 -0.0000
                                           -0.0000 -0.0000 -0.0309  0.1229 -0.1227
                                           -0.0000 -0.0000 -0.0000 -0.0000 -0.0000
                                           -0.0000  0.0232 -0.0699  0.1149  0.0341
                                           -0.1458  0.1729 -0.0000 -0.0000  0.0360
                                           -0.0003  0.1081 -0.0067 -0.0000 -0.0000
                                           -0.0000 -0.0000  0.0265  0.0130  0.1158
                                           -0.0011
    29. (0.00056) RY*(11) O   1           s(  0.00%)p 1.00( 38.78%)d 1.43( 55.46%)
                                                  f 0.15(  5.77%)
                                            0.0000  0.0000  0.0000  0.0000  0.0000
                                            0.0000  0.0000  0.0000  0.0000  0.0000
                                            0.0000  0.0000  0.0000 -0.0021 -0.0422
                                            0.6204  0.0332  0.0000  0.0000  0.0000
                                            0.0405 -0.3150  0.0365 -0.0391  0.6696
                                           -0.0491  0.0000  0.0000  0.0000  0.0000
                                            0.0000  0.0000 -0.1477  0.0266  0.0000
                                            0.0000  0.0000  0.0000 -0.1405  0.0136
                                           -0.1232 -0.0052  0.0000  0.0000  0.0000
                                            0.0000
    30. (0.00053) RY*(12) O   1           s(  3.10%)p 5.35( 16.60%)d21.64( 67.20%)
                                                  f 4.22( 13.09%)
                                           -0.0000  0.0035 -0.0286  0.1601  0.0678
                                            0.0031  0.0067 -0.1016 -0.0263 -0.0085
                                           -0.0191  0.3724 -0.1257 -0.0000 -0.0000
                                           -0.0000 -0.0000 -0.0303 -0.3679 -0.0406
                                           -0.0000 -0.0000 -0.0000 -0.0000 -0.0000
                                           -0.0000  0.0122 -0.2302  0.0616  0.0946
                                           -0.6712  0.1331 -0.0000 -0.0000  0.1508
                                           -0.0045 -0.0078  0.0099 -0.0000 -0.0000
                                           -0.0000 -0.0000  0.2544 -0.0087  0.2077
                                           -0.0067
    31. (0.00050) RY*(13) O   1           s(  0.00%)p 1.00( 58.89%)d 0.49( 28.66%)
                                                  f 0.21( 12.45%)
                                            0.0000  0.0000  0.0000  0.0000  0.0000
                                            0.0000  0.0000  0.0000  0.0000  0.0000
                                            0.0000  0.0000  0.0000 -0.0067 -0.0012
                                           -0.7438 -0.1888  0.0000  0.0000  0.0000
                                            0.0114 -0.1612  0.0053 -0.0054  0.5100
                                            0.0175  0.0000  0.0000  0.0000  0.0000
                                            0.0000  0.0000 -0.1268  0.0005  0.0000
                                            0.0000  0.0000  0.0000 -0.1403  0.0131
                                           -0.2976 -0.0061  0.0000  0.0000  0.0000
                                            0.0000
    32. (0.00045) RY*(14) O   1           s(  0.00%)p 1.00(  0.01%)d99.99( 10.23%)
                                                  f99.99( 89.76%)
                                            0.0000  0.0000  0.0000  0.0000  0.0000
                                            0.0000  0.0000  0.0000  0.0000  0.0000
                                            0.0000  0.0000  0.0000  0.0039 -0.0019
                                            0.0026  0.0099  0.0000  0.0000  0.0000
                                            0.0206 -0.2981 -0.0176 -0.0696  0.0574
                                           -0.0676  0.0000  0.0000  0.0000  0.0000
                                            0.0000  0.0000  0.7649  0.0364  0.0000
[...]
                                            0.0024  0.0067  0.3402  0.0990  0.0287
                                            0.0000  0.0000  0.0000 -0.0402 -0.0132
                                            0.0000  0.0000  0.0000  0.0000  0.0511
                                            0.0243  0.0297  0.0109
   125. (0.00406) RY*( 2) H   4           s(  0.00%)p 1.00( 98.22%)d 0.02(  1.78%)
                                            0.0000  0.0000  0.0000  0.0000  0.0000
                                            0.0000  0.0000  0.0000  0.0000  0.0000
                                            0.9812  0.1376 -0.0199  0.0000  0.0000
                                           -0.0121  0.0166 -0.1020  0.0838  0.0000
                                            0.0000  0.0000  0.0000
   126. (0.00375) RY*( 3) H   4           s(  2.60%)p36.93( 95.92%)d 0.57(  1.49%)
                                           -0.0223  0.0532  0.1325  0.0714  0.7166
                                            0.0044 -0.0303 -0.6615  0.0770 -0.0347
                                           -0.0000 -0.0000 -0.0000 -0.1020  0.0313
                                           -0.0000 -0.0000 -0.0000 -0.0000 -0.0318
                                            0.0194 -0.0447  0.0099
   127. (0.00297) RY*( 4) H   4           s( 17.86%)p 4.54( 81.15%)d 0.06(  0.99%)
                                           -0.0150  0.3568  0.2177  0.0610 -0.6274
                                            0.0454 -0.0150 -0.5802  0.2795 -0.0297
                                           -0.0000 -0.0000 -0.0000  0.0662 -0.0457
                                           -0.0000 -0.0000 -0.0000 -0.0000  0.0304
                                            0.0344  0.0345  0.0095
   128. (0.00096) RY*( 5) H   4           s( 30.68%)p 1.88( 57.81%)d 0.38( 11.51%)
                                           -0.0128 -0.2194  0.4581 -0.2207  0.1014
                                            0.3240 -0.0508  0.2493  0.6240 -0.0934
                                            0.0000  0.0000  0.0000 -0.1594 -0.0241
                                            0.0000  0.0000  0.0000  0.0000  0.1899
                                            0.1225  0.1816  0.0709
   129. (0.00041) RY*( 6) H   4           s(  0.98%)p91.34( 89.60%)d 9.60(  9.42%)
                                            0.0007  0.0650  0.0710 -0.0233 -0.0134
                                            0.8723 -0.0026 -0.0360 -0.3315  0.1538
                                            0.0000  0.0000  0.0000  0.1342  0.1883
                                            0.0000  0.0000  0.0000  0.0000 -0.0456
                                           -0.0237 -0.1929 -0.0293
   130. (0.00039) RY*( 7) H   4           s(  0.00%)p 1.00( 65.35%)d 0.53( 34.65%)
                                            0.0000  0.0000  0.0000  0.0000  0.0000
                                            0.0000  0.0000  0.0000  0.0000  0.0000
                                           -0.0611  0.7965  0.1238  0.0000  0.0000
                                            0.0695  0.0527  0.5679  0.1280  0.0000
                                            0.0000  0.0000  0.0000
   131. (0.00028) RY*( 8) H   4           s(  0.09%)p99.99(  9.85%)d99.99( 90.05%)
                                           -0.0012  0.0212  0.0219  0.0019 -0.1264
                                            0.0300 -0.1993  0.0146 -0.0347  0.2013
                                           -0.0000 -0.0000 -0.0000 -0.8073  0.0363
                                           -0.0000 -0.0000 -0.0000 -0.0000 -0.4956
                                           -0.0228 -0.0224 -0.0286
   132. (0.00028) RY*( 9) H   4           s(  0.00%)p 1.00( 37.49%)d 1.67( 62.51%)
                                            0.0000  0.0000  0.0000  0.0000  0.0000
                                            0.0000  0.0000  0.0000  0.0000  0.0000
                                            0.1741 -0.5563  0.1873  0.0000  0.0000
                                            0.0837 -0.0189  0.7767 -0.1200  0.0000
                                            0.0000  0.0000  0.0000
   133. (0.00024) RY*(10) H   4           s(  5.86%)p 8.24( 48.25%)d 7.83( 45.89%)
                                            0.0176  0.0321 -0.1134  0.2107 -0.0632
                                            0.1283 -0.1997 -0.0337 -0.3135 -0.5681
                                            0.0000  0.0000  0.0000 -0.3867 -0.0527
                                            0.0000  0.0000  0.0000  0.0000  0.4967
                                            0.1501  0.1482  0.1241
   134. (0.00019) RY*(11) H   4           s(  0.00%)p 1.00(  0.34%)d99.99( 99.66%)
                                            0.0000  0.0000  0.0000  0.0000  0.0000
                                            0.0000  0.0000  0.0000  0.0000  0.0000
                                            0.0043  0.0037 -0.0582  0.0000  0.0000
                                            0.9870 -0.1116 -0.0970 -0.0238  0.0000
                                            0.0000  0.0000  0.0000
   135. (0.00018) RY*(12) H   4           s(  4.68%)p 1.32(  6.17%)d19.04( 89.14%)
                                            0.0072  0.0197  0.1874  0.1060  0.0396
                                            0.0504  0.0022 -0.0025 -0.2359 -0.0447
                                            0.0000  0.0000  0.0000  0.1731  0.0006
                                            0.0000  0.0000  0.0000  0.0000 -0.3165
                                            0.0226  0.8665 -0.0998
   136. (0.00012) RY*(13) H   4           s( 56.18%)p 0.30( 17.10%)d 0.48( 26.72%)
                                            0.0041 -0.0065  0.6686  0.3388 -0.0177
                                           -0.2289  0.0388  0.1131 -0.2512  0.2023
                                            0.0000  0.0000  0.0000 -0.0836  0.2057
                                            0.0000  0.0000  0.0000  0.0000  0.2896
                                           -0.2900 -0.1212 -0.1877
   137. (0.00009) RY*(14) H   4           s( 53.51%)p 0.50( 26.89%)d 0.37( 19.60%)
   138. (0.00008) RY*(15) H   4           s(  0.00%)p 1.00( 26.79%)d 2.73( 73.21%)
   139. (0.00007) RY*(16) H   4           s( 24.55%)p 0.77( 18.83%)d 2.31( 56.62%)
   140. (0.00005) RY*(17) H   4           s( 18.36%)p 1.29( 23.62%)d 3.16( 58.03%)
   141. (0.00003) RY*(18) H   4           s(  2.60%)p26.82( 69.64%)d10.70( 27.77%)
   142. (0.00003) RY*(19) H   4           s(  0.00%)p 1.00(  1.44%)d68.49( 98.56%)
   143. (0.00004) RY*(20) H   4           s(  0.88%)p35.75( 31.37%)d77.23( 67.76%)
   144. (0.00003) RY*(21) H   4           s(  0.00%)p 1.00( 70.38%)d 0.42( 29.62%)
   145. (0.00003) RY*(22) H   4           s(  0.25%)p21.04(  5.32%)d99.99( 94.42%)
   146. (0.02226) BD*( 1) O   1 - H   2  
                ( 27.33%)   0.5228* O   1 s( 21.44%)p 3.64( 78.05%)d 0.02(  0.50%)
                                                  f 0.00(  0.01%)
                                           -0.0002 -0.4630  0.0088  0.0039  0.0017
                                           -0.8820  0.0366 -0.0091  0.0045 -0.0325
                                            0.0076  0.0008  0.0026 -0.0000 -0.0000
                                           -0.0000 -0.0000  0.0167 -0.0040  0.0019
                                           -0.0000 -0.0000 -0.0000 -0.0000 -0.0000
                                           -0.0000 -0.0587  0.0054 -0.0043  0.0341
                                           -0.0012 -0.0000 -0.0000 -0.0000  0.0099
                                           -0.0006  0.0005 -0.0001 -0.0000 -0.0000
                                           -0.0000 -0.0000 -0.0047 -0.0036 -0.0011
                                            0.0005
                ( 72.67%)  -0.8525* H   2 s( 99.84%)p 0.00(  0.15%)d 0.00(  0.00%)
                                           -0.9992 -0.0045 -0.0001  0.0003 -0.0207
                                            0.0314  0.0046  0.0092 -0.0018  0.0005
                                           -0.0000 -0.0000 -0.0000  0.0000 -0.0028
                                           -0.0000 -0.0000 -0.0000 -0.0000 -0.0015
                                           -0.0031  0.0027  0.0022
   147. (0.16146) BD*( 1) O   1 - H   4  
                ( 20.42%)   0.4519* O   1 s( 19.05%)p 4.23( 80.60%)d 0.02(  0.34%)
                                                  f 0.00(  0.01%)
                                            0.0003  0.4365  0.0029 -0.0006  0.0004
                                           -0.1944  0.0156 -0.0020  0.0017 -0.8763
                                           -0.0021 -0.0042  0.0037 -0.0000 -0.0000
                                           -0.0000 -0.0000 -0.0109  0.0024 -0.0014
                                           -0.0000 -0.0000 -0.0000 -0.0000 -0.0000
                                           -0.0000 -0.0473  0.0059 -0.0002 -0.0312
                                            0.0039  0.0013 -0.0000 -0.0000  0.0017
                                            0.0001  0.0093 -0.0019 -0.0000 -0.0000
                                           -0.0000 -0.0000  0.0031  0.0004  0.0019
                                           -0.0002
                ( 79.58%)  -0.8921* H   4 s( 99.86%)p 0.00(  0.14%)d 0.00(  0.00%)
                                            0.9985  0.0392  0.0057 -0.0036  0.0186
                                            0.0045  0.0019 -0.0066  0.0294  0.0112
                                           -0.0000 -0.0000 -0.0000 -0.0012 -0.0010
                                           -0.0000 -0.0000 -0.0000 -0.0000 -0.0013
                                           -0.0021 -0.0029 -0.0014


 NHO Directionality and "Bond Bending" (deviations from line of nuclear centers)

         [Thresholds for printing:  angular deviation  >  1.0 degree]
                                    hybrid p-character > 25.0%
                                    orbital occupancy  >  0.10e

                                Line of Centers        Hybrid 1              Hybrid 2
                                ---------------  -------------------   ------------------
                NBO               Theta   Phi    Theta   Phi    Dev    Theta   Phi    Dev
 ========================================================================================
     1. BD (   1) O   1 - H   2    90.0    0.0    90.0    1.4   1.4      --     --    --
    13. LP (   1) O   1             --     --     90.0  131.2   --       --     --    --
    14. LP (   2) O   1             --     --      0.0    0.0   --       --     --    --
    16. LP (   2) I   3             --     --      0.0    0.0   --       --     --    --
    17. LP (   3) I   3             --     --     90.0  168.0   --       --     --    --
    18. LP (   4) I   3             --     --     90.0   77.9   --       --     --    --


 Natural Bond Orbitals (Summary):

           NBO                  Occupancy  
 -----------------------------------------------
 Molecular unit  1  (H2O)
     1. BD (   1) O   1 - H   2          1.96371
     2. BD (   1) O   1 - H   4          1.95700
     3. CR (   1) O   1                  1.99971
    13. LP (   1) O   1                  1.96902
    14. LP (   2) O   1                  1.95804
    19. RY*(   1) O   1                  0.02188
    20. RY*(   2) O   1                  0.01682
    21. RY*(   3) O   1                  0.00832
    22. RY*(   4) O   1                  0.00652
    23. RY*(   5) O   1                  0.00635
    24. RY*(   6) O   1                  0.00594
    25. RY*(   7) O   1                  0.00580
    26. RY*(   8) O   1                  0.00467
    27. RY*(   9) O   1                  0.00240
    28. RY*(  10) O   1                  0.00066
    29. RY*(  11) O   1                  0.00056
    30. RY*(  12) O   1                  0.00053
    31. RY*(  13) O   1                  0.00050
    32. RY*(  14) O   1                  0.00045
    33. RY*(  15) O   1                  0.00045
    34. RY*(  16) O   1                  0.00045
    35. RY*(  17) O   1                  0.00044
    36. RY*(  18) O   1                  0.00043
    37. RY*(  19) O   1                  0.00043
    38. RY*(  20) O   1                  0.00040
    39. RY*(  21) O   1                  0.00040
    40. RY*(  22) O   1                  0.00039
    41. RY*(  23) O   1                  0.00032
    42. RY*(  24) O   1                  0.00032
    43. RY*(  25) O   1                  0.00024
    44. RY*(  26) O   1                  0.00015
    45. RY*(  27) O   1                  0.00008
    46. RY*(  28) O   1                  0.00008
    47. RY*(  29) O   1                  0.00008
    48. RY*(  30) O   1                  0.00007
    49. RY*(  31) O   1                  0.00008
    50. RY*(  32) O   1                  0.00007
    51. RY*(  33) O   1                  0.00007
    52. RY*(  34) O   1                  0.00007
    53. RY*(  35) O   1                  0.00005
    54. RY*(  36) O   1                  0.00005
    55. RY*(  37) O   1                  0.00005
    56. RY*(  38) O   1                  0.00002
    57. RY*(  39) O   1                  0.00003
    58. RY*(  40) O   1                  0.00001
    59. RY*(  41) O   1                 -0.00012
    60. RY*(   1) H   2                  0.00449
    61. RY*(   2) H   2                  0.00232
    62. RY*(   3) H   2                  0.00222
    63. RY*(   4) H   2                  0.00131
    64. RY*(   5) H   2                  0.00029
    65. RY*(   6) H   2                  0.00020
    66. RY*(   7) H   2                  0.00019
    67. RY*(   8) H   2                  0.00014
    68. RY*(   9) H   2                  0.00011
    69. RY*(  10) H   2                  0.00012
    70. RY*(  11) H   2                  0.00011
    71. RY*(  12) H   2                  0.00009
    72. RY*(  13) H   2                  0.00007
    73. RY*(  14) H   2                  0.00007
    74. RY*(  15) H   2                  0.00004
    75. RY*(  16) H   2                  0.00004
    76. RY*(  17) H   2                  0.00003
    77. RY*(  18) H   2                  0.00004
    78. RY*(  19) H   2                  0.00002
    79. RY*(  20) H   2                  0.00001
    80. RY*(  21) H   2                  0.00002
    81. RY*(  22) H   2                  0.00002
   124. RY*(   1) H   4                  0.00934
   125. RY*(   2) H   4                  0.00406
   126. RY*(   3) H   4                  0.00375
   127. RY*(   4) H   4                  0.00297
   128. RY*(   5) H   4                  0.00096
   129. RY*(   6) H   4                  0.00041
   130. RY*(   7) H   4                  0.00039
   131. RY*(   8) H   4                  0.00028
   132. RY*(   9) H   4                  0.00028
   133. RY*(  10) H   4                  0.00024
   134. RY*(  11) H   4                  0.00019
   135. RY*(  12) H   4                  0.00018
   136. RY*(  13) H   4                  0.00012
   137. RY*(  14) H   4                  0.00009
   138. RY*(  15) H   4                  0.00008
   139. RY*(  16) H   4                  0.00007
   140. RY*(  17) H   4                  0.00005
   141. RY*(  18) H   4                  0.00003
   142. RY*(  19) H   4                  0.00003
   143. RY*(  20) H   4                  0.00004
   144. RY*(  21) H   4                  0.00003
   145. RY*(  22) H   4                  0.00003
   146. BD*(   1) O   1 - H   2          0.02226
   147. BD*(   1) O   1 - H   4          0.16146
       -------------------------------
              Total Lewis    9.84747  ( 96.9881%)
        Valence non-Lewis    0.18371  (  1.8094%)
        Rydberg non-Lewis    0.12209  (  1.2025%)
       -------------------------------
            Total unit  1   10.15328  (100.0000%)
           Charge unit  1   -0.15328

 Molecular unit  2  (I)
     4. CR (   1) I   3                  1.99982
     5. CR (   2) I   3                  2.00000
     6. CR (   3) I   3                  1.99980
     7. CR (   4) I   3                  2.00001
     8. CR (   5) I   3                  1.99671
     9. CR (   6) I   3                  1.99678
    10. CR (   7) I   3                  1.99675
    11. CR (   8) I   3                  1.99659
    12. CR (   9) I   3                  1.99671
    15. LP (   1) I   3                  1.97810
    16. LP (   2) I   3                  1.95178
    17. LP (   3) I   3                  1.95156
    18. LP (   4) I   3                  1.81875
    82. RY*(   1) I   3                  0.01999
    83. RY*(   2) I   3                  0.01997
    84. RY*(   3) I   3                  0.01994
    85. RY*(   4) I   3                  0.01990
    86. RY*(   5) I   3                  0.01889
    87. RY*(   6) I   3                  0.01063
    88. RY*(   7) I   3                  0.01059
    89. RY*(   8) I   3                  0.00864
    90. RY*(   9) I   3                  0.00289
    91. RY*(  10) I   3                  0.00275
    92. RY*(  11) I   3                  0.00276
    93. RY*(  12) I   3                  0.00276
    94. RY*(  13) I   3                  0.00276
    95. RY*(  14) I   3                  0.00267
    96. RY*(  15) I   3                  0.00268
    97. RY*(  16) I   3                  0.00250
    98. RY*(  17) I   3                  0.00164
    99. RY*(  18) I   3                  0.00164
   100. RY*(  19) I   3                  0.00130
   101. RY*(  20) I   3                  0.00127
   102. RY*(  21) I   3                  0.00106
   103. RY*(  22) I   3                  0.00072
   104. RY*(  23) I   3                  0.00072
   105. RY*(  24) I   3                  0.00062
   106. RY*(  25) I   3                  0.00043
   107. RY*(  26) I   3                  0.00043
   108. RY*(  27) I   3                  0.00042
   109. RY*(  28) I   3                  0.00042
   110. RY*(  29) I   3                  0.00042
   111. RY*(  30) I   3                  0.00037
   112. RY*(  31) I   3                  0.00037
   113. RY*(  32) I   3                  0.00030
   114. RY*(  33) I   3                  0.00015
   115. RY*(  34) I   3                  0.00015
   116. RY*(  35) I   3                  0.00012
   117. RY*(  36) I   3                  0.00013
   118. RY*(  37) I   3                  0.00010
   119. RY*(  38) I   3                  0.00007
   120. RY*(  39) I   3                  0.00008
   121. RY*(  40) I   3                  0.00007
   122. RY*(  41) I   3                  0.00005
   123. RY*(  42) I   3                  0.00000
       -------------------------------
              Total Lewis   53.68338  ( 99.6967%)
        Valence non-Lewis    0.00000  (  0.0000%)
        Rydberg non-Lewis    0.16334  (  0.3033%)
       -------------------------------
            Total unit  2   53.84672  (100.0000%)
           Charge unit  2   -0.84672
 Leave Link  607 at Tue Oct 26 13:21:53 2021, MaxMem= 16106127360 cpu:              75.2 elap:               2.7
 (Enter /sw/contrib/gaussian/g16/B01/g16/l9999.exe)
 1\1\GINC-N2097\SP\RMP2-FC\Gen\H2I1O1(1-)\CGAVINH\26-Oct-2021\0\\#p pop
 =NBO SP NoSymm mp2/gen Pseudo=read density=current\\title\\-1,1\O\X,1,
 10.\H,1,0.96090774,2,90.\I,1,3.50850138,2,90.,3,101.85832019,0\H,1,1.2
 ,2,90.,3,101.85832019,0\\Version=ES64L-G16RevB.01\HF=-370.7829994\MP2=
 -371.2921899\RMSD=3.587e-09\Dipole=0.5622222,0.1464632,0.\Quadrupole=1
 1.5069366,-22.4920454,10.9851088,-6.6734435,0.,0.\PG=CS [SG(H2I1O1)]\\
 @


 TIME GOES, YOU SAY?  AH NO!
 ALAS, TIME STAYS, WE GO.
    -- A. DOBSON (1840-1921)
 Job cpu time:       0 days  0 hours  4 minutes 17.0 seconds.
 Elapsed time:       0 days  0 hours  0 minutes 11.8 seconds.
 File lengths (MBytes):  RWF=     11 Int=      0 D2E=      0 Chk=      8 Scr=      1
 Normal termination of Gaussian 16 at Tue Oct 26 13:21:54 2021.
