 Entering Gaussian System, Link 0=g16
 Input=ihod_rOH_145_sp.gjf
 Output=ihod_rOH_145_sp.log
 Initial command:
 /sw/contrib/gaussian/g16/B01/g16/l1.exe "/scr/Gau-29733.inp" -scrdir="/scr/"
 Entering Link 1 = /sw/contrib/gaussian/g16/B01/g16/l1.exe PID=     29734.
  
 Copyright (c) 1988-2017, Gaussian, Inc.  All Rights Reserved.
  
 This is part of the Gaussian(R) 16 program.  It is based on
 the Gaussian(R) 09 system (copyright 2009, Gaussian, Inc.),
 the Gaussian(R) 03 system (copyright 2003, Gaussian, Inc.),
 the Gaussian(R) 98 system (copyright 1998, Gaussian, Inc.),
 the Gaussian(R) 94 system (copyright 1995, Gaussian, Inc.),
 the Gaussian 92(TM) system (copyright 1992, Gaussian, Inc.),
 the Gaussian 90(TM) system (copyright 1990, Gaussian, Inc.),
 the Gaussian 88(TM) system (copyright 1988, Gaussian, Inc.),
 the Gaussian 86(TM) system (copyright 1986, Carnegie Mellon
 University), and the Gaussian 82(TM) system (copyright 1983,
 Carnegie Mellon University). Gaussian is a federally registered
 trademark of Gaussian, Inc.
  
 This software contains proprietary and confidential information,
 including trade secrets, belonging to Gaussian, Inc.
  
 This software is provided under written license and may be
 used, copied, transmitted, or stored only in accord with that
 written license.
  
 The following legend is applicable only to US Government
 contracts under FAR:
  
                    RESTRICTED RIGHTS LEGEND
  
 Use, reproduction and disclosure by the US Government is
 subject to restrictions as set forth in subparagraphs (a)
 and (c) of the Commercial Computer Software - Restricted
 Rights clause in FAR 52.227-19.
  
 Gaussian, Inc.
 340 Quinnipiac St., Bldg. 40, Wallingford CT 06492
  
  
 ---------------------------------------------------------------
 Warning -- This program may not be used in any manner that
 competes with the business of Gaussian, Inc. or will provide
 assistance to any competitor of Gaussian, Inc.  The licensee
 of this program is prohibited from giving any competitor of
 Gaussian, Inc. access to this program.  By using this program,
 the user acknowledges that Gaussian, Inc. is engaged in the
 business of creating and licensing software in the field of
 computational chemistry and represents and warrants to the
 licensee that it is not a competitor of Gaussian, Inc. and that
 it will not use this program in any manner prohibited above.
 ---------------------------------------------------------------
  

 Cite this work as:
 Gaussian 16, Revision B.01,
 M. J. Frisch, G. W. Trucks, H. B. Schlegel, G. E. Scuseria, 
 M. A. Robb, J. R. Cheeseman, G. Scalmani, V. Barone, 
 G. A. Petersson, H. Nakatsuji, X. Li, M. Caricato, A. V. Marenich, 
 J. Bloino, B. G. Janesko, R. Gomperts, B. Mennucci, H. P. Hratchian, 
 J. V. Ortiz, A. F. Izmaylov, J. L. Sonnenberg, D. Williams-Young, 
 F. Ding, F. Lipparini, F. Egidi, J. Goings, B. Peng, A. Petrone, 
 T. Henderson, D. Ranasinghe, V. G. Zakrzewski, J. Gao, N. Rega, 
 G. Zheng, W. Liang, M. Hada, M. Ehara, K. Toyota, R. Fukuda, 
 J. Hasegawa, M. Ishida, T. Nakajima, Y. Honda, O. Kitao, H. Nakai, 
 T. Vreven, K. Throssell, J. A. Montgomery, Jr., J. E. Peralta, 
 F. Ogliaro, M. J. Bearpark, J. J. Heyd, E. N. Brothers, K. N. Kudin, 
 V. N. Staroverov, T. A. Keith, R. Kobayashi, J. Normand, 
 K. Raghavachari, A. P. Rendell, J. C. Burant, S. S. Iyengar, 
 J. Tomasi, M. Cossi, J. M. Millam, M. Klene, C. Adamo, R. Cammi, 
 J. W. Ochterski, R. L. Martin, K. Morokuma, O. Farkas, 
 J. B. Foresman, and D. J. Fox, Gaussian, Inc., Wallingford CT, 2016.
 
 ******************************************
 Gaussian 16:  ES64L-G16RevB.01 20-Dec-2017
                26-Oct-2021 
 ******************************************
 %nproc=28
 Will use up to   28 processors via shared memory.
 %mem=120GB
 %chk=/gscratch/ilahie/mccoygrp/coire_hocl/rOH_s_oop_0/ihod/ihod_rOH_145.chk
 --------------------------------------------------------
 #p pop=NBO SP NoSymm mp2/gen Pseudo=read density=current
 --------------------------------------------------------
 1/30=1,38=1,172=1/1;
 2/12=2,15=1,17=6,18=5,40=1/2;
 3/5=7,11=9,16=1,17=8,25=1,30=1,71=1/1,2,3;
 4//1;
 5/5=2,38=5/2;
 8/6=4,10=1/1;
 9/15=1,16=-3/6;
 10/5=1,13=10,31=1/2;
 6/7=2,8=2,9=2,10=2,22=-1,40=1/1,7;
 99/5=1,9=1/99;
 Leave Link    1 at Tue Oct 26 13:22:42 2021, MaxMem= 16106127360 cpu:               2.5 elap:               0.1
 (Enter /sw/contrib/gaussian/g16/B01/g16/l101.exe)
 -----
 title
 -----
 Symbolic Z-matrix:
 Charge = -1 Multiplicity = 1
 O
 X                    1     10. 
 H(iso=2)             1    r1       2     90. 
 I                    1    r2       2     90.      3    a1       0
 H                    1    r3       2    oop      3    a1       0
       Variables:
  r1                    0.96091                  
  r2                    3.5085                   
  r3                    1.45                     
  a1                  101.85832                  
  OOP                  90.                       
 
 ITRead=  0  0  0  0
 MicOpt= -1 -1 -1 -1
 NAtoms=      4 NQM=        4 NQMF=       0 NMMI=      0 NMMIF=      0
                NMic=       0 NMicF=      0.
                    Isotopes and Nuclear Properties:
 (Nuclear quadrupole moments (NQMom) in fm**2, nuclear magnetic moments (NMagM)
  in nuclear magnetons)

  Atom         1           2           3           4
 IAtWgt=          16           2         127           1
 AtmWgt=  15.9949146   2.0141018 126.9004000   1.0078250
 NucSpn=           0           2           5           1
 AtZEff=  -0.0000000  -0.0000000  -0.0000000  -0.0000000
 NQMom=    0.0000000   0.2860000 -71.0000000   0.0000000
 NMagM=    0.0000000   0.8574380   2.8132800   2.7928460
 AtZNuc=   8.0000000   1.0000000  53.0000000   1.0000000
 Leave Link  101 at Tue Oct 26 13:22:42 2021, MaxMem= 16106127360 cpu:               3.1 elap:               0.1
 (Enter /sw/contrib/gaussian/g16/B01/g16/l202.exe)
                          Input orientation:                          
 ---------------------------------------------------------------------
 Center     Atomic      Atomic             Coordinates (Angstroms)
 Number     Number       Type             X           Y           Z
 ---------------------------------------------------------------------
      1          8           0        0.000000    0.000000    0.000000
      2          1           0        0.960908    0.000000    0.000000
      3         53           0       -0.720970   -3.433626    0.000000
      4          1           0       -0.297964   -1.419055    0.000000
 ---------------------------------------------------------------------
                    Distance matrix (angstroms):
                    1          2          3          4
     1  O    0.000000
     2  H    0.960908   0.000000
     3  I    3.508501   3.823414   0.000000
     4  H    1.450000   1.896965   2.058501   0.000000
 Symmetry turned off by external request.
 Stoichiometry    H2IO(1-)
 Framework group  CS[SG(H2IO)]
 Deg. of freedom     5
 Full point group                 CS      NOp   2
 Rotational constants (GHZ):         323.0844402           2.5335762           2.5138629
 Leave Link  202 at Tue Oct 26 13:22:42 2021, MaxMem= 16106127360 cpu:               0.3 elap:               0.0
 (Enter /sw/contrib/gaussian/g16/B01/g16/l301.exe)
 General basis read from cards:  (5D, 7F)
 Centers:       1      2      4
 aug-cc-pVTZ
 ****
 Centers:       3
 S 11 1.00
     Exponent=  5.5465000000D+03 Coefficients=  1.5600000000D-04
     Exponent=  8.3821400000D+02 Coefficients=  9.8600000000D-04
     Exponent=  1.8218700000D+02 Coefficients=  2.7920000000D-03
     Exponent=  3.1212300000D+01 Coefficients= -4.3251000000D-02
     Exponent=  1.9531400000D+01 Coefficients=  2.3413400000D-01
     Exponent=  8.2409900000D+00 Coefficients= -7.5094300000D-01
     Exponent=  2.1945500000D+00 Coefficients=  8.8296800000D-01
     Exponent=  1.1091100000D+00 Coefficients=  4.6206100000D-01
     Exponent=  3.7464100000D-01 Coefficients=  2.2286000000D-02
     Exponent=  1.7708000000D-01 Coefficients= -4.3530000000D-03
     Exponent=  8.1061000000D-02 Coefficients=  1.1020000000D-03
 S 11 1.00
     Exponent=  5.5465000000D+03 Coefficients= -7.3000000000D-05
     Exponent=  8.3821400000D+02 Coefficients= -5.0800000000D-04
     Exponent=  1.8218700000D+02 Coefficients= -1.1580000000D-03
     Exponent=  3.1212300000D+01 Coefficients=  1.2193000000D-02
     Exponent=  1.9531400000D+01 Coefficients= -8.7854000000D-02
     Exponent=  8.2409900000D+00 Coefficients=  3.3820000000D-01
     Exponent=  2.1945500000D+00 Coefficients= -5.7655000000D-01
     Exponent=  1.1091100000D+00 Coefficients= -4.0929800000D-01
     Exponent=  3.7464100000D-01 Coefficients=  5.6745900000D-01
     Exponent=  1.7708000000D-01 Coefficients=  6.1248900000D-01
     Exponent=  8.1061000000D-02 Coefficients=  1.4323100000D-01
 S 1 1.00
     Exponent=  3.7464100000D-01 Coefficients=  1.0000000000D+00
 S 1 1.00
     Exponent=  1.7708000000D-01 Coefficients=  1.0000000000D+00
 S 1 1.00
     Exponent=  1.0010000000D-01 Coefficients=  1.0000000000D+00
 S 1 1.00
     Exponent=  4.1200000000D-02 Coefficients=  1.0000000000D+00
 P 9 1.00
     Exponent=  1.8898800000D+02 Coefficients=  5.8500000000D-04
     Exponent=  2.1286800000D+01 Coefficients=  3.6923000000D-02
     Exponent=  1.0039600000D+01 Coefficients= -2.3532400000D-01
     Exponent=  3.4518000000D+00 Coefficients=  3.4148300000D-01
     Exponent=  1.9745600000D+00 Coefficients=  5.3478800000D-01
     Exponent=  1.0242000000D+00 Coefficients=  2.6514100000D-01
     Exponent=  4.4943700000D-01 Coefficients=  2.5787000000D-02
     Exponent=  1.8664800000D-01 Coefficients=  5.2200000000D-04
     Exponent=  7.3481000000D-02 Coefficients=  6.0600000000D-04
 P 9 1.00
     Exponent=  1.8898800000D+02 Coefficients= -2.5600000000D-04
     Exponent=  2.1286800000D+01 Coefficients= -1.1682000000D-02
     Exponent=  1.0039600000D+01 Coefficients=  8.3192000000D-02
     Exponent=  3.4518000000D+00 Coefficients= -1.5697000000D-01
     Exponent=  1.9745600000D+00 Coefficients= -2.2451800000D-01
     Exponent=  1.0242000000D+00 Coefficients= -1.1445100000D-01
     Exponent=  4.4943700000D-01 Coefficients=  3.7535600000D-01
     Exponent=  1.8664800000D-01 Coefficients=  5.7513600000D-01
     Exponent=  7.3481000000D-02 Coefficients=  2.4591700000D-01
 P 1 1.00
     Exponent=  5.9810000000D-01 Coefficients=  1.0000000000D+00
 P 1 1.00
     Exponent=  9.6180000000D-02 Coefficients=  1.0000000000D+00
 P 1 1.00
     Exponent=  3.5900000000D-02 Coefficients=  1.0000000000D+00
 D 9 1.00
     Exponent=  1.3266200000D+02 Coefficients=  5.7200000000D-04
     Exponent=  3.7605400000D+01 Coefficients=  4.4020000000D-03
     Exponent=  1.0389100000D+01 Coefficients= -4.0922000000D-02
     Exponent=  6.4901700000D+00 Coefficients=  9.9661000000D-02
     Exponent=  3.4545100000D+00 Coefficients=  3.2266300000D-01
     Exponent=  1.8441300000D+00 Coefficients=  4.0034300000D-01
     Exponent=  9.6247800000D-01 Coefficients=  2.6830600000D-01
     Exponent=  4.7285300000D-01 Coefficients=  8.4847000000D-02
     Exponent=  1.9320000000D-01 Coefficients=  7.6320000000D-03
 D 1 1.00
     Exponent=  4.7285300000D-01 Coefficients=  1.0000000000D+00
 D 1 1.00
     Exponent=  1.9320000000D-01 Coefficients=  1.0000000000D+00
 D 1 1.00
     Exponent=  7.8200000000D-02 Coefficients=  1.0000000000D+00
 F 1 1.00
     Exponent=  4.0640000000D-01 Coefficients=  1.0000000000D+00
 F 1 1.00
     Exponent=  1.8480000000D-01 Coefficients=  1.0000000000D+00
 ****
 ======================================================================================================
                                       Pseudopotential Parameters
 ======================================================================================================
  Center     Atomic      Valence      Angular      Power
  Number     Number     Electrons     Momentum     of R      Exponent        Coefficient   SO-Coeffient
 ======================================================================================================
    1          8
                                   No pseudopotential on this center.
    2          1
                                   No pseudopotential on this center.
    3         53           25
                                      G and up 
                                                     2        1.0000000        0.00000000    0.00000000
                                      S - G
                                                     2       40.0333760       49.98964900    0.00000000
                                                     2       17.3005760      281.00655600    0.00000000
                                                     2        8.8517200       61.41673900    0.00000000
                                      P - G
                                                     2       15.7201410       67.41623900    0.00000000
                                                     2       15.2082220      134.80769600    0.00000000
                                                     2        8.2941860       14.56654800    0.00000000
                                                     2        7.7539490       28.96842200    0.00000000
                                      D - G
                                                     2       13.8177510       35.53875600    0.00000000
                                                     2       13.5878050       53.33975900    0.00000000
                                                     2        6.9476300        9.71646600    0.00000000
                                                     2        6.9600990       14.97750000    0.00000000
                                      F - G
                                                     2       18.5229500      -20.17661800    0.00000000
                                                     2       18.2510350      -26.08807700    0.00000000
                                                     2        7.5579010       -0.22043400    0.00000000
                                                     2        7.5974040       -0.22164600    0.00000000
    4          1
                                   No pseudopotential on this center.
 ======================================================================================================
 Ernie: Thresh=  0.10000D-02 Tol=  0.10000D-05 Strict=F.
 Ernie:  10 primitive shells out of 113 were deleted.
   147 basis functions,   296 primitive gaussians,   170 cartesian basis functions
    18 alpha electrons       18 beta electrons
       nuclear repulsion energy        47.6564675000 Hartrees.
 IExCor=    0 DFT=F Ex=HF Corr=None ExCW=0 ScaHFX=  1.000000
 ScaDFX=  1.000000  1.000000  1.000000  1.000000 ScalE2=  1.000000  1.000000
 IRadAn=      5 IRanWt=     -1 IRanGd=            0 ICorTp=0 IEmpDi=  4
 NAtoms=    4 NActive=    4 NUniq=    4 SFac= 1.00D+00 NAtFMM=   60 NAOKFM=F Big=F
 Integral buffers will be    131072 words long.
 Raffenetti 1 integral format.
 Two-electron integral symmetry is turned off.
 Leave Link  301 at Tue Oct 26 13:22:43 2021, MaxMem= 16106127360 cpu:               4.9 elap:               0.2
 (Enter /sw/contrib/gaussian/g16/B01/g16/l302.exe)
 NPDir=0 NMtPBC=     1 NCelOv=     1 NCel=       1 NClECP=     1 NCelD=      1
         NCelK=      1 NCelE2=     1 NClLst=     1 CellRange=     0.0.
 One-electron integrals computed using PRISM.
   1 Symmetry operations used in ECPInt.
 ECPInt:  NShTT=    1225 NPrTT=    5557 LenC2=    1226 LenP2D=    4936.
 LDataN:  DoStor=T MaxTD1= 7 Len=  274
 NBasis=   147 RedAO= T EigKep=  2.25D-04  NBF=   147
 NBsUse=   147 1.00D-06 EigRej= -1.00D+00 NBFU=   147
 Leave Link  302 at Tue Oct 26 13:22:43 2021, MaxMem= 16106127360 cpu:               7.0 elap:               0.3
 (Enter /sw/contrib/gaussian/g16/B01/g16/l303.exe)
 DipDrv:  MaxL=1.
 Leave Link  303 at Tue Oct 26 13:22:43 2021, MaxMem= 16106127360 cpu:               0.8 elap:               0.1
 (Enter /sw/contrib/gaussian/g16/B01/g16/l401.exe)
 ExpMin= 2.53D-02 ExpMax= 1.53D+04 ExpMxC= 5.22D+02 IAcc=3 IRadAn=         5 AccDes= 0.00D+00
 Harris functional with IExCor=  205 and IRadAn=       5 diagonalized for initial guess.
 HarFok:  IExCor=  205 AccDes= 0.00D+00 IRadAn=         5 IDoV= 1 UseB2=F ITyADJ=14
 ICtDFT=  3500011 ScaDFX=  1.000000  1.000000  1.000000  1.000000
 Defaulting to unpruned grid for atomic number  53.
 FoFCou: FMM=F IPFlag=           0 FMFlag=      100000 FMFlg1=           0
         NFxFlg=           0 DoJE=T BraDBF=F KetDBF=T FulRan=T
         wScrn=  0.000000 ICntrl=       500 IOpCl=  0 I1Cent=   200000004 NGrid=           0
         NMat0=    1 NMatS0=      1 NMatT0=    0 NMatD0=    1 NMtDS0=    0 NMtDT0=    0
 Symmetry not used in FoFCou.
 Harris En= -372.646494454018    
 JPrj=0 DoOrth=F DoCkMO=F.
 Leave Link  401 at Tue Oct 26 13:22:43 2021, MaxMem= 16106127360 cpu:               6.5 elap:               0.3
 (Enter /sw/contrib/gaussian/g16/B01/g16/l502.exe)
 Keep R1 ints in memory in canonical form, NReq=117069243.
 FoFCou: FMM=F IPFlag=           0 FMFlag=           0 FMFlg1=           0
         NFxFlg=           0 DoJE=F BraDBF=F KetDBF=F FulRan=T
         wScrn=  0.000000 ICntrl=       600 IOpCl=  0 I1Cent=           0 NGrid=           0
         NMat0=    1 NMatS0=  10878 NMatT0=    0 NMatD0=    1 NMtDS0=    0 NMtDT0=    0
 Symmetry not used in FoFCou.
 Two-electron integral symmetry not used.
 Closed shell SCF:
 Using DIIS extrapolation, IDIIS=  1040.
 NGot= 16106127360 LenX= 16046892803 LenY= 16046863462
 Requested convergence on RMS density matrix=1.00D-08 within 128 cycles.
 Requested convergence on MAX density matrix=1.00D-06.
 Requested convergence on             energy=1.00D-06.
 No special actions if energy rises.

 Cycle   1  Pass 1  IDiag  1:
 E= -370.524073304248    
 DIIS: error= 3.44D-02 at cycle   1 NSaved=   1.
 NSaved= 1 IEnMin= 1 EnMin= -370.524073304248     IErMin= 1 ErrMin= 3.44D-02
 ErrMax= 3.44D-02  0.00D+00 EMaxC= 1.00D-01 BMatC= 4.38D-01 BMatP= 4.38D-01
 IDIUse=3 WtCom= 6.56D-01 WtEn= 3.44D-01
 Coeff-Com:  0.100D+01
 Coeff-En:   0.100D+01
 Coeff:      0.100D+01
 Gap=     0.545 Goal=   None    Shift=    0.000
 GapD=    0.545 DampG=2.000 DampE=0.500 DampFc=1.0000 IDamp=-1.
 RMSDP=4.75D-03 MaxDP=1.56D-01              OVMax= 2.42D-01

 Cycle   2  Pass 1  IDiag  1:
 E= -370.613000495599     Delta-E=       -0.088927191351 Rises=F Damp=F
 DIIS: error= 3.44D-02 at cycle   2 NSaved=   2.
 NSaved= 2 IEnMin= 2 EnMin= -370.613000495599     IErMin= 2 ErrMin= 3.44D-02
 ErrMax= 3.44D-02  0.00D+00 EMaxC= 1.00D-01 BMatC= 1.72D-01 BMatP= 4.38D-01
 IDIUse=3 WtCom= 6.56D-01 WtEn= 3.44D-01
 Coeff-Com:  0.365D+00 0.635D+00
 Coeff-En:   0.318D+00 0.682D+00
 Coeff:      0.349D+00 0.651D+00
 Gap=     0.446 Goal=   None    Shift=    0.000
 RMSDP=2.18D-03 MaxDP=8.60D-02 DE=-8.89D-02 OVMax= 1.21D-01

 Cycle   3  Pass 1  IDiag  1:
 E= -370.728370447953     Delta-E=       -0.115369952355 Rises=F Damp=F
 DIIS: error= 7.59D-03 at cycle   3 NSaved=   3.
 NSaved= 3 IEnMin= 3 EnMin= -370.728370447953     IErMin= 3 ErrMin= 7.59D-03
 ErrMax= 7.59D-03  0.00D+00 EMaxC= 1.00D-01 BMatC= 1.11D-02 BMatP= 1.72D-01
 IDIUse=3 WtCom= 9.24D-01 WtEn= 7.59D-02
 Coeff-Com:  0.606D-02 0.196D+00 0.798D+00
 Coeff-En:   0.000D+00 0.000D+00 0.100D+01
 Coeff:      0.560D-02 0.181D+00 0.813D+00
 Gap=     0.318 Goal=   None    Shift=    0.000
 RMSDP=5.67D-04 MaxDP=2.48D-02 DE=-1.15D-01 OVMax= 3.16D-02

 Cycle   4  Pass 1  IDiag  1:
 E= -370.736209667051     Delta-E=       -0.007839219097 Rises=F Damp=F
 DIIS: error= 1.25D-03 at cycle   4 NSaved=   4.
 NSaved= 4 IEnMin= 4 EnMin= -370.736209667051     IErMin= 4 ErrMin= 1.25D-03
 ErrMax= 1.25D-03  0.00D+00 EMaxC= 1.00D-01 BMatC= 2.15D-04 BMatP= 1.11D-02
 IDIUse=3 WtCom= 9.88D-01 WtEn= 1.25D-02
 Coeff-Com: -0.137D-01-0.351D-02 0.123D+00 0.895D+00
 Coeff-En:   0.000D+00 0.000D+00 0.000D+00 0.100D+01
 Coeff:     -0.135D-01-0.347D-02 0.121D+00 0.896D+00
 Gap=     0.321 Goal=   None    Shift=    0.000
 RMSDP=1.44D-04 MaxDP=1.08D-02 DE=-7.84D-03 OVMax= 5.44D-03

 Cycle   5  Pass 1  IDiag  1:
 E= -370.736452995881     Delta-E=       -0.000243328830 Rises=F Damp=F
 DIIS: error= 3.29D-04 at cycle   5 NSaved=   5.
 NSaved= 5 IEnMin= 5 EnMin= -370.736452995881     IErMin= 5 ErrMin= 3.29D-04
 ErrMax= 3.29D-04  0.00D+00 EMaxC= 1.00D-01 BMatC= 1.47D-05 BMatP= 2.15D-04
 IDIUse=3 WtCom= 9.97D-01 WtEn= 3.29D-03
 Coeff-Com:  0.291D-02-0.139D-01-0.721D-01-0.104D+00 0.119D+01
 Coeff-En:   0.000D+00 0.000D+00 0.000D+00 0.000D+00 0.100D+01
 Coeff:      0.290D-02-0.139D-01-0.718D-01-0.103D+00 0.119D+01
 Gap=     0.320 Goal=   None    Shift=    0.000
 RMSDP=8.07D-05 MaxDP=3.26D-03 DE=-2.43D-04 OVMax= 3.80D-03

 Cycle   6  Pass 1  IDiag  1:
 E= -370.736498695735     Delta-E=       -0.000045699853 Rises=F Damp=F
 DIIS: error= 1.56D-04 at cycle   6 NSaved=   6.
 NSaved= 6 IEnMin= 6 EnMin= -370.736498695735     IErMin= 6 ErrMin= 1.56D-04
 ErrMax= 1.56D-04  0.00D+00 EMaxC= 1.00D-01 BMatC= 1.69D-06 BMatP= 1.47D-05
 IDIUse=3 WtCom= 9.98D-01 WtEn= 1.56D-03
 Coeff-Com: -0.277D-04 0.455D-02 0.155D-01-0.660D-01-0.329D+00 0.137D+01
 Coeff-En:   0.000D+00 0.000D+00 0.000D+00 0.000D+00 0.000D+00 0.100D+01
 Coeff:     -0.277D-04 0.455D-02 0.155D-01-0.659D-01-0.328D+00 0.137D+01
 Gap=     0.319 Goal=   None    Shift=    0.000
 RMSDP=3.33D-05 MaxDP=2.00D-03 DE=-4.57D-05 OVMax= 2.05D-03

 Cycle   7  Pass 1  IDiag  1:
 E= -370.736506101616     Delta-E=       -0.000007405882 Rises=F Damp=F
 DIIS: error= 3.52D-05 at cycle   7 NSaved=   7.
 NSaved= 7 IEnMin= 7 EnMin= -370.736506101616     IErMin= 7 ErrMin= 3.52D-05
 ErrMax= 3.52D-05  0.00D+00 EMaxC= 1.00D-01 BMatC= 1.42D-07 BMatP= 1.69D-06
 IDIUse=1 WtCom= 1.00D+00 WtEn= 0.00D+00
 Coeff-Com: -0.282D-03 0.286D-03 0.352D-02 0.278D-01-0.564D-01-0.279D+00
 Coeff-Com:  0.130D+01
 Coeff:     -0.282D-03 0.286D-03 0.352D-02 0.278D-01-0.564D-01-0.279D+00
 Coeff:      0.130D+01
 Gap=     0.318 Goal=   None    Shift=    0.000
 RMSDP=8.25D-06 MaxDP=3.10D-04 DE=-7.41D-06 OVMax= 5.63D-04

 Cycle   8  Pass 1  IDiag  1:
 E= -370.736506747831     Delta-E=       -0.000000646214 Rises=F Damp=F
 DIIS: error= 1.21D-05 at cycle   8 NSaved=   8.
 NSaved= 8 IEnMin= 8 EnMin= -370.736506747831     IErMin= 8 ErrMin= 1.21D-05
 ErrMax= 1.21D-05  0.00D+00 EMaxC= 1.00D-01 BMatC= 1.45D-08 BMatP= 1.42D-07
 IDIUse=1 WtCom= 1.00D+00 WtEn= 0.00D+00
 Coeff-Com:  0.340D-05-0.485D-03-0.112D-02 0.920D-02 0.271D-01-0.156D+00
 Coeff-Com:  0.115D+00 0.101D+01
 Coeff:      0.340D-05-0.485D-03-0.112D-02 0.920D-02 0.271D-01-0.156D+00
 Coeff:      0.115D+00 0.101D+01
 Gap=     0.318 Goal=   None    Shift=    0.000
 RMSDP=1.73D-06 MaxDP=4.68D-05 DE=-6.46D-07 OVMax= 1.38D-04

 Cycle   9  Pass 1  IDiag  1:
 E= -370.736506788638     Delta-E=       -0.000000040807 Rises=F Damp=F
 DIIS: error= 3.73D-06 at cycle   9 NSaved=   9.
 NSaved= 9 IEnMin= 9 EnMin= -370.736506788638     IErMin= 9 ErrMin= 3.73D-06
 ErrMax= 3.73D-06  0.00D+00 EMaxC= 1.00D-01 BMatC= 1.63D-09 BMatP= 1.45D-08
 IDIUse=1 WtCom= 1.00D+00 WtEn= 0.00D+00
 Coeff-Com:  0.188D-04 0.384D-04 0.478D-04-0.490D-02 0.412D-03 0.582D-01
 Coeff-Com: -0.167D+00-0.151D+00 0.126D+01
 Coeff:      0.188D-04 0.384D-04 0.478D-04-0.490D-02 0.412D-03 0.582D-01
 Coeff:     -0.167D+00-0.151D+00 0.126D+01
 Gap=     0.318 Goal=   None    Shift=    0.000
 RMSDP=8.12D-07 MaxDP=2.91D-05 DE=-4.08D-08 OVMax= 3.82D-05

 Cycle  10  Pass 1  IDiag  1:
 E= -370.736506793139     Delta-E=       -0.000000004501 Rises=F Damp=F
 DIIS: error= 6.84D-07 at cycle  10 NSaved=  10.
 NSaved=10 IEnMin=10 EnMin= -370.736506793139     IErMin=10 ErrMin= 6.84D-07
 ErrMax= 6.84D-07  0.00D+00 EMaxC= 1.00D-01 BMatC= 5.91D-11 BMatP= 1.63D-09
 IDIUse=1 WtCom= 1.00D+00 WtEn= 0.00D+00
 Coeff-Com: -0.350D-05 0.162D-04 0.449D-05 0.466D-03-0.110D-02-0.290D-02
 Coeff-Com:  0.259D-01-0.250D-01-0.249D+00 0.125D+01
 Coeff:     -0.350D-05 0.162D-04 0.449D-05 0.466D-03-0.110D-02-0.290D-02
 Coeff:      0.259D-01-0.250D-01-0.249D+00 0.125D+01
 Gap=     0.318 Goal=   None    Shift=    0.000
 RMSDP=1.60D-07 MaxDP=5.28D-06 DE=-4.50D-09 OVMax= 7.71D-06

 Cycle  11  Pass 1  IDiag  1:
 E= -370.736506793321     Delta-E=       -0.000000000183 Rises=F Damp=F
 DIIS: error= 1.86D-07 at cycle  11 NSaved=  11.
 NSaved=11 IEnMin=11 EnMin= -370.736506793321     IErMin=11 ErrMin= 1.86D-07
 ErrMax= 1.86D-07  0.00D+00 EMaxC= 1.00D-01 BMatC= 2.73D-12 BMatP= 5.91D-11
 IDIUse=1 WtCom= 1.00D+00 WtEn= 0.00D+00
 Coeff-Com: -0.337D-06-0.278D-05 0.869D-05 0.126D-03 0.102D-04-0.147D-02
 Coeff-Com:  0.216D-02 0.868D-02 0.136D-03-0.278D+00 0.127D+01
 Coeff:     -0.337D-06-0.278D-05 0.869D-05 0.126D-03 0.102D-04-0.147D-02
 Coeff:      0.216D-02 0.868D-02 0.136D-03-0.278D+00 0.127D+01
 Gap=     0.318 Goal=   None    Shift=    0.000
 RMSDP=2.95D-08 MaxDP=7.54D-07 DE=-1.83D-10 OVMax= 1.63D-06

 Cycle  12  Pass 1  IDiag  1:
 E= -370.736506793331     Delta-E=       -0.000000000010 Rises=F Damp=F
 DIIS: error= 4.66D-08 at cycle  12 NSaved=  12.
 NSaved=12 IEnMin=12 EnMin= -370.736506793331     IErMin=12 ErrMin= 4.66D-08
 ErrMax= 4.66D-08  0.00D+00 EMaxC= 1.00D-01 BMatC= 1.79D-13 BMatP= 2.73D-12
 IDIUse=1 WtCom= 1.00D+00 WtEn= 0.00D+00
 Coeff-Com:  0.278D-06-0.551D-06 0.142D-05-0.449D-04 0.478D-04 0.309D-03
 Coeff-Com: -0.177D-02 0.857D-03 0.167D-01-0.720D-01-0.440D-01 0.110D+01
 Coeff:      0.278D-06-0.551D-06 0.142D-05-0.449D-04 0.478D-04 0.309D-03
 Coeff:     -0.177D-02 0.857D-03 0.167D-01-0.720D-01-0.440D-01 0.110D+01
 Gap=     0.318 Goal=   None    Shift=    0.000
 RMSDP=9.20D-09 MaxDP=3.18D-07 DE=-9.78D-12 OVMax= 3.62D-07

 SCF Done:  E(RHF) =  -370.736506793     A.U. after   12 cycles
            NFock= 12  Conv=0.92D-08     -V/T= 2.9876
 KE= 1.865252997740D+02 PE=-9.085749168037D+02 EE= 3.036566427364D+02
 Leave Link  502 at Tue Oct 26 13:22:45 2021, MaxMem= 16106127360 cpu:              32.8 elap:               2.2
 (Enter /sw/contrib/gaussian/g16/B01/g16/l801.exe)
 ExpMin= 2.53D-02 ExpMax= 1.53D+04 ExpMxC= 5.22D+02 IAcc=3 IRadAn=         5 AccDes= 0.00D+00
 HarFok:  IExCor=  205 AccDes= 0.00D+00 IRadAn=         5 IDoV=-2 UseB2=F ITyADJ=14
 ICtDFT= 12500011 ScaDFX=  1.000000  1.000000  1.000000  1.000000
 Defaulting to unpruned grid for atomic number  53.
 Largest valence mixing into a core orbital is  1.31D-04
 Largest core mixing into a valence orbital is  2.45D-05
 Range of M.O.s used for correlation:     6   147
 NBasis=   147 NAE=    18 NBE=    18 NFC=     5 NFV=     0
 NROrb=    142 NOA=    13 NOB=    13 NVA=   129 NVB=   129

 **** Warning!!: The largest alpha MO coefficient is  0.18418037D+02

 Leave Link  801 at Tue Oct 26 13:22:46 2021, MaxMem= 16106127360 cpu:               2.0 elap:               0.1
 (Enter /sw/contrib/gaussian/g16/B01/g16/l906.exe)
 Frozen-core derivative calculation, NFC=   5 NFV=   0.
 FulOut=F Deriv=T AODrv=F NAtomX=     4
   MMem=         225  MDisk=          13 MDiskD=          13
  W3Min=      449820 MinDsk=      818995 NBas6D=         170
 NBas2D=       14925    NTT=       14535    LW2=    26219120
    MDV= 16105851491 MDiskM=      473642 NBas2p=       14925
 Fully in-core method, ICMem=   303093605.
 IMap=   1   2   3   4   5   6   7   8   9  10  11  12  13  14  15  16  17  18
 JobTyp=1 Pass  1 fully in-core, NPsUse= 28.
 Compute canonical integrals.
 FoFCou: FMM=F IPFlag=           0 FMFlag=           0 FMFlg1=           0
         NFxFlg=           0 DoJE=F BraDBF=F KetDBF=F FulRan=T
         wScrn=  0.000000 ICntrl=       600 IOpCl=  1 I1Cent=           0 NGrid=           0
         NMat0=    1 NMatS0=  14925 NMatT0=    0 NMatD0=    1 NMtDS0=    0 NMtDT0=    0
 Symmetry not used in FoFCou.
 Spin components of T(2) and E(2):
     alpha-alpha T2 =       0.2432697749D-01 E2=     -0.7136146840D-01
     alpha-beta  T2 =       0.1273630913D+00 E2=     -0.3793318537D+00
     beta-beta   T2 =       0.2432697749D-01 E2=     -0.7136146840D-01
 The integrals were generated   1 times.
 ANorm=    0.1084443196D+01
 E2 =    -0.5220547905D+00 EUMP2 =    -0.37125856158380D+03
 Leave Link  906 at Tue Oct 26 13:22:49 2021, MaxMem= 16106127360 cpu:              84.5 elap:               3.1
 (Enter /sw/contrib/gaussian/g16/B01/g16/l1002.exe)
 Minotr:  Closed shell wavefunction.
          Computing MP2/KS-MP2 derivatives.
          Using Z-Vector for PSCF gradient.
          Skipping F1 and S1 gradient terms here.
          Frozen-core window.
          Direct CPHF calculation.
          Differentiating once with respect to electric field.
                with respect to dipole field.
          Electric field/nuclear overlap derivatives assumed to be zero.
          Requested convergence is 1.0D-10 RMS, and 1.0D-09 maximum.
          NewPWx=F KeepS1=T KeepF1=T KeepIn=T MapXYZ=F SortEE=F KeepMc=T.
 Keep R1 ints in memory in canonical form, NReq=117072019.
 FoFCou: FMM=F IPFlag=           0 FMFlag=           0 FMFlg1=           0
         NFxFlg=           0 DoJE=F BraDBF=F KetDBF=F FulRan=T
         wScrn=  0.000000 ICntrl=       600 IOpCl=  0 I1Cent=           0 NGrid=           0
         NMat0=    1 NMatS0=  10878 NMatT0=    0 NMatD0=    1 NMtDS0=    0 NMtDT0=    0
 Symmetry not used in FoFCou.
 Two-electron integral symmetry not used.
          MDV=   16106127360 using IRadAn=       5.
          Solving linear equations separately, MaxMat=       0.
          There are     1 degrees of freedom in the 1st order CPHF.  IDoFFX=0 NUNeed=     1.
 LinEq1:  Iter=  0 NonCon=     1 RMS=3.91D-03 Max=8.61D-02 NDo=     1
 AX will form     1 AO Fock derivatives at one time.
 LinEq1:  Iter=  1 NonCon=     1 RMS=7.07D-04 Max=1.02D-02 NDo=     1
 LinEq1:  Iter=  2 NonCon=     1 RMS=2.73D-04 Max=3.88D-03 NDo=     1
 LinEq1:  Iter=  3 NonCon=     1 RMS=1.10D-04 Max=1.45D-03 NDo=     1
 LinEq1:  Iter=  4 NonCon=     1 RMS=5.80D-05 Max=9.74D-04 NDo=     1
 LinEq1:  Iter=  5 NonCon=     1 RMS=1.02D-05 Max=1.17D-04 NDo=     1
 LinEq1:  Iter=  6 NonCon=     1 RMS=2.11D-06 Max=2.00D-05 NDo=     1
 LinEq1:  Iter=  7 NonCon=     1 RMS=5.36D-07 Max=8.41D-06 NDo=     1
 LinEq1:  Iter=  8 NonCon=     1 RMS=1.56D-07 Max=1.83D-06 NDo=     1
 LinEq1:  Iter=  9 NonCon=     1 RMS=3.52D-08 Max=4.87D-07 NDo=     1
 LinEq1:  Iter= 10 NonCon=     1 RMS=7.02D-09 Max=8.49D-08 NDo=     1
 LinEq1:  Iter= 11 NonCon=     1 RMS=1.20D-09 Max=1.36D-08 NDo=     1
 LinEq1:  Iter= 12 NonCon=     1 RMS=3.11D-10 Max=3.95D-09 NDo=     1
 LinEq1:  Iter= 13 NonCon=     1 RMS=9.41D-11 Max=1.02D-09 NDo=     1
 LinEq1:  Iter= 14 NonCon=     0 RMS=1.50D-11 Max=1.15D-10 NDo=     1
 Linear equations converged to 1.000D-10 1.000D-09 after    14 iterations.
 End of Minotr F.D. properties file   721 does not exist.
 End of Minotr F.D. properties file   722 does not exist.
 End of Minotr F.D. properties file   788 does not exist.
 Leave Link 1002 at Tue Oct 26 13:22:51 2021, MaxMem= 16106127360 cpu:              34.1 elap:               2.5
 (Enter /sw/contrib/gaussian/g16/B01/g16/l601.exe)
 Copying SCF densities to generalized density rwf, IOpCl= 0 IROHF=0.

 **********************************************************************

            Population analysis using the MP2 Density.

 **********************************************************************

 Alpha  occ. eigenvalues --  -20.34186  -7.50269  -5.32958  -5.32732  -5.32727
 Alpha  occ. eigenvalues --   -2.05749  -2.05628  -2.05622  -2.05375  -2.05375
 Alpha  occ. eigenvalues --   -1.06280  -0.66800  -0.41406  -0.33081  -0.26604
 Alpha  occ. eigenvalues --   -0.17463  -0.17303  -0.17259
 Alpha virt. eigenvalues --    0.14570   0.16810   0.22657   0.23911   0.24142
 Alpha virt. eigenvalues --    0.28213   0.30125   0.30965   0.31544   0.34325
 Alpha virt. eigenvalues --    0.35989   0.36082   0.36351   0.38964   0.39500
 Alpha virt. eigenvalues --    0.44076   0.45422   0.46743   0.49304   0.55416
 Alpha virt. eigenvalues --    0.57667   0.62089   0.66156   0.70935   0.75167
 Alpha virt. eigenvalues --    0.75243   0.75815   0.77291   0.77372   0.78387
 Alpha virt. eigenvalues --    0.81543   0.82819   0.84330   0.85889   0.85972
 Alpha virt. eigenvalues --    0.86123   0.87759   0.91867   0.92558   0.94040
 Alpha virt. eigenvalues --    0.95754   0.99710   1.04583   1.08296   1.09589
 Alpha virt. eigenvalues --    1.12537   1.14151   1.14226   1.18662   1.21179
 Alpha virt. eigenvalues --    1.22980   1.24565   1.26452   1.37403   1.37418
 Alpha virt. eigenvalues --    1.49204   1.49945   1.51589   1.57879   1.67325
 Alpha virt. eigenvalues --    1.72086   1.72195   1.72497   1.73116   1.74035
 Alpha virt. eigenvalues --    1.74922   1.76857   1.82285   1.87457   1.91056
 Alpha virt. eigenvalues --    1.98356   2.02541   2.02843   2.03257   2.06328
 Alpha virt. eigenvalues --    2.11368   2.16738   2.33865   2.43596   2.50329
 Alpha virt. eigenvalues --    2.56822   2.56960   2.61534   2.62552   2.73065
 Alpha virt. eigenvalues --    2.78014   2.86546   2.88773   2.98257   3.01518
 Alpha virt. eigenvalues --    3.20559   3.39869   3.40028   3.60152   3.89814
 Alpha virt. eigenvalues --    4.13232   4.14466   4.30414   4.31560   4.35627
 Alpha virt. eigenvalues --    4.39613   4.44024   4.52659   4.55965   4.58396
 Alpha virt. eigenvalues --    4.60888   4.75503   4.81733   5.06766   5.16459
 Alpha virt. eigenvalues --    5.40157   5.52465   5.58491   6.00504   6.51129
 Alpha virt. eigenvalues --    6.91933   7.00795   7.06474   7.11686   7.43510
 Alpha virt. eigenvalues --    7.46818   7.52651   7.54032   7.55345   7.75702
 Alpha virt. eigenvalues --    7.87706   8.47807  14.52437  59.18442
          Condensed to atoms (all electrons):
               1          2          3          4
     1  O    8.403673   0.194053  -0.117879   0.193323
     2  H    0.194053   0.626390  -0.004022   0.033546
     3  I   -0.117879  -0.004022  25.711977  -0.003669
     4  H    0.193323   0.033546  -0.003669   0.667257
 Mulliken charges:
               1
     1  O   -0.673169
     2  H    0.150033
     3  I   -0.586407
     4  H    0.109543
 Sum of Mulliken charges =  -1.00000
 Mulliken charges with hydrogens summed into heavy atoms:
               1
     1  O   -0.413593
     3  I   -0.586407
 Electronic spatial extent (au):  <R**2>=           1228.3438
 Charge=             -1.0000 electrons
 Dipole moment (field-independent basis, Debye):
    X=              3.2039    Y=              9.9288    Z=             -0.0000  Tot=             10.4329
 Quadrupole moment (field-independent basis, Debye-Ang):
   XX=            -40.2821   YY=            -77.8562   ZZ=            -41.3565
   XY=             -7.3148   XZ=              0.0000   YZ=              0.0000
 Traceless Quadrupole moment (field-independent basis, Debye-Ang):
   XX=             12.8829   YY=            -24.6913   ZZ=             11.8084
   XY=             -7.3148   XZ=              0.0000   YZ=              0.0000
 Octapole moment (field-independent basis, Debye-Ang**2):
  XXX=             70.3721  YYY=            460.6747  ZZZ=             -0.0000  XYY=             48.2484
  XXY=            116.7182  XXZ=             -0.0000  XZZ=             22.4982  YZZ=            111.3950
  YYZ=             -0.0000  XYZ=             -0.0000
 Hexadecapole moment (field-independent basis, Debye-Ang**3):
 XXXX=           -169.9112 YYYY=          -2758.5406 ZZZZ=            -70.8659 XXXY=           -242.3269
 XXXZ=              0.0000 YYYX=           -320.9935 YYYZ=              0.0000 ZZZX=              0.0000
 ZZZY=              0.0000 XXYY=           -438.0509 XXZZ=            -40.3498 YYZZ=           -404.4741
 XXYZ=              0.0000 YYXZ=              0.0000 ZZXY=            -79.6309
 N-N= 4.765646749997D+01 E-N=-9.080058216268D+02  KE= 1.867635265888D+02
 No NMR shielding tensors so no spin-rotation constants.
 Leave Link  601 at Tue Oct 26 13:22:52 2021, MaxMem= 16106127360 cpu:               6.9 elap:               0.3
 (Enter /sw/contrib/gaussian/g16/B01/g16/l607.exe)
 ******************************Gaussian NBO Version 3.1******************************
             N A T U R A L   A T O M I C   O R B I T A L   A N D
          N A T U R A L   B O N D   O R B I T A L   A N A L Y S I S
 ******************************Gaussian NBO Version 3.1******************************
       /RESON  / : Allow strongly delocalized NBO set

 Analyzing the MP2 density

 Job title: title                                                           

 Storage needed:     65577 in NPA,     86948 in NBO (********** available)
 GSVD:  LWork=         -15 too small for GESVD, short by       42345 words or       42345 for optimal perf.


 NATURAL POPULATIONS:  Natural atomic orbital occupancies 
                                                          
   NAO  Atom  No  lang   Type(AO)    Occupancy
 --------------------------------------------
     1    O    1  S      Cor( 1S)     1.99972
     2    O    1  S      Val( 2S)     1.80732
     3    O    1  S      Ryd( 3S)     0.00797
     4    O    1  S      Ryd( 4S)     0.00036
     5    O    1  S      Ryd( 5S)     0.00019
     6    O    1  px     Val( 2p)     1.51609
     7    O    1  px     Ryd( 3p)     0.01385
     8    O    1  px     Ryd( 4p)     0.00060
     9    O    1  px     Ryd( 5p)     0.00016
    10    O    1  py     Val( 2p)     1.68634
    11    O    1  py     Ryd( 3p)     0.01536
    12    O    1  py     Ryd( 4p)     0.00058
    13    O    1  py     Ryd( 5p)     0.00011
    14    O    1  pz     Val( 2p)     1.95000
    15    O    1  pz     Ryd( 3p)     0.02587
    16    O    1  pz     Ryd( 4p)     0.00058
    17    O    1  pz     Ryd( 5p)     0.00000
    18    O    1  dxy    Ryd( 3d)     0.00822
    19    O    1  dxy    Ryd( 4d)     0.00051
    20    O    1  dxy    Ryd( 5d)     0.00009
    21    O    1  dxz    Ryd( 3d)     0.00888
    22    O    1  dxz    Ryd( 4d)     0.00053
    23    O    1  dxz    Ryd( 5d)     0.00008
    24    O    1  dyz    Ryd( 3d)     0.00671
    25    O    1  dyz    Ryd( 4d)     0.00059
    26    O    1  dyz    Ryd( 5d)     0.00008
    27    O    1  dx2y2  Ryd( 3d)     0.01105
    28    O    1  dx2y2  Ryd( 4d)     0.00049
    29    O    1  dx2y2  Ryd( 5d)     0.00010
    30    O    1  dz2    Ryd( 3d)     0.00766
    31    O    1  dz2    Ryd( 4d)     0.00060
    32    O    1  dz2    Ryd( 5d)     0.00011
    33    O    1  f(0)   Ryd( 4f)     0.00061
    34    O    1  f(0)   Ryd( 5f)     0.00011
    35    O    1  f(C1)  Ryd( 4f)     0.00056
    36    O    1  f(C1)  Ryd( 5f)     0.00010
    37    O    1  f(S1)  Ryd( 4f)     0.00060
    38    O    1  f(S1)  Ryd( 5f)     0.00013
    39    O    1  f(C2)  Ryd( 4f)     0.00050
    40    O    1  f(C2)  Ryd( 5f)     0.00010
    41    O    1  f(S2)  Ryd( 4f)     0.00047
    42    O    1  f(S2)  Ryd( 5f)     0.00008
    43    O    1  f(C3)  Ryd( 4f)     0.00048
    44    O    1  f(C3)  Ryd( 5f)     0.00013
    45    O    1  f(S3)  Ryd( 4f)     0.00048
    46    O    1  f(S3)  Ryd( 5f)     0.00012

    47    H    2  S      Val( 1S)     0.56464
    48    H    2  S      Ryd( 2S)     0.00262
    49    H    2  S      Ryd( 3S)     0.00021
    50    H    2  S      Ryd( 4S)     0.00009
    51    H    2  px     Ryd( 2p)     0.00251
    52    H    2  px     Ryd( 3p)     0.00082
    53    H    2  px     Ryd( 4p)     0.00014
    54    H    2  py     Ryd( 2p)     0.00279
    55    H    2  py     Ryd( 3p)     0.00026
    56    H    2  py     Ryd( 4p)     0.00014
    57    H    2  pz     Ryd( 2p)     0.00511
    58    H    2  pz     Ryd( 3p)     0.00020
    59    H    2  pz     Ryd( 4p)     0.00005
    60    H    2  dxy    Ryd( 3d)     0.00007
    61    H    2  dxy    Ryd( 4d)     0.00005
    62    H    2  dxz    Ryd( 3d)     0.00008
    63    H    2  dxz    Ryd( 4d)     0.00007
    64    H    2  dyz    Ryd( 3d)     0.00012
    65    H    2  dyz    Ryd( 4d)     0.00005
    66    H    2  dx2y2  Ryd( 3d)     0.00011
    67    H    2  dx2y2  Ryd( 4d)     0.00006
    68    H    2  dz2    Ryd( 3d)     0.00013
    69    H    2  dz2    Ryd( 4d)     0.00007

    70    I    3  S      Cor( 4S)     1.99942
    71    I    3  S      Val( 5S)     1.94501
    72    I    3  S      Ryd( 6S)     0.00150
    73    I    3  S      Ryd( 7S)     0.00044
    74    I    3  S      Ryd( 8S)     0.00011
    75    I    3  S      Ryd( 9S)     0.00001
    76    I    3  px     Cor( 4p)     1.99991
    77    I    3  px     Val( 5p)     1.94016
    78    I    3  px     Ryd( 6p)     0.00994
    79    I    3  px     Ryd( 7p)     0.00070
    80    I    3  px     Ryd( 8p)     0.00008
    81    I    3  py     Cor( 4p)     1.99961
    82    I    3  py     Val( 5p)     1.68707
    83    I    3  py     Ryd( 6p)     0.00862
    84    I    3  py     Ryd( 7p)     0.00069
    85    I    3  py     Ryd( 8p)     0.00020
    86    I    3  pz     Cor( 4p)     1.99993
    87    I    3  pz     Val( 5p)     1.95208
    88    I    3  pz     Ryd( 6p)     0.00996
    89    I    3  pz     Ryd( 7p)     0.00068
    90    I    3  pz     Ryd( 8p)     0.00005
    91    I    3  dxy    Cor( 4d)     1.99667
    92    I    3  dxy    Ryd( 5d)     0.01930
    93    I    3  dxy    Ryd( 6d)     0.00120
    94    I    3  dxy    Ryd( 7d)     0.00023
    95    I    3  dxz    Cor( 4d)     1.99679
    96    I    3  dxz    Ryd( 5d)     0.01955
    97    I    3  dxz    Ryd( 6d)     0.00155
    98    I    3  dxz    Ryd( 7d)     0.00014
    99    I    3  dyz    Cor( 4d)     1.99674
   100    I    3  dyz    Ryd( 5d)     0.01920
   101    I    3  dyz    Ryd( 6d)     0.00119
   102    I    3  dyz    Ryd( 7d)     0.00023
   103    I    3  dx2y2  Cor( 4d)     1.99645
   104    I    3  dx2y2  Ryd( 5d)     0.01981
   105    I    3  dx2y2  Ryd( 6d)     0.00140
   106    I    3  dx2y2  Ryd( 7d)     0.00017
   107    I    3  dz2    Cor( 4d)     1.99666
   108    I    3  dz2    Ryd( 5d)     0.01973
   109    I    3  dz2    Ryd( 6d)     0.00152
   110    I    3  dz2    Ryd( 7d)     0.00015
   111    I    3  f(0)   Ryd( 4f)     0.00267
   112    I    3  f(0)   Ryd( 5f)     0.00040
   113    I    3  f(C1)  Ryd( 4f)     0.00272
   114    I    3  f(C1)  Ryd( 5f)     0.00041
   115    I    3  f(S1)  Ryd( 4f)     0.00282
   116    I    3  f(S1)  Ryd( 5f)     0.00042
   117    I    3  f(C2)  Ryd( 4f)     0.00264
   118    I    3  f(C2)  Ryd( 5f)     0.00040
   119    I    3  f(S2)  Ryd( 4f)     0.00270
   120    I    3  f(S2)  Ryd( 5f)     0.00040
   121    I    3  f(C3)  Ryd( 4f)     0.00267
   122    I    3  f(C3)  Ryd( 5f)     0.00041
   123    I    3  f(S3)  Ryd( 4f)     0.00279
   124    I    3  f(S3)  Ryd( 5f)     0.00042

   125    H    4  S      Val( 1S)     0.65419
   126    H    4  S      Ryd( 2S)     0.00551
   127    H    4  S      Ryd( 3S)     0.00048
   128    H    4  S      Ryd( 4S)     0.00022
   129    H    4  px     Ryd( 2p)     0.00437
   130    H    4  px     Ryd( 3p)     0.00040
   131    H    4  px     Ryd( 4p)     0.00006
   132    H    4  py     Ryd( 2p)     0.00411
   133    H    4  py     Ryd( 3p)     0.00136
   134    H    4  py     Ryd( 4p)     0.00015
   135    H    4  pz     Ryd( 2p)     0.00462
   136    H    4  pz     Ryd( 3p)     0.00032
   137    H    4  pz     Ryd( 4p)     0.00006
   138    H    4  dxy    Ryd( 3d)     0.00039
   139    H    4  dxy    Ryd( 4d)     0.00007
   140    H    4  dxz    Ryd( 3d)     0.00024
   141    H    4  dxz    Ryd( 4d)     0.00004
   142    H    4  dyz    Ryd( 3d)     0.00042
   143    H    4  dyz    Ryd( 4d)     0.00007
   144    H    4  dx2y2  Ryd( 3d)     0.00025
   145    H    4  dx2y2  Ryd( 4d)     0.00013
   146    H    4  dz2    Ryd( 3d)     0.00024
   147    H    4  dz2    Ryd( 4d)     0.00007

 [ 28 electrons found in the effective core potential]

 WARNING:  5 low occupancy (<1.9990e) core orbitals found on  I    3


 Summary of Natural Population Analysis:                  
                                                          
                                       Natural Population 
                Natural  -----------------------------------------------
    Atom  No    Charge         Core      Valence    Rydberg      Total
 -----------------------------------------------------------------------
      O    1   -1.07524      1.99972     6.95975    0.11578     9.07524
      H    2    0.41958      0.00000     0.56464    0.01578     0.58042
      I    3   -0.66675     45.98219     7.52431    0.16025    53.66675
      H    4    0.32223      0.00000     0.65419    0.02359     0.67777
 =======================================================================
   * Total *   -1.00019     47.98191    15.70288    0.31540    64.00019

                                 Natural Population      
 --------------------------------------------------------
   Effective Core            28.00000
   Core                      19.98191 ( 99.9095% of  20)
   Valence                   15.70288 ( 98.1430% of  16)
   Natural Minimal Basis     63.68479 ( 99.5075% of  64)
   Natural Rydberg Basis      0.31540 (  0.4928% of  64)
 --------------------------------------------------------

    Atom  No          Natural Electron Configuration
 ----------------------------------------------------------------------------
      O    1      [core]2S( 1.81)2p( 5.15)3S( 0.01)3p( 0.06)3d( 0.04)
      H    2            1S( 0.56)2p( 0.01)
      I    3      [core]5S( 1.95)5p( 5.58)4f( 0.02)5d( 0.10)6p( 0.03)6d( 0.01)
      H    4            1S( 0.65)2S( 0.01)2p( 0.01)


 NATURAL BOND ORBITAL ANALYSIS:
 Warning:  a bond orbital has occupanc of -0.00001
 Warning:  a bond orbital has occupanc of -0.00033

                       Occupancies       Lewis Structure    Low   High
           Occ.    -------------------  -----------------   occ   occ
  Cycle   Thresh.   Lewis   Non-Lewis     CR  BD  3C  LP    (L)   (NL)   Dev
 =============================================================================
   1(1)    1.90    63.34023   0.65977     10   2   0   6     1      1    0.40
 Warning:  a bond orbital has occupanc of -0.00001
 Warning:  a bond orbital has occupanc of -0.00033
   2(2)    1.90    63.33465   0.66535     10   2   0   6     1      1    0.41
 Warning:  a bond orbital has occupanc of -0.00001
 Warning:  a bond orbital has occupanc of -0.00033
   3(3)    1.90    63.34023   0.65977     10   2   0   6     1      1    0.40
 Warning:  a bond orbital has occupanc of -0.00001
 Warning:  a bond orbital has occupanc of -0.00033
   4(1)    1.80    63.34023   0.65977     10   2   0   6     1      1    0.40
 Warning:  a bond orbital has occupanc of -0.00001
 Warning:  a bond orbital has occupanc of -0.00033
   5(2)    1.80    63.33465   0.66535     10   2   0   6     1      1    0.41
 Warning:  a bond orbital has occupanc of -0.00001
 Warning:  a bond orbital has occupanc of -0.00033
   6(3)    1.80    63.34023   0.65977     10   2   0   6     1      1    0.40
 Warning:  a bond orbital has occupanc of -0.00001
 Warning:  a bond orbital has occupanc of -0.00033
   7(1)    1.70    63.34023   0.65977     10   2   0   6     1      1    0.40
 Warning:  a bond orbital has occupanc of -0.00001
 Warning:  a bond orbital has occupanc of -0.00033
   8(2)    1.70    63.33465   0.66535     10   2   0   6     1      1    0.41
 Warning:  a bond orbital has occupanc of -0.00001
 Warning:  a bond orbital has occupanc of -0.00033
   9(3)    1.70    63.34023   0.65977     10   2   0   6     1      1    0.40
 Warning:  a bond orbital has occupanc of -0.00001
 Warning:  a bond orbital has occupanc of -0.00033
  10(1)    1.60    63.03139   0.96861     10   1   0   7     0      1    0.41
 Warning:  a bond orbital has occupanc of -0.00001
 Warning:  a bond orbital has occupanc of -0.00033
  11(2)    1.60    63.03139   0.96861     10   1   0   7     0      1    0.41
 Warning:  a bond orbital has occupanc of -0.00001
 Warning:  a bond orbital has occupanc of -0.00033
  12(1)    1.50    63.03139   0.96861     10   1   0   7     0      1    0.41
 Warning:  a bond orbital has occupanc of -0.00001
 Warning:  a bond orbital has occupanc of -0.00033
  13(2)    1.50    63.03139   0.96861     10   1   0   7     0      1    0.41
 Warning:  a bond orbital has occupanc of -0.00001
 Warning:  a bond orbital has occupanc of -0.00033
  14(1)    1.90    63.34023   0.65977     10   2   0   6     1      1    0.40
 -----------------------------------------------------------------------------

 Structure accepted: RESONANCE keyword permits strongly delocalized structure

 WARNING:  5 low occupancy (<1.9990e) core orbitals found on  I    3

 --------------------------------------------------------
   Effective Core           28.00000
   Core                     19.98190 ( 99.909% of  20)
   Valence Lewis            15.35833 ( 95.990% of  16)
  ==================       ============================
   Total Lewis              63.34023 ( 98.969% of  64)
  -----------------------------------------------------
   Valence non-Lewis         0.36829 (  0.575% of  64)
   Rydberg non-Lewis         0.29147 (  0.455% of  64)
  ==================       ============================
   Total non-Lewis           0.65977 (  1.031% of  64)
 --------------------------------------------------------


       (Occupancy)   Bond orbital/ Coefficients/ Hybrids
 ---------------------------------------------------------------------------------
     1. (1.96167) BD ( 1) O   1 - H   2  
                ( 72.02%)   0.8487* O   1 s( 21.73%)p 3.58( 77.79%)d 0.02(  0.47%)
                                                  f 0.00(  0.01%)
                                            0.0003  0.4660 -0.0100 -0.0029 -0.0015
                                            0.8807 -0.0437 -0.0097 -0.0076  0.0132
                                           -0.0036  0.0022 -0.0017  0.0000  0.0000
                                            0.0000  0.0000 -0.0117  0.0040 -0.0024
                                            0.0000  0.0000  0.0000  0.0000  0.0000
                                            0.0000  0.0584 -0.0060  0.0036 -0.0332
                                            0.0008  0.0003  0.0000  0.0000 -0.0094
                                            0.0003 -0.0005  0.0002  0.0000  0.0000
                                            0.0000  0.0000  0.0062  0.0030  0.0002
                                           -0.0001
                ( 27.98%)   0.5289* H   2 s( 99.81%)p 0.00(  0.19%)d 0.00(  0.00%)
                                            0.9990  0.0057  0.0002 -0.0003  0.0245
                                           -0.0346 -0.0039 -0.0067 -0.0001  0.0008
                                            0.0000  0.0000  0.0000  0.0001  0.0022
                                            0.0000  0.0000  0.0000  0.0000  0.0028
                                            0.0029 -0.0026 -0.0010
     2. (1.94632) BD ( 1) O   1 - H   4  
                ( 80.72%)   0.8984* O   1 s( 13.13%)p 6.60( 86.67%)d 0.01(  0.19%)
                                                  f 0.00(  0.01%)
                                           -0.0002 -0.3623 -0.0055 -0.0007 -0.0007
                                            0.1763 -0.0128 -0.0012 -0.0016  0.9140
                                            0.0080 -0.0012 -0.0031  0.0000  0.0000
                                            0.0000  0.0000  0.0216 -0.0032  0.0009
                                            0.0000  0.0000  0.0000  0.0000  0.0000
                                            0.0000  0.0320 -0.0052  0.0006  0.0197
                                           -0.0036 -0.0005  0.0000  0.0000 -0.0010
                                           -0.0002 -0.0074  0.0026  0.0000  0.0000
                                            0.0000  0.0000 -0.0021  0.0005  0.0006
                                            0.0010
                ( 19.28%)   0.4391* H   4 s( 99.84%)p 0.00(  0.15%)d 0.00(  0.02%)
                                           -0.9989 -0.0178  0.0139  0.0042 -0.0233
                                           -0.0040 -0.0021  0.0054 -0.0281 -0.0109
                                            0.0000  0.0000  0.0000 -0.0001 -0.0032
                                            0.0000  0.0000  0.0000  0.0000  0.0059
                                            0.0076  0.0047  0.0049
     3. (1.99972) CR ( 1) O   1           s(100.00%)
                                            1.0000 -0.0004  0.0000  0.0000  0.0000
                                           -0.0001  0.0000  0.0000  0.0000  0.0001
                                            0.0000 -0.0000 -0.0000  0.0000  0.0000
                                            0.0000  0.0000  0.0000 -0.0000  0.0000
                                            0.0000  0.0000  0.0000  0.0000  0.0000
                                            0.0000 -0.0000  0.0000 -0.0000  0.0000
                                           -0.0000 -0.0000  0.0000  0.0000  0.0000
                                            0.0000 -0.0000  0.0000  0.0000  0.0000
                                            0.0000  0.0000 -0.0000 -0.0000 -0.0000
                                            0.0000
     4. (1.99942) CR ( 1) I   3           s(100.00%)p 0.00(  0.00%)
                                            1.0000 -0.0005 -0.0000 -0.0000  0.0000
                                            0.0000  0.0000  0.0000 -0.0000 -0.0000
                                            0.0000  0.0000  0.0002 -0.0000 -0.0000
                                            0.0000  0.0000  0.0000  0.0000  0.0000
                                            0.0000  0.0000  0.0000 -0.0000 -0.0000
                                            0.0000  0.0000  0.0000  0.0000  0.0000
                                            0.0000  0.0000  0.0000 -0.0000 -0.0000
                                            0.0000  0.0000 -0.0000 -0.0000  0.0000
                                            0.0000  0.0000  0.0000 -0.0000 -0.0000
                                           -0.0000 -0.0000  0.0000  0.0000  0.0000
                                            0.0000 -0.0000  0.0000 -0.0000  0.0000
     5. (1.99991) CR ( 2) I   3           s(  0.00%)p 1.00(100.00%)
                                            0.0000  0.0001  0.0000 -0.0000  0.0000
                                            0.0000  1.0000 -0.0006 -0.0000 -0.0000
                                            0.0000  0.0000  0.0001  0.0000  0.0000
                                            0.0000  0.0000  0.0000  0.0000  0.0000
                                            0.0000  0.0000 -0.0000  0.0000  0.0000
                                            0.0000  0.0000  0.0000  0.0000  0.0000
                                            0.0000  0.0000  0.0000  0.0000 -0.0000
                                           -0.0000  0.0000  0.0000  0.0000  0.0000
                                            0.0000  0.0000  0.0000  0.0000  0.0000
                                           -0.0000 -0.0000  0.0000  0.0000  0.0000
                                            0.0000  0.0000  0.0000 -0.0000 -0.0000
     6. (1.99961) CR ( 3) I   3           s(  0.00%)p 1.00(100.00%)
                                            0.0000  0.0003  0.0000  0.0000 -0.0000
                                           -0.0000  0.0000  0.0001  0.0000  0.0000
                                           -0.0000  1.0000 -0.0001  0.0000  0.0000
                                           -0.0000  0.0000  0.0000  0.0000  0.0000
                                            0.0000 -0.0000  0.0000 -0.0000 -0.0000
                                            0.0000  0.0000  0.0000  0.0000  0.0000
                                            0.0000  0.0000  0.0000  0.0000  0.0000
                                            0.0000 -0.0000  0.0000  0.0000 -0.0000
                                           -0.0000  0.0000  0.0000 -0.0000 -0.0000
                                            0.0000  0.0000  0.0000  0.0000  0.0000
                                            0.0000 -0.0000 -0.0000  0.0000  0.0000
     7. (1.99993) CR ( 4) I   3           s(  0.00%)p 1.00(100.00%)
                                            0.0000  0.0000  0.0000  0.0000  0.0000
                                            0.0000  0.0000  0.0000  0.0000  0.0000
                                            0.0000  0.0000  0.0000  0.0000  0.0000
                                            0.0000  1.0000 -0.0007 -0.0000 -0.0000
                                            0.0000  0.0000  0.0000  0.0000  0.0000
                                            0.0000 -0.0000 -0.0000  0.0000  0.0000
                                           -0.0000  0.0000  0.0000  0.0000  0.0000
                                            0.0000  0.0000  0.0000  0.0000  0.0000
                                            0.0000  0.0000  0.0000  0.0000  0.0000
                                            0.0000  0.0000  0.0000  0.0000 -0.0000
                                           -0.0000  0.0000  0.0000  0.0000  0.0000
     8. (1.99667) CR ( 5) I   3           s(  0.00%)p 0.00(  0.00%)d 1.00(100.00%)
                                            0.0000  0.0000  0.0000  0.0000 -0.0000
                                           -0.0000  0.0000  0.0000  0.0000  0.0000
                                           -0.0000 -0.0000 -0.0000  0.0000  0.0000
                                           -0.0000  0.0000  0.0000  0.0000  0.0000
                                            0.0000  1.0000  0.0000 -0.0000 -0.0000
                                            0.0000  0.0000  0.0000  0.0000  0.0000
                                            0.0000  0.0000  0.0000  0.0000  0.0000
                                            0.0000 -0.0000  0.0000  0.0000 -0.0000
                                           -0.0000  0.0000  0.0000 -0.0000 -0.0000
                                            0.0000  0.0000  0.0000  0.0000  0.0000
                                            0.0000 -0.0000 -0.0000  0.0000  0.0000
     9. (1.99679) CR ( 6) I   3           s(  0.00%)p 0.00(  0.00%)d 1.00(100.00%)
                                            0.0000  0.0000  0.0000  0.0000  0.0000
                                            0.0000  0.0000  0.0000  0.0000  0.0000
                                            0.0000  0.0000  0.0000  0.0000  0.0000
                                            0.0000  0.0000  0.0000  0.0000  0.0000
                                           -0.0000  0.0000  0.0000  0.0000  0.0000
                                            1.0000  0.0000  0.0000 -0.0000 -0.0000
                                            0.0000 -0.0000 -0.0000  0.0000  0.0000
                                            0.0000  0.0000  0.0000  0.0000  0.0000
                                            0.0000 -0.0000 -0.0000  0.0000  0.0000
                                            0.0000  0.0000 -0.0000 -0.0000  0.0000
                                            0.0000  0.0000  0.0000  0.0000  0.0000
    10. (1.99674) CR ( 7) I   3           s(  0.00%)p 0.00(  0.00%)d 1.00(100.00%)
                                            0.0000  0.0000  0.0000  0.0000  0.0000
                                            0.0000  0.0000  0.0000  0.0000  0.0000
                                            0.0000  0.0000  0.0000  0.0000  0.0000
                                            0.0000  0.0000  0.0000  0.0000  0.0000
                                           -0.0000  0.0000  0.0000  0.0000  0.0000
                                           -0.0000  0.0000  0.0000 -0.0000  1.0000
                                            0.0000 -0.0000 -0.0000  0.0000  0.0000
                                            0.0000  0.0000  0.0000  0.0000  0.0000
                                            0.0000 -0.0000 -0.0000  0.0000  0.0000
                                            0.0000  0.0000 -0.0000 -0.0000  0.0000
                                            0.0000  0.0000  0.0000  0.0000  0.0000
    11. (1.99645) CR ( 8) I   3           s(  0.00%)p 0.00(  0.00%)d 1.00(100.00%)
                                            0.0000  0.0001  0.0000  0.0000 -0.0000
                                           -0.0000 -0.0000 -0.0000 -0.0000 -0.0000
                                            0.0000 -0.0000 -0.0000  0.0000  0.0000
                                           -0.0000 -0.0000 -0.0000 -0.0000 -0.0000
                                           -0.0000 -0.0000 -0.0000  0.0000  0.0000
                                           -0.0000 -0.0000 -0.0000 -0.0000 -0.0000
                                           -0.0000 -0.0000 -0.0000 -1.0000  0.0000
                                           -0.0000 -0.0000  0.0000  0.0000  0.0000
                                            0.0000 -0.0000 -0.0000  0.0000  0.0000
                                            0.0000 -0.0000 -0.0000 -0.0000 -0.0000
                                           -0.0000  0.0000  0.0000  0.0000 -0.0000
    12. (1.99666) CR ( 9) I   3           s(  0.00%)p 0.00(  0.00%)d 1.00(100.00%)
                                           -0.0000 -0.0001 -0.0000 -0.0000  0.0000
                                            0.0000  0.0000  0.0000 -0.0000 -0.0000
                                            0.0000  0.0000  0.0000 -0.0000 -0.0000
                                            0.0000  0.0000  0.0000  0.0000  0.0000
                                            0.0000  0.0000  0.0000 -0.0000  0.0000
                                            0.0000  0.0000  0.0000  0.0000  0.0000
                                            0.0000  0.0000  0.0000 -0.0000 -0.0000
                                           -0.0000  0.0000  1.0000 -0.0000  0.0000
                                            0.0000  0.0000  0.0000 -0.0000  0.0000
                                           -0.0000 -0.0000  0.0000  0.0000  0.0000
                                            0.0000 -0.0000  0.0000 -0.0000 -0.0000
    13. (1.96802) LP ( 1) O   1           s( 65.09%)p 0.54( 34.85%)d 0.00(  0.06%)
                                                  f 0.00(  0.00%)
                                            0.0003  0.8068  0.0008  0.0007 -0.0001
                                           -0.4318  0.0003 -0.0026  0.0021  0.4026
                                            0.0040  0.0023  0.0021  0.0000  0.0000
                                            0.0000  0.0000  0.0215 -0.0033 -0.0005
                                            0.0000  0.0000  0.0000  0.0000  0.0000
                                            0.0000 -0.0063  0.0013 -0.0006  0.0095
                                           -0.0020  0.0016  0.0000  0.0000  0.0027
                                           -0.0008 -0.0012  0.0002  0.0000  0.0000
                                            0.0000  0.0000  0.0001 -0.0013  0.0020
                                           -0.0004
    14. (1.95451) LP ( 2) O   1           s(  0.00%)p 1.00( 99.83%)d 0.00(  0.16%)
                                                  f 0.00(  0.01%)
                                            0.0000  0.0000  0.0000  0.0000  0.0000
                                            0.0000  0.0000  0.0000  0.0000  0.0000
                                            0.0000  0.0000  0.0000  0.9988  0.0232
                                            0.0047  0.0066  0.0000  0.0000  0.0000
                                            0.0373 -0.0035 -0.0017 -0.0150  0.0022
                                            0.0010  0.0000  0.0000  0.0000  0.0000
                                            0.0000  0.0000 -0.0081  0.0027  0.0000
                                            0.0000  0.0000  0.0000  0.0024  0.0005
                                            0.0013 -0.0005  0.0000  0.0000  0.0000
                                            0.0000
    15. (1.97643) LP ( 1) I   3           s( 90.50%)p 0.10(  9.50%)d 0.00(  0.00%)
                                                  f 0.00(  0.00%)
                                            0.0005  0.9513  0.0004  0.0014 -0.0007
                                           -0.0002 -0.0001 -0.0632  0.0009  0.0001
                                           -0.0001 -0.0004 -0.3016  0.0036  0.0001
                                           -0.0003  0.0000  0.0000  0.0000  0.0000
                                            0.0000 -0.0001 -0.0015  0.0002  0.0001
                                            0.0000  0.0000  0.0000  0.0000  0.0000
                                            0.0000  0.0000  0.0000  0.0001  0.0033
                                           -0.0000 -0.0002  0.0001  0.0020 -0.0000
                                           -0.0001  0.0000  0.0000  0.0002 -0.0000
                                            0.0007  0.0000  0.0000  0.0000  0.0000
                                            0.0000  0.0006 -0.0001  0.0008 -0.0000
    16. (1.95230) LP ( 2) I   3           s(  0.00%)p 1.00( 99.99%)d 0.00(  0.01%)
                                                  f 0.00(  0.00%)
                                            0.0000  0.0000  0.0000  0.0000  0.0000
                                            0.0000  0.0000  0.0000  0.0000  0.0000
                                            0.0000  0.0000  0.0000  0.0000  0.0000
                                            0.0000  0.0007  0.9999  0.0045  0.0022
                                           -0.0003  0.0000  0.0000  0.0000  0.0000
                                           -0.0000  0.0019  0.0004 -0.0002 -0.0000
                                            0.0037 -0.0020 -0.0055  0.0000  0.0000
                                            0.0000  0.0000  0.0000  0.0000  0.0000
                                            0.0000 -0.0035 -0.0017  0.0000  0.0000
                                            0.0000  0.0000 -0.0037 -0.0015  0.0019
                                            0.0010  0.0000  0.0000  0.0000  0.0000
    17. (1.95209) LP ( 3) I   3           s(  0.00%)p 1.00( 99.99%)d 0.00(  0.01%)
                                                  f 0.00(  0.00%)
                                           -0.0000 -0.0003 -0.0001  0.0014 -0.0011
                                           -0.0000  0.0006  0.9785  0.0054  0.0027
                                           -0.0008 -0.0001 -0.2058 -0.0006  0.0000
                                           -0.0003  0.0000  0.0000  0.0000  0.0000
                                            0.0000 -0.0000  0.0041 -0.0018 -0.0050
                                            0.0000  0.0000  0.0000  0.0000  0.0000
                                            0.0000  0.0000  0.0000 -0.0000  0.0036
                                            0.0001 -0.0012  0.0000 -0.0004 -0.0005
                                           -0.0007  0.0000  0.0000 -0.0015 -0.0008
                                            0.0003  0.0000  0.0000  0.0000  0.0000
                                            0.0000 -0.0040 -0.0015  0.0032  0.0015
    18. (1.64698) LP ( 4) I   3           s(  9.50%)p 9.51( 90.34%)d 0.01(  0.13%)
                                                  f 0.00(  0.03%)
                                            0.0000  0.3081 -0.0015 -0.0052  0.0026
                                            0.0007 -0.0000  0.1957 -0.0024 -0.0014
                                            0.0005 -0.0000  0.9300 -0.0108 -0.0057
                                            0.0010  0.0000  0.0000  0.0000  0.0000
                                            0.0000  0.0000  0.0127  0.0007 -0.0012
                                            0.0000  0.0000  0.0000  0.0000  0.0000
                                            0.0000  0.0000  0.0000  0.0000 -0.0285
                                           -0.0021  0.0027  0.0000 -0.0186 -0.0017
                                            0.0012  0.0000  0.0000 -0.0020 -0.0005
                                           -0.0098 -0.0026  0.0000  0.0000  0.0000
                                            0.0000 -0.0071 -0.0014 -0.0102 -0.0021
    19. (0.02507) RY*( 1) O   1           s(  0.00%)p 1.00( 98.97%)d 0.01(  1.01%)
                                                  f 0.00(  0.02%)
                                            0.0000  0.0000  0.0000  0.0000  0.0000
                                            0.0000  0.0000  0.0000  0.0000  0.0000
                                            0.0000  0.0000  0.0000 -0.0267  0.9938
                                           -0.0257 -0.0251  0.0000  0.0000  0.0000
                                            0.0799 -0.0183  0.0072 -0.0538  0.0183
                                           -0.0103  0.0000  0.0000  0.0000  0.0000
                                            0.0000  0.0000 -0.0104  0.0115  0.0000
                                            0.0000  0.0000  0.0000 -0.0018  0.0010
                                            0.0001 -0.0016  0.0000  0.0000  0.0000
                                            0.0000
    20. (0.01894) RY*( 2) O   1           s( 16.89%)p 4.79( 80.95%)d 0.12(  2.11%)
                                                  f 0.00(  0.05%)
                                           -0.0000 -0.0056  0.4108  0.0051 -0.0124
                                           -0.0086 -0.4687  0.0053  0.0194 -0.0147
                                            0.7674 -0.0106 -0.0104  0.0000  0.0000
                                            0.0000  0.0000  0.1400 -0.0276  0.0115
                                            0.0000  0.0000  0.0000  0.0000  0.0000
                                            0.0000 -0.0136  0.0029  0.0012  0.0160
                                           -0.0116  0.0050  0.0000  0.0000  0.0015
                                           -0.0020 -0.0002  0.0041  0.0000  0.0000
                                            0.0000  0.0000  0.0155 -0.0091  0.0099
                                           -0.0035
    21. (0.01057) RY*( 3) O   1           s( 11.62%)p 7.34( 85.31%)d 0.24(  2.79%)
                                                  f 0.02(  0.28%)
                                            0.0000 -0.0115  0.3390 -0.0158  0.0292
                                           -0.0349 -0.7038  0.0165  0.0323 -0.0014
                                           -0.5936 -0.0166 -0.0505 -0.0000 -0.0000
                                           -0.0000 -0.0000 -0.1057 -0.0157  0.0071
                                           -0.0000 -0.0000 -0.0000 -0.0000 -0.0000
                                           -0.0000  0.1091  0.0587 -0.0242  0.0095
                                            0.0194 -0.0086 -0.0000 -0.0000 -0.0049
                                            0.0014  0.0202 -0.0207 -0.0000 -0.0000
                                           -0.0000 -0.0000  0.0310 -0.0267  0.0097
                                           -0.0134
    22. (0.00666) RY*( 4) O   1           s( 26.28%)p 0.30(  7.84%)d 2.48( 65.16%)
                                                  f 0.03(  0.72%)
                                           -0.0000  0.0150  0.5124  0.0058 -0.0044
                                            0.0383  0.2724 -0.0067 -0.0042  0.0345
                                            0.0016 -0.0191 -0.0326 -0.0000 -0.0000
                                           -0.0000 -0.0000 -0.6472 -0.0164  0.0015
                                           -0.0000 -0.0000 -0.0000 -0.0000 -0.0000
                                           -0.0000 -0.4644  0.0025 -0.0056  0.1254
                                            0.0283 -0.0137 -0.0000 -0.0000  0.0128
                                           -0.0010  0.0415 -0.0298 -0.0000 -0.0000
                                           -0.0000 -0.0000 -0.0593  0.0264 -0.0114
                                           -0.0112
    23. (0.00639) RY*( 5) O   1           s(  0.00%)p 1.00(  0.02%)d99.99( 98.96%)
                                                  f40.58(  1.01%)
                                            0.0000  0.0000  0.0000  0.0000  0.0000
                                            0.0000  0.0000  0.0000  0.0000  0.0000
                                            0.0000  0.0000  0.0000 -0.0083 -0.0002
                                           -0.0132 -0.0024  0.0000  0.0000  0.0000
                                            0.5527  0.0357 -0.0108  0.8250  0.0475
                                           -0.0031  0.0000  0.0000  0.0000  0.0000
                                            0.0000  0.0000  0.0045 -0.0109  0.0000
                                            0.0000  0.0000  0.0000  0.0846 -0.0523
                                            0.0094  0.0018  0.0000  0.0000  0.0000
                                            0.0000
    24. (0.00605) RY*( 6) O   1           s(  0.00%)p 1.00(  1.06%)d92.34( 97.96%)
                                                  f 0.92(  0.97%)
                                            0.0000  0.0000  0.0000  0.0000  0.0000
                                            0.0000  0.0000  0.0000  0.0000  0.0000
                                            0.0000  0.0000  0.0000 -0.0372 -0.0943
                                            0.0161  0.0086  0.0000  0.0000  0.0000
                                            0.8164  0.0745 -0.0298 -0.5516 -0.0485
                                            0.0105  0.0000  0.0000  0.0000  0.0000
                                            0.0000  0.0000 -0.0703  0.0383  0.0000
                                            0.0000  0.0000  0.0000  0.0400 -0.0156
                                           -0.0353  0.0157  0.0000  0.0000  0.0000
                                            0.0000
    25. (0.00593) RY*( 7) O   1           s(  5.06%)p 0.77(  3.89%)d17.87( 90.44%)
                                                  f 0.12(  0.61%)
                                           -0.0000  0.0133  0.2241 -0.0140 -0.0003
                                            0.0305  0.1722 -0.0176  0.0003 -0.0281
                                           -0.0838  0.0071 -0.0131  0.0000  0.0000
                                            0.0000  0.0000  0.3024  0.0167 -0.0016
                                            0.0000  0.0000  0.0000  0.0000  0.0000
                                            0.0000  0.1666  0.0192 -0.0043  0.8808
                                            0.0903 -0.0257  0.0000  0.0000  0.0528
                                           -0.0267 -0.0429  0.0250  0.0000  0.0000
                                            0.0000  0.0000  0.0065 -0.0021  0.0063
                                            0.0019
    26. (0.00569) RY*( 8) O   1           s(  9.38%)p 0.72(  6.71%)d 8.71( 81.73%)
                                                  f 0.23(  2.18%)
                                           -0.0000  0.0018  0.3061  0.0099 -0.0055
                                            0.0453  0.1391 -0.0210  0.0009  0.0074
                                           -0.2066 -0.0124 -0.0489 -0.0000 -0.0000
                                           -0.0000 -0.0000  0.6625  0.0191  0.0039
                                           -0.0000 -0.0000 -0.0000 -0.0000 -0.0000
                                           -0.0000 -0.5622  0.0087 -0.0054 -0.2484
                                           -0.0077  0.0003 -0.0000 -0.0000  0.0323
                                           -0.0228  0.0400 -0.0365 -0.0000 -0.0000
                                           -0.0000 -0.0000  0.0179 -0.0254  0.1100
                                           -0.0651
    27. (0.00251) RY*( 9) O   1           s( 28.58%)p 0.55( 15.85%)d 1.91( 54.46%)
                                                  f 0.04(  1.12%)
                                            0.0000 -0.0051  0.5325 -0.0456 -0.0102
                                           -0.0255  0.3924  0.0203 -0.0056 -0.0034
                                           -0.0414  0.0131 -0.0389  0.0000  0.0000
                                            0.0000  0.0000  0.0587  0.0090 -0.0085
                                            0.0000  0.0000  0.0000  0.0000  0.0000
                                            0.0000  0.6258  0.1375  0.0426 -0.3445
                                           -0.0982 -0.0180  0.0000  0.0000 -0.0357
                                            0.0483  0.0098 -0.0068  0.0000  0.0000
                                            0.0000  0.0000  0.0578 -0.0630 -0.0114
                                            0.0007
    28. (0.00062) RY*(10) O   1           s( 15.52%)p 4.91( 76.20%)d 0.46(  7.13%)
                                                  f 0.07(  1.15%)
                                            0.0000 -0.0045  0.0242  0.3660 -0.1437
                                           -0.0032 -0.0247 -0.1489 -0.0445  0.0023
                                           -0.0052  0.8580  0.0314  0.0000  0.0000
                                            0.0000  0.0000 -0.0115  0.2539 -0.0486
                                            0.0000  0.0000  0.0000  0.0000  0.0000
                                            0.0000  0.0021  0.0308  0.0009 -0.0065
                                            0.0488  0.0314  0.0000  0.0000  0.0107
                                            0.0047  0.1029 -0.0087  0.0000  0.0000
                                            0.0000  0.0000 -0.0158  0.0022 -0.0061
                                            0.0193
    29. (0.00057) RY*(11) O   1           s(  0.00%)p 1.00( 38.67%)d 1.47( 56.74%)
                                                  f 0.12(  4.59%)
                                            0.0000  0.0000  0.0000  0.0000  0.0000
                                            0.0000  0.0000  0.0000  0.0000  0.0000
                                            0.0000  0.0000  0.0000 -0.0019 -0.0389
                                           -0.6121  0.1026  0.0000  0.0000  0.0000
                                            0.0393 -0.3141  0.0176 -0.0443  0.6815
                                           -0.0230  0.0000  0.0000  0.0000  0.0000
                                            0.0000  0.0000 -0.0922  0.0157  0.0000
                                            0.0000  0.0000  0.0000 -0.1421  0.0047
                                           -0.1300  0.0001  0.0000  0.0000  0.0000
                                            0.0000
    30. (0.00057) RY*(12) O   1           s(  5.16%)p 0.06(  0.32%)d17.43( 89.96%)
                                                  f 0.88(  4.56%)
                                           -0.0000  0.0008  0.0198  0.2111 -0.0815
                                            0.0013 -0.0093 -0.0111 -0.0203 -0.0067
                                           -0.0379 -0.0135 -0.0302 -0.0000 -0.0000
                                           -0.0000 -0.0000 -0.0182 -0.1088 -0.0256
                                           -0.0000 -0.0000 -0.0000 -0.0000 -0.0000
                                           -0.0000 -0.0004 -0.3867  0.0163  0.0934
                                           -0.8490  0.0854 -0.0000 -0.0000  0.1063
                                            0.0034 -0.0044  0.0104 -0.0000 -0.0000
                                           -0.0000 -0.0000  0.1529 -0.0067  0.1038
                                           -0.0005
    31. (0.00054) RY*(13) O   1           s(  0.00%)p 1.00( 56.83%)d 0.71( 40.50%)
                                                  f 0.05(  2.68%)
                                            0.0000  0.0000  0.0000  0.0000  0.0000
                                            0.0000  0.0000  0.0000  0.0000  0.0000
                                            0.0000  0.0000  0.0000 -0.0042  0.0007
                                            0.7344 -0.1701  0.0000  0.0000  0.0000
                                            0.0051 -0.0230  0.0012 -0.0224  0.6355
[...]
                                           -0.0076  0.0115  0.2503  0.1386  0.0673
                                            0.0000  0.0000  0.0000 -0.0565  0.0075
                                            0.0000  0.0000  0.0000  0.0000  0.0134
                                            0.0008 -0.0029  0.0040
   125. (0.00471) RY*( 2) H   4           s(  0.00%)p 1.00( 98.29%)d 0.02(  1.71%)
                                            0.0000  0.0000  0.0000  0.0000  0.0000
                                            0.0000  0.0000  0.0000  0.0000  0.0000
                                            0.9895  0.0548 -0.0282  0.0000  0.0000
                                           -0.0191  0.0125 -0.1166  0.0548  0.0000
                                            0.0000  0.0000  0.0000
   126. (0.00405) RY*( 3) H   4           s(  4.39%)p21.43( 94.06%)d 0.35(  1.56%)
                                            0.0188  0.1476  0.1051 -0.1035 -0.5999
                                           -0.0123  0.0381  0.7558 -0.0827  0.0319
                                            0.0000  0.0000  0.0000  0.1012 -0.0141
                                            0.0000  0.0000  0.0000  0.0000  0.0579
                                           -0.0124  0.0380 -0.0130
   127. (0.00381) RY*( 4) H   4           s( 31.55%)p 2.13( 67.29%)d 0.04(  1.16%)
                                            0.0031  0.5508  0.0266  0.1067 -0.5807
                                           -0.0294 -0.0016 -0.5741 -0.0586 -0.0408
                                           -0.0000 -0.0000 -0.0000  0.0973 -0.0015
                                           -0.0000 -0.0000 -0.0000 -0.0000 -0.0184
                                           -0.0276 -0.0220 -0.0239
   128. (0.00230) RY*( 5) H   4           s( 20.44%)p 3.81( 77.82%)d 0.08(  1.74%)
                                            0.0242  0.0663  0.4420  0.0632  0.1962
                                           -0.1718 -0.0178  0.0055 -0.8397 -0.0691
                                           -0.0000 -0.0000 -0.0000 -0.0057  0.0534
                                           -0.0000 -0.0000 -0.0000 -0.0000 -0.0616
                                           -0.0779 -0.0526 -0.0431
   129. (0.00040) RY*( 6) H   4           s(  0.66%)p99.99( 70.92%)d43.15( 28.42%)
                                            0.0003 -0.0392  0.0561 -0.0436  0.0794
                                           -0.7885  0.1888 -0.0254  0.1789 -0.1133
                                           -0.0000 -0.0000 -0.0000  0.4726 -0.0296
                                           -0.0000 -0.0000 -0.0000 -0.0000  0.2352
                                            0.0294  0.0616  0.0071
   130. (0.00039) RY*( 7) H   4           s(  0.00%)p 1.00( 13.62%)d 6.34( 86.38%)
                                            0.0000  0.0000  0.0000  0.0000  0.0000
                                            0.0000  0.0000  0.0000  0.0000  0.0000
                                            0.1286 -0.2663  0.2207  0.0000  0.0000
                                            0.1409  0.0315  0.9168  0.0493  0.0000
                                            0.0000  0.0000  0.0000
   131. (0.00033) RY*( 8) H   4           s(  1.46%)p20.20( 29.49%)d47.29( 69.05%)
                                           -0.0007 -0.0024 -0.0797  0.0908  0.1151
                                            0.5078  0.0782 -0.0072 -0.1328  0.0035
                                            0.0000  0.0000  0.0000  0.6954  0.0672
                                            0.0000  0.0000  0.0000  0.0000  0.4014
                                           -0.0129 -0.1980  0.0429
   132. (0.00030) RY*( 9) H   4           s(  0.00%)p 1.00( 90.38%)d 0.11(  9.62%)
                                            0.0000  0.0000  0.0000  0.0000  0.0000
                                            0.0000  0.0000  0.0000  0.0000  0.0000
                                           -0.0220  0.9497 -0.0371  0.0000  0.0000
                                            0.1625 -0.0056  0.2608  0.0417  0.0000
                                            0.0000  0.0000  0.0000
   133. (0.00025) RY*(10) H   4           s(  0.00%)p 1.00(  1.56%)d63.06( 98.44%)
                                            0.0000  0.0000  0.0000  0.0000  0.0000
                                            0.0000  0.0000  0.0000  0.0000  0.0000
                                            0.0069 -0.1197 -0.0350  0.0000  0.0000
                                            0.9425 -0.2626 -0.1640  0.0169  0.0000
                                            0.0000  0.0000  0.0000
   134. (0.00024) RY*(11) H   4           s(  1.11%)p 5.74(  6.39%)d83.05( 92.49%)
                                           -0.0039 -0.0050 -0.0413  0.0969  0.0578
                                            0.1064  0.0762  0.0008 -0.0402  0.2045
                                           -0.0000 -0.0000 -0.0000  0.3816 -0.0133
                                           -0.0000 -0.0000 -0.0000 -0.0000 -0.5094
                                            0.0343  0.6746 -0.2519
   135. (0.00022) RY*(12) H   4           s(  5.16%)p 6.85( 35.40%)d11.51( 59.44%)
                                           -0.0145 -0.0423  0.2211  0.0277 -0.0051
                                           -0.0735  0.1496  0.0021  0.1785  0.5425
                                           -0.0000 -0.0000 -0.0000  0.1586  0.1207
                                           -0.0000 -0.0000 -0.0000 -0.0000 -0.4175
                                           -0.2299 -0.5676 -0.0728
   136. (0.00014) RY*(13) H   4           s( 86.06%)p 0.06(  5.44%)d 0.10(  8.50%)
                                            0.0018 -0.0233 -0.1658  0.9124 -0.0180
                                           -0.1211  0.0382  0.1295 -0.0073  0.1455
                                            0.0000  0.0000  0.0000 -0.1520  0.0666
                                            0.0000  0.0000  0.0000  0.0000  0.1851
                                           -0.1340  0.0422 -0.0587
   137. (0.00010) RY*(14) H   4           s( 71.16%)p 0.29( 20.90%)d 0.11(  7.94%)
   138. (0.00006) RY*(15) H   4           s(  0.00%)p 1.00(  7.20%)d12.89( 92.80%)
   139. (0.00006) RY*(16) H   4           s(  2.10%)p26.73( 56.24%)d19.80( 41.65%)
   140. (0.00005) RY*(17) H   4           s(  1.75%)p 3.73(  6.53%)d52.42( 91.72%)
   141. (0.00003) RY*(18) H   4           s(  0.00%)p 1.00( 86.85%)d 0.15( 13.15%)
   142. (0.00003) RY*(19) H   4           s(  0.17%)p99.99( 93.26%)d38.12(  6.56%)
   143. (0.00003) RY*(20) H   4           s(  5.55%)p 0.59(  3.27%)d16.44( 91.18%)
   144. (0.00002) RY*(21) H   4           s(  0.00%)p 1.00(  2.10%)d46.56( 97.90%)
   145. (0.00002) RY*(22) H   4           s(  1.39%)p 0.28(  0.39%)d70.60( 98.22%)
   146. (0.02352) BD*( 1) O   1 - H   2  
                ( 27.98%)   0.5289* O   1 s( 21.73%)p 3.58( 77.79%)d 0.02(  0.47%)
                                                  f 0.00(  0.01%)
                                           -0.0003 -0.4660  0.0100  0.0029  0.0015
                                           -0.8807  0.0437  0.0097  0.0076 -0.0132
                                            0.0036 -0.0022  0.0017 -0.0000 -0.0000
                                           -0.0000 -0.0000  0.0117 -0.0040  0.0024
                                           -0.0000 -0.0000 -0.0000 -0.0000 -0.0000
                                           -0.0000 -0.0584  0.0060 -0.0036  0.0332
                                           -0.0008 -0.0003 -0.0000 -0.0000  0.0094
                                           -0.0003  0.0005 -0.0002 -0.0000 -0.0000
                                           -0.0000 -0.0000 -0.0062 -0.0030 -0.0002
                                            0.0001
                ( 72.02%)  -0.8487* H   2 s( 99.81%)p 0.00(  0.19%)d 0.00(  0.00%)
                                           -0.9990 -0.0057 -0.0002  0.0003 -0.0245
                                            0.0346  0.0039  0.0067  0.0001 -0.0008
                                           -0.0000 -0.0000 -0.0000 -0.0001 -0.0022
                                           -0.0000 -0.0000 -0.0000 -0.0000 -0.0028
                                           -0.0029  0.0026  0.0010
   147. (0.34477) BD*( 1) O   1 - H   4  
                ( 19.28%)   0.4391* O   1 s( 13.13%)p 6.60( 86.67%)d 0.01(  0.19%)
                                                  f 0.00(  0.01%)
                                            0.0002  0.3623  0.0055  0.0007  0.0007
                                           -0.1763  0.0128  0.0012  0.0016 -0.9140
                                           -0.0080  0.0012  0.0031 -0.0000 -0.0000
                                           -0.0000 -0.0000 -0.0216  0.0032 -0.0009
                                           -0.0000 -0.0000 -0.0000 -0.0000 -0.0000
                                           -0.0000 -0.0320  0.0052 -0.0006 -0.0197
                                            0.0036  0.0005 -0.0000 -0.0000  0.0010
                                            0.0002  0.0074 -0.0026 -0.0000 -0.0000
                                           -0.0000 -0.0000  0.0021 -0.0005 -0.0006
                                           -0.0010
                ( 80.72%)  -0.8984* H   4 s( 99.84%)p 0.00(  0.15%)d 0.00(  0.02%)
                                            0.9989  0.0178 -0.0139 -0.0042  0.0233
                                            0.0040  0.0021 -0.0054  0.0281  0.0109
                                           -0.0000 -0.0000 -0.0000  0.0001  0.0032
                                           -0.0000 -0.0000 -0.0000 -0.0000 -0.0059
                                           -0.0076 -0.0047 -0.0049


 NHO Directionality and "Bond Bending" (deviations from line of nuclear centers)

         [Thresholds for printing:  angular deviation  >  1.0 degree]
                                    hybrid p-character > 25.0%
                                    orbital occupancy  >  0.10e

                                Line of Centers        Hybrid 1              Hybrid 2
                                ---------------  -------------------   ------------------
                NBO               Theta   Phi    Theta   Phi    Dev    Theta   Phi    Dev
 ========================================================================================
     2. BD (   1) O   1 - H   4    90.0  258.1    90.0  260.1   1.9      --     --    --
    13. LP (   1) O   1             --     --     90.0  136.4   --       --     --    --
    14. LP (   2) O   1             --     --      0.0    0.0   --       --     --    --
    16. LP (   2) I   3             --     --      0.0    0.0   --       --     --    --
    17. LP (   3) I   3             --     --     90.0  348.2   --       --     --    --
    18. LP (   4) I   3             --     --     90.0   78.1   --       --     --    --
   147. BD*(   1) O   1 - H   4    90.0  258.1    90.0  260.1   1.9      --     --    --


 Natural Bond Orbitals (Summary):

           NBO                  Occupancy  
 -----------------------------------------------
 Molecular unit  1  (H2O)
     1. BD (   1) O   1 - H   2          1.96167
     2. BD (   1) O   1 - H   4          1.94632
     3. CR (   1) O   1                  1.99972
    13. LP (   1) O   1                  1.96802
    14. LP (   2) O   1                  1.95451
    19. RY*(   1) O   1                  0.02507
    20. RY*(   2) O   1                  0.01894
    21. RY*(   3) O   1                  0.01057
    22. RY*(   4) O   1                  0.00666
    23. RY*(   5) O   1                  0.00639
    24. RY*(   6) O   1                  0.00605
    25. RY*(   7) O   1                  0.00593
    26. RY*(   8) O   1                  0.00569
    27. RY*(   9) O   1                  0.00251
    28. RY*(  10) O   1                  0.00062
    29. RY*(  11) O   1                  0.00057
    30. RY*(  12) O   1                  0.00057
    31. RY*(  13) O   1                  0.00054
    32. RY*(  14) O   1                  0.00048
    33. RY*(  15) O   1                  0.00047
    34. RY*(  16) O   1                  0.00047
    35. RY*(  17) O   1                  0.00046
    36. RY*(  18) O   1                  0.00047
    37. RY*(  19) O   1                  0.00045
    38. RY*(  20) O   1                  0.00042
    39. RY*(  21) O   1                  0.00043
    40. RY*(  22) O   1                  0.00042
    41. RY*(  23) O   1                  0.00036
    42. RY*(  24) O   1                  0.00032
    43. RY*(  25) O   1                  0.00023
    44. RY*(  26) O   1                  0.00015
    45. RY*(  27) O   1                  0.00008
    46. RY*(  28) O   1                  0.00008
    47. RY*(  29) O   1                  0.00009
    48. RY*(  30) O   1                  0.00009
    49. RY*(  31) O   1                  0.00008
    50. RY*(  32) O   1                  0.00008
    51. RY*(  33) O   1                  0.00009
    52. RY*(  34) O   1                  0.00006
    53. RY*(  35) O   1                  0.00007
    54. RY*(  36) O   1                  0.00005
    55. RY*(  37) O   1                  0.00006
    56. RY*(  38) O   1                  0.00002
    57. RY*(  39) O   1                  0.00003
    58. RY*(  40) O   1                 -0.00001
    59. RY*(  41) O   1                 -0.00033
    60. RY*(   1) H   2                  0.00519
    61. RY*(   2) H   2                  0.00308
    62. RY*(   3) H   2                  0.00287
    63. RY*(   4) H   2                  0.00183
    64. RY*(   5) H   2                  0.00031
    65. RY*(   6) H   2                  0.00021
    66. RY*(   7) H   2                  0.00020
    67. RY*(   8) H   2                  0.00016
    68. RY*(   9) H   2                  0.00013
    69. RY*(  10) H   2                  0.00011
    70. RY*(  11) H   2                  0.00011
    71. RY*(  12) H   2                  0.00012
    72. RY*(  13) H   2                  0.00007
    73. RY*(  14) H   2                  0.00007
    74. RY*(  15) H   2                  0.00005
    75. RY*(  16) H   2                  0.00005
    76. RY*(  17) H   2                  0.00004
    77. RY*(  18) H   2                  0.00004
    78. RY*(  19) H   2                  0.00002
    79. RY*(  20) H   2                  0.00001
    80. RY*(  21) H   2                  0.00002
    81. RY*(  22) H   2                  0.00002
   124. RY*(   1) H   4                  0.00669
   125. RY*(   2) H   4                  0.00471
   126. RY*(   3) H   4                  0.00405
   127. RY*(   4) H   4                  0.00381
   128. RY*(   5) H   4                  0.00230
   129. RY*(   6) H   4                  0.00040
   130. RY*(   7) H   4                  0.00039
   131. RY*(   8) H   4                  0.00033
   132. RY*(   9) H   4                  0.00030
   133. RY*(  10) H   4                  0.00025
   134. RY*(  11) H   4                  0.00024
   135. RY*(  12) H   4                  0.00022
   136. RY*(  13) H   4                  0.00014
   137. RY*(  14) H   4                  0.00010
   138. RY*(  15) H   4                  0.00006
   139. RY*(  16) H   4                  0.00006
   140. RY*(  17) H   4                  0.00005
   141. RY*(  18) H   4                  0.00003
   142. RY*(  19) H   4                  0.00003
   143. RY*(  20) H   4                  0.00003
   144. RY*(  21) H   4                  0.00002
   145. RY*(  22) H   4                  0.00002
   146. BD*(   1) O   1 - H   2          0.02352
   147. BD*(   1) O   1 - H   4          0.34477
       -------------------------------
              Total Lewis    9.83024  ( 95.1322%)
        Valence non-Lewis    0.36829  (  3.5642%)
        Rydberg non-Lewis    0.13471  (  1.3037%)
       -------------------------------
            Total unit  1   10.33325  (100.0000%)
           Charge unit  1   -0.33325

 Molecular unit  2  (I)
     4. CR (   1) I   3                  1.99942
     5. CR (   2) I   3                  1.99991
     6. CR (   3) I   3                  1.99961
     7. CR (   4) I   3                  1.99993
     8. CR (   5) I   3                  1.99667
     9. CR (   6) I   3                  1.99679
    10. CR (   7) I   3                  1.99674
    11. CR (   8) I   3                  1.99645
    12. CR (   9) I   3                  1.99666
    15. LP (   1) I   3                  1.97643
    16. LP (   2) I   3                  1.95230
    17. LP (   3) I   3                  1.95209
    18. LP (   4) I   3                  1.64698
    82. RY*(   1) I   3                  0.01955
    83. RY*(   2) I   3                  0.01955
    84. RY*(   3) I   3                  0.01920
    85. RY*(   4) I   3                  0.01912
    86. RY*(   5) I   3                  0.01875
    87. RY*(   6) I   3                  0.00996
    88. RY*(   7) I   3                  0.00992
    89. RY*(   8) I   3                  0.00785
    90. RY*(   9) I   3                  0.00273
    91. RY*(  10) I   3                  0.00273
    92. RY*(  11) I   3                  0.00271
    93. RY*(  12) I   3                  0.00271
    94. RY*(  13) I   3                  0.00265
    95. RY*(  14) I   3                  0.00261
    96. RY*(  15) I   3                  0.00262
    97. RY*(  16) I   3                  0.00201
    98. RY*(  17) I   3                  0.00157
    99. RY*(  18) I   3                  0.00157
   100. RY*(  19) I   3                  0.00117
   101. RY*(  20) I   3                  0.00115
   102. RY*(  21) I   3                  0.00097
   103. RY*(  22) I   3                  0.00067
   104. RY*(  23) I   3                  0.00068
   105. RY*(  24) I   3                  0.00055
   106. RY*(  25) I   3                  0.00040
   107. RY*(  26) I   3                  0.00040
   108. RY*(  27) I   3                  0.00040
   109. RY*(  28) I   3                  0.00040
   110. RY*(  29) I   3                  0.00039
   111. RY*(  30) I   3                  0.00034
   112. RY*(  31) I   3                  0.00034
   113. RY*(  32) I   3                  0.00027
   114. RY*(  33) I   3                  0.00013
   115. RY*(  34) I   3                  0.00012
   116. RY*(  35) I   3                  0.00013
   117. RY*(  36) I   3                  0.00011
   118. RY*(  37) I   3                  0.00010
   119. RY*(  38) I   3                  0.00007
   120. RY*(  39) I   3                  0.00005
   121. RY*(  40) I   3                  0.00005
   122. RY*(  41) I   3                  0.00004
   123. RY*(  42) I   3                  0.00001
       -------------------------------
              Total Lewis   53.50999  ( 99.7079%)
        Valence non-Lewis    0.00000  (  0.0000%)
        Rydberg non-Lewis    0.15676  (  0.2921%)
       -------------------------------
            Total unit  2   53.66675  (100.0000%)
           Charge unit  2   -0.66675
 Leave Link  607 at Tue Oct 26 13:22:54 2021, MaxMem= 16106127360 cpu:              76.2 elap:               2.7
 (Enter /sw/contrib/gaussian/g16/B01/g16/l9999.exe)
 1\1\GINC-N2097\SP\RMP2-FC\Gen\H2I1O1(1-)\CGAVINH\26-Oct-2021\0\\#p pop
 =NBO SP NoSymm mp2/gen Pseudo=read density=current\\title\\-1,1\O\X,1,
 10.\H,1,0.96090774,2,90.\I,1,3.50850138,2,90.,3,101.85832019,0\H,1,1.4
 5,2,90.,3,101.85832019,0\\Version=ES64L-G16RevB.01\HF=-370.7365068\MP2
 =-371.2585616\RMSD=9.196e-09\Dipole=0.3231337,-0.805053,0.\Quadrupole=
 9.5780861,-18.3573488,8.7792627,-5.4383992,0.,0.\PG=CS [SG(H2I1O1)]\\@


 REPARTEE - WHAT YOU THINK OF AFTER YOU BECOME A DEPARTEE.
 Job cpu time:       0 days  0 hours  4 minutes 23.1 seconds.
 Elapsed time:       0 days  0 hours  0 minutes 12.1 seconds.
 File lengths (MBytes):  RWF=     11 Int=      0 D2E=      0 Chk=      8 Scr=      1
 Normal termination of Gaussian 16 at Tue Oct 26 13:22:55 2021.
