title                                                                   
SP        RMP2-FC                                                     Gen                 
Number of atoms                            I                4
Info1-9                                    I   N=           9
         144         135           0           0           0         110
           1           2           1
Charge                                     I               -1
Multiplicity                               I                1
Number of electrons                        I               36
Number of alpha electrons                  I               18
Number of beta electrons                   I               18
Number of basis functions                  I              191
Number of independent functions            I              147
Number of point charges in /Mol/           I                0
Number of translation vectors              I                0
Atomic numbers                             I   N=           4
           8           1          53           1
Nuclear charges                            R   N=           4
  8.00000000E+00  1.00000000E+00  2.50000000E+01  1.00000000E+00
Current cartesian coordinates              R   N=          12
  0.00000000E+00  0.00000000E+00  0.00000000E+00  1.81585239E+00  0.00000000E+00
  0.00000000E+00 -1.36243524E+00 -6.48861632E+00  0.00000000E+00 -2.91242803E-01
 -1.38704780E+00  0.00000000E+00
Force Field                                I                0
Int Atom Types                             I   N=           4
           0           0           0           0
MM charges                                 R   N=           4
  0.00000000E+00  0.00000000E+00  0.00000000E+00  0.00000000E+00
Integer atomic weights                     I   N=           4
          16           2         127           1
Real atomic weights                        R   N=           4
  1.59949146E+01  2.01410179E+00  1.26900400E+02  1.00782504E+00
Atom fragment info                         I   N=           4
           0           0           0           0
Atom residue num                           I   N=           4
           0           0           0           0
Nuclear spins                              I   N=           4
           0           2           5           1
Nuclear ZEff                               R   N=           4
 -5.60000000E+00 -1.00000000E+00 -5.83000000E+03 -1.00000000E+00
Nuclear ZNuc                               R   N=           4
  8.00000000E+00  1.00000000E+00  5.30000000E+01  1.00000000E+00
Nuclear QMom                               R   N=           4
  0.00000000E+00  2.86000000E-01 -7.10000000E+01  0.00000000E+00
Nuclear GFac                               R   N=           4
  0.00000000E+00  8.57438000E-01  2.81328000E+00  2.79284600E+00
MicOpt                                     I   N=           4
          -1          -1          -1          -1
Number of contracted shells                I               65
Number of primitive shells                 I              119
Pure/Cartesian d shells                    I                0
Pure/Cartesian f shells                    I                0
Highest angular momentum                   I                3
Largest degree of contraction              I                9
Shell types                                I   N=          65
           0           0           0           0           0           1
           1           1           1          -2          -2          -2
          -3          -3           0           0           0           0
           0           0           0           1           1           1
           1           1           1          -2          -2          -2
          -2           0           0           0           0           0
           0           1           1           1           1           1
          -2          -2          -2          -2          -3          -3
           0           0           0           0           0           0
           0           1           1           1           1           1
           1          -2          -2          -2          -2
Number of primitives per shell             I   N=          65
           7           6           1           1           1           3
           1           1           1           1           1           1
           1           1           3           1           1           1
           1           1           1           1           1           1
           1           1           1           1           1           1
           1           9           8           1           1           1
           1           8           8           1           1           1
           9           1           1           1           1           1
           3           1           1           1           1           1
           1           1           1           1           1           1
           1           1           1           1           1
Shell to atom map                          I   N=          65
           1           1           1           1           1           1
           1           1           1           1           1           1
           1           1           2           2           2           2
           2           2           2           2           2           2
           2           2           2           2           2           2
           2           3           3           3           3           3
           3           3           3           3           3           3
           3           3           3           3           3           3
           4           4           4           4           4           4
           4           4           4           4           4           4
           4           4           4           4           4
Primitive exponents                        R   N=         119
  1.53300000E+04  2.29900000E+03  5.22400000E+02  1.47300000E+02  4.75500000E+01
  1.67600000E+01  6.20700000E+00  5.22400000E+02  1.47300000E+02  4.75500000E+01
  1.67600000E+01  6.20700000E+00  6.88200000E-01  1.75200000E+00  2.38400000E-01
  7.37600000E-02  3.44600000E+01  7.74900000E+00  2.28000000E+00  7.15600000E-01
  2.14000000E-01  5.97400000E-02  2.31400000E+00  6.45000000E-01  2.14000000E-01
  1.42800000E+00  5.00000000E-01  3.38700000E+01  5.09500000E+00  1.15900000E+00
  3.25800000E-01  1.02700000E-01  2.52600000E-02  3.25800000E-01  1.02700000E-01
  2.52600000E-02  1.40700000E+00  3.88000000E-01  1.02000000E-01  1.40700000E+00
  3.88000000E-01  1.02000000E-01  1.05700000E+00  2.47000000E-01  1.05700000E+00
  2.47000000E-01  5.54650000E+03  8.38214000E+02  1.82187000E+02  3.12123000E+01
  1.95314000E+01  8.24099000E+00  2.19455000E+00  1.10911000E+00  8.10610000E-02
  5.54650000E+03  8.38214000E+02  3.12123000E+01  1.95314000E+01  8.24099000E+00
  2.19455000E+00  1.10911000E+00  8.10610000E-02  3.74641000E-01  1.77080000E-01
  1.00100000E-01  4.12000000E-02  1.88988000E+02  2.12868000E+01  1.00396000E+01
  3.45180000E+00  1.97456000E+00  1.02420000E+00  4.49437000E-01  7.34810000E-02
  1.88988000E+02  1.00396000E+01  3.45180000E+00  1.97456000E+00  1.02420000E+00
  4.49437000E-01  1.86648000E-01  7.34810000E-02  5.98100000E-01  9.61800000E-02
  3.59000000E-02  1.32662000E+02  3.76054000E+01  1.03891000E+01  6.49017000E+00
  3.45451000E+00  1.84413000E+00  9.62478000E-01  4.72853000E-01  1.93200000E-01
  4.72853000E-01  1.93200000E-01  7.82000000E-02  4.06400000E-01  1.84800000E-01
  3.38700000E+01  5.09500000E+00  1.15900000E+00  3.25800000E-01  1.02700000E-01
  2.52600000E-02  3.25800000E-01  1.02700000E-01  2.52600000E-02  1.40700000E+00
  3.88000000E-01  1.02000000E-01  1.40700000E+00  3.88000000E-01  1.02000000E-01
  1.05700000E+00  2.47000000E-01  1.05700000E+00  2.47000000E-01
Contraction coefficients                   R   N=         119
  5.19808943E-04  4.02025621E-03  2.07128267E-02  8.10105536E-02  2.35962985E-01
  4.42653446E-01  3.57064423E-01 -4.42115008E-05 -1.22591041E-03 -1.05517725E-02
 -6.74452633E-02 -1.71198607E-01  1.07329856E+00  1.00000000E+00  1.00000000E+00
  1.00000000E+00  4.11634896E-02  2.57762836E-01  8.02419274E-01  1.00000000E+00
  1.00000000E+00  1.00000000E+00  1.00000000E+00  1.00000000E+00  1.00000000E+00
  1.00000000E+00  1.00000000E+00  2.54948632E-02  1.90362766E-01  8.52162022E-01
  1.00000000E+00  1.00000000E+00  1.00000000E+00  1.00000000E+00  1.00000000E+00
  1.00000000E+00  1.00000000E+00  1.00000000E+00  1.00000000E+00  1.00000000E+00
  1.00000000E+00  1.00000000E+00  1.00000000E+00  1.00000000E+00  1.00000000E+00
  1.00000000E+00  1.58603022E-04  1.00211458E-03  2.83966410E-03 -4.40310212E-02
  2.38198152E-01 -7.63568980E-01  8.96516870E-01  4.68371203E-01  2.16251781E-03
 -2.17177846E-05 -2.59237305E-04 -1.50376554E-02  2.42214079E-02  6.99888661E-02
 -5.50491335E-01 -5.69654432E-01  3.76065139E-01  1.00000000E+00  1.00000000E+00
  1.00000000E+00  1.00000000E+00  5.85232173E-04  3.69335916E-02 -2.35399435E-01
  3.41625365E-01  5.34991615E-01  2.65244797E-01  2.54463150E-02  3.82802808E-04
 -6.76097015E-05  8.33123161E-03 -4.66496478E-02 -5.27406452E-02 -2.91398344E-02
  3.65650039E-01  5.48502805E-01  2.34644635E-01  1.00000000E+00  1.00000000E+00
  1.00000000E+00  5.72000072E-04  4.40200055E-03 -4.09220051E-02  9.96610125E-02
  3.22663040E-01  4.00343050E-01  2.68306034E-01  8.48470106E-02  7.63200096E-03
  1.00000000E+00  1.00000000E+00  1.00000000E+00  1.00000000E+00  1.00000000E+00
  2.54948632E-02  1.90362766E-01  8.52162022E-01  1.00000000E+00  1.00000000E+00
  1.00000000E+00  1.00000000E+00  1.00000000E+00  1.00000000E+00  1.00000000E+00
  1.00000000E+00  1.00000000E+00  1.00000000E+00  1.00000000E+00  1.00000000E+00
  1.00000000E+00  1.00000000E+00  1.00000000E+00  1.00000000E+00
Coordinates of each shell                  R   N=         195
  0.00000000E+00  0.00000000E+00  0.00000000E+00  0.00000000E+00  0.00000000E+00
  0.00000000E+00  0.00000000E+00  0.00000000E+00  0.00000000E+00  0.00000000E+00
  0.00000000E+00  0.00000000E+00  0.00000000E+00  0.00000000E+00  0.00000000E+00
  0.00000000E+00  0.00000000E+00  0.00000000E+00  0.00000000E+00  0.00000000E+00
  0.00000000E+00  0.00000000E+00  0.00000000E+00  0.00000000E+00  0.00000000E+00
  0.00000000E+00  0.00000000E+00  0.00000000E+00  0.00000000E+00  0.00000000E+00
  0.00000000E+00  0.00000000E+00  0.00000000E+00  0.00000000E+00  0.00000000E+00
  0.00000000E+00  0.00000000E+00  0.00000000E+00  0.00000000E+00  0.00000000E+00
  0.00000000E+00  0.00000000E+00  1.81585239E+00  0.00000000E+00  0.00000000E+00
  1.81585239E+00  0.00000000E+00  0.00000000E+00  1.81585239E+00  0.00000000E+00
  0.00000000E+00  1.81585239E+00  0.00000000E+00  0.00000000E+00  1.81585239E+00
  0.00000000E+00  0.00000000E+00  1.81585239E+00  0.00000000E+00  0.00000000E+00
  1.81585239E+00  0.00000000E+00  0.00000000E+00  1.81585239E+00  0.00000000E+00
  0.00000000E+00  1.81585239E+00  0.00000000E+00  0.00000000E+00  1.81585239E+00
  0.00000000E+00  0.00000000E+00  1.81585239E+00  0.00000000E+00  0.00000000E+00
  1.81585239E+00  0.00000000E+00  0.00000000E+00  1.81585239E+00  0.00000000E+00
  0.00000000E+00  1.81585239E+00  0.00000000E+00  0.00000000E+00  1.81585239E+00
  0.00000000E+00  0.00000000E+00  1.81585239E+00  0.00000000E+00  0.00000000E+00
  1.81585239E+00  0.00000000E+00  0.00000000E+00 -1.36243524E+00 -6.48861632E+00
  0.00000000E+00 -1.36243524E+00 -6.48861632E+00  0.00000000E+00 -1.36243524E+00
 -6.48861632E+00  0.00000000E+00 -1.36243524E+00 -6.48861632E+00  0.00000000E+00
 -1.36243524E+00 -6.48861632E+00  0.00000000E+00 -1.36243524E+00 -6.48861632E+00
  0.00000000E+00 -1.36243524E+00 -6.48861632E+00  0.00000000E+00 -1.36243524E+00
 -6.48861632E+00  0.00000000E+00 -1.36243524E+00 -6.48861632E+00  0.00000000E+00
 -1.36243524E+00 -6.48861632E+00  0.00000000E+00 -1.36243524E+00 -6.48861632E+00
  0.00000000E+00 -1.36243524E+00 -6.48861632E+00  0.00000000E+00 -1.36243524E+00
 -6.48861632E+00  0.00000000E+00 -1.36243524E+00 -6.48861632E+00  0.00000000E+00
 -1.36243524E+00 -6.48861632E+00  0.00000000E+00 -1.36243524E+00 -6.48861632E+00
  0.00000000E+00 -1.36243524E+00 -6.48861632E+00  0.00000000E+00 -2.91242803E-01
 -1.38704780E+00  0.00000000E+00 -2.91242803E-01 -1.38704780E+00  0.00000000E+00
 -2.91242803E-01 -1.38704780E+00  0.00000000E+00 -2.91242803E-01 -1.38704780E+00
  0.00000000E+00 -2.91242803E-01 -1.38704780E+00  0.00000000E+00 -2.91242803E-01
 -1.38704780E+00  0.00000000E+00 -2.91242803E-01 -1.38704780E+00  0.00000000E+00
 -2.91242803E-01 -1.38704780E+00  0.00000000E+00 -2.91242803E-01 -1.38704780E+00
  0.00000000E+00 -2.91242803E-01 -1.38704780E+00  0.00000000E+00 -2.91242803E-01
 -1.38704780E+00  0.00000000E+00 -2.91242803E-01 -1.38704780E+00  0.00000000E+00
 -2.91242803E-01 -1.38704780E+00  0.00000000E+00 -2.91242803E-01 -1.38704780E+00
  0.00000000E+00 -2.91242803E-01 -1.38704780E+00  0.00000000E+00 -2.91242803E-01
 -1.38704780E+00  0.00000000E+00 -2.91242803E-01 -1.38704780E+00  0.00000000E+00
Constraint Structure                       R   N=          12
  0.00000000E+00  0.00000000E+00  0.00000000E+00  1.81585239E+00  0.00000000E+00
  0.00000000E+00 -1.36243524E+00 -6.48861632E+00  0.00000000E+00 -2.91242803E-01
 -1.38704780E+00  0.00000000E+00
Num ILSW                                   I              100
ILSW                                       I   N=         100
           0           0           0           0           2           0
           0           0           0           0           0          -1
           0           0           0           0           0           0
           0           0           0           0           0           0
           1           1           0           0           0           0
           0           0      100000           0          -1           0
           0           0           0           0           0           0
           0           0           0           1           0           0
           0           0           1           0           0           0
           0           0           4          41           0           0
           0           0           0           0           0           0
           0           0           0           4           0           0
           0           0           0           0           0           0
           0           0           0           0           0           0
           0           0           0           0           0           0
           0           0           0           0           0           0
           0           0           0           0
Num RLSW                                   I               41
RLSW                                       R   N=          41
  1.00000000E+00  1.00000000E+00  1.00000000E+00  1.00000000E+00  1.00000000E+00
  0.00000000E+00  0.00000000E+00  1.00000000E+00  0.00000000E+00  0.00000000E+00
  0.00000000E+00  0.00000000E+00  1.00000000E+00  0.00000000E+00  0.00000000E+00
  0.00000000E+00  0.00000000E+00  1.00000000E+00  0.00000000E+00  0.00000000E+00
  0.00000000E+00  0.00000000E+00  1.00000000E+00  0.00000000E+00  0.00000000E+00
  0.00000000E+00  0.00000000E+00  1.00000000E+00  0.00000000E+00  0.00000000E+00
  0.00000000E+00  0.00000000E+00  1.00000000E+00  0.00000000E+00  0.00000000E+00
  0.00000000E+00  0.00000000E+00  0.00000000E+00  1.00000000E+00  1.00000000E+00
  0.00000000E+00
ECP-MxAtEC                                 I           250000
ECP-MaxLECP                                I               10
ECP-MaxAtL                                 I          2250000
ECP-MxTECP                                 I         11250000
ECP-LenNCZ                                 I               16
ECP-KFirst                                 I   N=          40
           0           0           1           0           0           0
           2           0           0           0           5           0
           0           0           9           0           0           0
          13           0           0           0           0           0
           0           0           0           0           0           0
           0           0           0           0           0           0
           0           0           0           0
ECP-KLast                                  I   N=          40
           0           0           1           0           0           0
           4           0           0           0           8           0
           0           0          12           0           0           0
          16           0           0           0           0           0
           0           0           0           0           0           0
           0           0           0           0           0           0
           0           0           0           0
ECP-LMax                                   I   N=           4
           0           0           4           0
ECP-LPSkip                                 I   N=           4
           1           1           0           1
ECP-RNFroz                                 R   N=           4
  0.00000000E+00  0.00000000E+00  2.80000000E+01  0.00000000E+00
ECP-NLP                                    I   N=          16
           2           2           2           2           2           2
           2           2           2           2           2           2
           2           2           2           2
ECP-CLP1                                   R   N=          16
  0.00000000E+00  4.99896490E+01  2.81006556E+02  6.14167390E+01  6.74162390E+01
  1.34807696E+02  1.45665480E+01  2.89684220E+01  3.55387560E+01  5.33397590E+01
  9.71646600E+00  1.49775000E+01 -2.01766180E+01 -2.60880770E+01 -2.20434000E-01
 -2.21646000E-01
ECP-CLP2                                   R   N=          16
  0.00000000E+00  0.00000000E+00  0.00000000E+00  0.00000000E+00  0.00000000E+00
  0.00000000E+00  0.00000000E+00  0.00000000E+00  0.00000000E+00  0.00000000E+00
  0.00000000E+00  0.00000000E+00  0.00000000E+00  0.00000000E+00  0.00000000E+00
  0.00000000E+00
ECP-ZLP                                    R   N=          16
  1.00000000E+00  4.00333760E+01  1.73005760E+01  8.85172000E+00  1.57201410E+01
  1.52082220E+01  8.29418600E+00  7.75394900E+00  1.38177510E+01  1.35878050E+01
  6.94763000E+00  6.96009900E+00  1.85229500E+01  1.82510350E+01  7.55790100E+00
  7.59740400E+00
MxBond                                     I                2
NBond                                      I   N=           4
           2           1           0           1
IBond                                      I   N=           8
           2           4           1           0           0           0
           1           0
RBond                                      R   N=           8
  1.00000000E+00  2.00000000E+00  1.00000000E+00  0.00000000E+00  0.00000000E+00
  0.00000000E+00  2.00000000E+00  0.00000000E+00
Virial Ratio                               R      2.977522591688058E+00
SCF Energy                                 R     -3.707486839089231E+02
MP2 Energy                                 R     -3.712344675349002E+02
Total Energy                               R     -3.712344675349002E+02
Post-SCF wavefunction norm                 R      1.071663905594293E+00
RMS Density                                R      2.963044835033055E-09
Job Status                                 I                1
Nuclear derivative order                   I                0
External E-field                           R   N=          35
  0.00000000E+00  0.00000000E+00  0.00000000E+00  0.00000000E+00  0.00000000E+00
  0.00000000E+00  0.00000000E+00  0.00000000E+00  0.00000000E+00  0.00000000E+00
  0.00000000E+00  0.00000000E+00  0.00000000E+00  0.00000000E+00  0.00000000E+00
  0.00000000E+00  0.00000000E+00  0.00000000E+00  0.00000000E+00  0.00000000E+00
  0.00000000E+00  0.00000000E+00  0.00000000E+00  0.00000000E+00  0.00000000E+00
  0.00000000E+00  0.00000000E+00  0.00000000E+00  0.00000000E+00  0.00000000E+00
  0.00000000E+00  0.00000000E+00  0.00000000E+00  0.00000000E+00  0.00000000E+00
IOpCl                                      I                0
IROHF                                      I                0
Alpha Orbital Energies                     R   N=         147
 -2.03934645E+01 -7.46085137E+00 -5.28630302E+00 -5.28616972E+00 -5.28615546E+00
 -2.01366342E+00 -2.01362481E+00 -2.01360906E+00 -2.01345447E+00 -2.01344728E+00
 -1.27445466E+00 -6.27992513E-01 -6.12847386E-01 -4.57982850E-01 -3.70482473E-01
 -1.40498316E-01 -1.36366976E-01 -1.36054917E-01  1.29513767E-01  1.67839673E-01
  2.34572628E-01  2.44942375E-01  2.54188572E-01  2.66127067E-01  2.79746310E-01
  2.84798765E-01  3.13506238E-01  3.31011386E-01  3.68483125E-01  3.73455626E-01
  3.75746226E-01  3.96453821E-01  4.07549483E-01  4.16492656E-01  4.54244455E-01
  4.74992852E-01  5.38662376E-01  5.44487373E-01  5.69949280E-01  6.01347250E-01
  6.63617522E-01  7.07981848E-01  7.72470319E-01  7.86530433E-01  7.87197261E-01
  7.99219800E-01  8.04839208E-01  8.05925060E-01  8.24892372E-01  8.44207684E-01
  8.55619355E-01  8.55968597E-01  8.71849372E-01  8.75087994E-01  8.83710641E-01
  8.88905269E-01  8.90948335E-01  9.02981963E-01  9.21031144E-01  9.74636208E-01
  9.86419746E-01  1.06996109E+00  1.07025745E+00  1.09057340E+00  1.09296353E+00
  1.12130533E+00  1.12721290E+00  1.15133014E+00  1.18243574E+00  1.20611625E+00
  1.33835416E+00  1.36762831E+00  1.38858093E+00  1.43380958E+00  1.46051012E+00
  1.53862364E+00  1.56424961E+00  1.66895264E+00  1.73460537E+00  1.75725144E+00
  1.75750084E+00  1.77479920E+00  1.78735321E+00  1.81228520E+00  1.81476028E+00
  1.84745841E+00  1.88134417E+00  1.88885225E+00  1.99966893E+00  2.05819669E+00
  2.06068427E+00  2.10406664E+00  2.10977362E+00  2.11671213E+00  2.17530963E+00
  2.27916897E+00  2.43228316E+00  2.49355455E+00  2.55818957E+00  2.59234754E+00
  2.63295173E+00  2.65901494E+00  2.80816984E+00  2.83513002E+00  2.85581632E+00
  2.95585289E+00  3.05348961E+00  3.06381073E+00  3.13597786E+00  3.22667596E+00
  3.25466136E+00  3.87034470E+00  3.97352896E+00  4.14762022E+00  4.26254004E+00
  4.34996276E+00  4.42376739E+00  4.52516116E+00  4.58005817E+00  4.64331866E+00
  4.66135918E+00  4.73789747E+00  4.78463899E+00  5.04391689E+00  5.19454157E+00
  5.39228054E+00  5.46517539E+00  5.60416117E+00  6.06369423E+00  6.08304593E+00
  6.49646156E+00  6.65242286E+00  6.75576528E+00  6.95538918E+00  7.23252507E+00
  7.39105596E+00  7.40101786E+00  7.41606954E+00  7.46093367E+00  7.92035882E+00
  8.03256638E+00  8.33926868E+00  8.48098711E+00  9.29033902E+00  9.68872717E+00
  2.14292322E+01  5.92168580E+01
Alpha MO coefficients                      R   N=       28077
  9.76579258E-01 -7.63178604E-03  4.45480967E-02  5.69814397E-03  3.68686070E-03
  1.12971485E-03 -1.61675175E-03  1.17585809E-16 -1.63621523E-03 -7.35638672E-04
 -2.06775288E-15 -1.81217928E-03 -1.88704854E-03  3.17317202E-15 -4.57811839E-04
 -7.54677656E-04  1.61065663E-15 -3.02232437E-04  4.92507596E-16  1.44244260E-15
 -3.66342815E-04  1.75521514E-04  3.91701884E-04  3.21777448E-16  1.44898388E-15
 -4.92011749E-04  3.30301915E-05  1.91389076E-04  1.36160570E-15 -8.82023927E-16
 -1.56826992E-04 -1.81961984E-04  1.23918409E-15  4.88595505E-05  1.64293308E-04
  1.10516813E-15 -1.15604946E-15  1.56067895E-04  2.00402715E-04 -1.02687513E-16
  7.83381908E-05 -2.42292814E-04 -1.35326111E-16 -1.18371656E-16 -3.24280387E-04
 -3.14566658E-04  4.92520757E-04  1.36526744E-03  1.74605775E-03  1.69638936E-04
  1.36526744E-03  1.74605775E-03  1.69638936E-04 -1.29946665E-04 -4.92135883E-06
 -7.86512265E-16 -7.37556782E-04  6.72228725E-05 -1.85624536E-15 -6.42394468E-04
 -2.15773281E-05 -5.35091047E-16 -1.29946665E-04 -4.92135883E-06  9.62127742E-16
 -7.37556782E-04  6.72228725E-05  8.71669707E-16 -6.42394468E-04 -2.15773281E-05
 -8.44314314E-16  6.07365887E-06  1.16683046E-15  5.16209931E-17 -3.68466841E-05
  1.98963651E-05 -1.33016577E-04  7.59112256E-16 -1.70659590E-15  2.08780213E-04
 -2.60091413E-05  6.07365887E-06 -1.12593919E-15 -6.01658751E-17 -3.68466841E-05
  1.98963651E-05 -1.33016577E-04  4.25004391E-16  1.87755712E-15  2.08780213E-04
 -2.60091413E-05 -6.71155734E-07  6.14502662E-08 -1.05922651E-04  1.12347019E-03
 -1.87832622E-03 -4.68469693E-04 -2.52414994E-06  1.77583521E-05 -5.03877492E-16
  1.45495914E-05  2.22946195E-04 -1.16285987E-15  1.20869075E-05 -1.32117256E-05
  4.99458418E-16 -2.49416643E-04 -1.41729992E-03  1.03788221E-15 -4.91158832E-05
 -2.29346056E-04 -1.32704819E-16  7.42654776E-06  2.70577759E-16  1.56197285E-16
  1.18905349E-05 -5.13607782E-06 -5.31200382E-05 -5.35720882E-17  3.73000449E-16
 -8.41285718E-05  3.73418086E-05  1.77630592E-04 -6.94940613E-17 -5.02708604E-16
  2.78878596E-04 -1.26666796E-04  2.26315806E-04  1.27848063E-16  9.69446117E-17
  3.71058425E-04 -1.26668999E-04  1.90043023E-17  2.09206485E-06 -5.76820529E-06
 -1.18647294E-16  3.31362595E-17  4.74955106E-07 -1.28745244E-05 -1.36980079E-16
  1.76571621E-05  1.14114976E-04 -3.88652842E-17  1.32747880E-16  7.60980582E-05
  1.34059830E-04  2.40238855E-04 -2.16531737E-03 -3.61786939E-03 -2.22755154E-04
 -2.16531737E-03 -3.61786939E-03 -2.22755154E-04 -6.61515818E-05 -4.64423311E-04
  1.18393641E-15 -1.56542073E-04 -8.29027724E-04  1.67304158E-16 -5.65866875E-04
 -2.03470937E-03 -1.44100637E-15 -6.61515818E-05 -4.64423311E-04  1.18393641E-15
 -1.56542073E-04 -8.29027724E-04  1.67304158E-16 -5.65866875E-04 -2.03470937E-03
 -7.16376543E-16  2.14380262E-04  1.92236717E-17  1.10062814E-15  3.64485725E-04
 -1.27507884E-04 -8.54684016E-05 -2.72618060E-16 -1.01718624E-15 -1.51549910E-04
  6.96831280E-05  2.14380262E-04  1.92236717E-17  1.10062814E-15  3.64485725E-04
 -1.27507884E-04 -8.54684016E-05 -2.72618060E-16  3.38469198E-16 -1.51549910E-04
  6.96831280E-05  1.76776903E-06 -7.34791058E-07 -1.97470115E-06 -1.32912890E-04
 -1.40666788E-04  8.17493287E-07  3.74977555E-06  4.02652491E-17  1.67326779E-07
  1.08612415E-05  1.16290521E-15  3.70559900E-05  2.73690834E-05  7.42521192E-15
  6.18708223E-05 -2.84380765E-05  1.09893012E-15 -1.51852452E-07  1.67035469E-16
 -1.00811423E-16  9.56996903E-07  5.74086059E-08  1.11589955E-05 -2.13074748E-16
 -1.35276068E-15  6.06829509E-06 -1.08100662E-05  3.92307536E-07 -1.57499316E-15
 -3.69237963E-15 -2.96833921E-06 -1.99377899E-05  1.85100790E-16 -1.35445918E-07
 -1.48895614E-06 -2.93159196E-17 -2.69200996E-17 -1.33276913E-06 -1.83472419E-06
 -4.45338242E-16 -1.42208782E-06 -3.40287540E-06 -1.51688333E-15  1.57332758E-16
 -7.12378969E-06 -8.67651315E-07  2.15002634E-07  1.47063625E-05 -6.56024382E-07
 -6.29771906E-05  1.47063625E-05 -6.56024381E-07 -6.29771906E-05 -3.64047853E-07
  1.13924256E-07 -1.86194964E-16 -7.79846912E-06 -4.89875398E-07  1.13140771E-16
 -4.42023902E-06 -3.30700809E-06  5.49501216E-16 -3.64047854E-07  1.13924255E-07
  2.63645160E-16 -7.79846912E-06 -4.89875398E-07  8.71968174E-16 -4.42023902E-06
 -3.30700809E-06  3.07856182E-16 -2.83405108E-07 -2.42524380E-16  1.67183003E-16
  3.41318778E-07 -3.06058967E-07 -1.09030428E-06 -3.39322364E-16  6.67578255E-16
  2.26564962E-06 -8.87259510E-07 -2.83405108E-07  4.60815764E-17 -2.16285707E-16
  3.41318777E-07 -3.06058966E-07 -1.09030428E-06  1.59938139E-16 -3.93840546E-16
  2.26564962E-06 -8.87259511E-07  9.83176079E-01 -2.62483477E-03  2.28895877E-02
 -5.94395891E-03  1.71761552E-03 -7.17322896E-04  9.11010764E-05  5.67237166E-05
 -3.48048851E-16 -2.05463842E-05 -6.17303912E-05 -2.18870374E-16  2.32959335E-05
  5.89803846E-05  5.61216505E-17  2.32196277E-05  9.15054911E-05  2.14653111E-16
 -1.02701996E-05 -1.07390493E-04  6.36027176E-16 -9.70557988E-06 -3.12121027E-17
  2.16707794E-16  1.00892806E-05  2.08087528E-05 -2.81384882E-06  2.10403715E-16
 -6.74165425E-16 -2.54275581E-06  2.94514928E-06 -2.26604888E-06 -3.05931886E-16
  3.25633460E-16 -9.65935364E-06 -1.53436991E-06  4.77206937E-06  4.06339759E-16
  6.62262636E-16  1.61089861E-05  3.97803033E-06 -1.70363328E-17  1.95810636E-08
 -2.77083348E-06  1.87185878E-16 -1.01630218E-16 -1.29659669E-06 -5.30462436E-06
 -1.67767614E-16 -1.73557779E-07  3.91028619E-06 -4.53654060E-16  1.76736509E-16
  1.37849282E-06  7.77150573E-06  6.97140354E-06  2.81516828E-05  5.90590623E-05
  1.52113487E-04  2.81516828E-05  5.90590623E-05  1.52113487E-04  1.00988466E-06
  5.75575912E-06  5.08077429E-17 -1.58807560E-05 -6.19722736E-06 -3.24250144E-15
 -2.18071128E-05  5.45200789E-05 -3.09436401E-15  1.00988466E-06  5.75575912E-06
  5.08077429E-17 -1.58807560E-05 -6.19722736E-06 -3.24250144E-15 -2.18071128E-05
  5.45200789E-05 -3.50164398E-15 -1.61842069E-06  1.98032634E-18 -3.01043397E-16
 -2.64780962E-06  3.62624668E-08 -4.56038511E-06 -1.70950529E-16 -7.77591872E-16
 -1.22196626E-05 -3.90371368E-06 -1.61842069E-06  1.98032634E-18 -3.01043397E-16
 -2.64780962E-06  3.62624668E-08 -4.56038511E-06 -1.70950529E-16 -1.43647197E-15
 -1.22196626E-05 -3.90371369E-06  2.08501893E-06 -5.51737065E-06 -3.29614285E-06
 -1.00870781E-04 -6.56126440E-05  9.40020305E-07  5.87332864E-06 -5.17142447E-17
  1.82914079E-06  1.80739526E-05 -9.33080562E-17  1.94002407E-05  2.92211452E-05
 -3.59651776E-15  4.68104355E-06  6.08610637E-06  8.80372174E-16  7.48563261E-07
 -7.75067414E-16 -1.06858985E-16  1.84530690E-06 -7.78671984E-08  7.77662219E-06
  1.82181135E-15  1.13100703E-15  2.15282112E-06 -9.05672310E-06  4.68077484E-06
  5.13690013E-16  1.09768165E-15 -1.15308610E-05  4.56334280E-06  1.22134848E-16
 -1.48401866E-07 -1.43710601E-06 -8.78522533E-18 -4.32448785E-17 -2.28620817E-06
 -2.03810315E-06 -4.04337370E-16 -2.51539451E-07 -9.21505682E-07  6.21689651E-16
 -5.31271780E-16  4.34064229E-08  4.16756834E-06 -4.04544619E-07  2.33310020E-05
 -1.11560513E-06  1.02591098E-05  2.33310019E-05 -1.11560513E-06  1.02591098E-05
 -3.68887613E-07 -4.73940199E-07  1.19002618E-15 -9.52650339E-06 -2.42662833E-06
 -1.43409297E-15  2.23269447E-06 -2.36732885E-06 -1.05504127E-15 -3.68887613E-07