title                                                                   
SP        RMP2-FC                                                     Gen                 
Number of atoms                            I                4
Info1-9                                    I   N=           9
         144         135           0           0           0         110
           1           2           1
Charge                                     I               -1
Multiplicity                               I                1
Number of electrons                        I               36
Number of alpha electrons                  I               18
Number of beta electrons                   I               18
Number of basis functions                  I              191
Number of independent functions            I              147
Number of point charges in /Mol/           I                0
Number of translation vectors              I                0
Atomic numbers                             I   N=           4
           8           1          53           1
Nuclear charges                            R   N=           4
  8.00000000E+00  1.00000000E+00  2.50000000E+01  1.00000000E+00
Current cartesian coordinates              R   N=          12
  0.00000000E+00  0.00000000E+00  0.00000000E+00  1.81585239E+00  0.00000000E+00
  0.00000000E+00 -1.36243524E+00 -6.48861632E+00  0.00000000E+00 -5.82485606E-01
 -2.77409561E+00  0.00000000E+00
Force Field                                I                0
Int Atom Types                             I   N=           4
           0           0           0           0
MM charges                                 R   N=           4
  0.00000000E+00  0.00000000E+00  0.00000000E+00  0.00000000E+00
Integer atomic weights                     I   N=           4
          16           2         127           1
Real atomic weights                        R   N=           4
  1.59949146E+01  2.01410179E+00  1.26900400E+02  1.00782504E+00
Atom fragment info                         I   N=           4
           0           0           0           0
Atom residue num                           I   N=           4
           0           0           0           0
Nuclear spins                              I   N=           4
           0           2           5           1
Nuclear ZEff                               R   N=           4
 -5.60000000E+00 -1.00000000E+00 -5.83000000E+03 -1.00000000E+00
Nuclear ZNuc                               R   N=           4
  8.00000000E+00  1.00000000E+00  5.30000000E+01  1.00000000E+00
Nuclear QMom                               R   N=           4
  0.00000000E+00  2.86000000E-01 -7.10000000E+01  0.00000000E+00
Nuclear GFac                               R   N=           4
  0.00000000E+00  8.57438000E-01  2.81328000E+00  2.79284600E+00
MicOpt                                     I   N=           4
          -1          -1          -1          -1
Number of contracted shells                I               65
Number of primitive shells                 I              119
Pure/Cartesian d shells                    I                0
Pure/Cartesian f shells                    I                0
Highest angular momentum                   I                3
Largest degree of contraction              I                9
Shell types                                I   N=          65
           0           0           0           0           0           1
           1           1           1          -2          -2          -2
          -3          -3           0           0           0           0
           0           0           0           1           1           1
           1           1           1          -2          -2          -2
          -2           0           0           0           0           0
           0           1           1           1           1           1
          -2          -2          -2          -2          -3          -3
           0           0           0           0           0           0
           0           1           1           1           1           1
           1          -2          -2          -2          -2
Number of primitives per shell             I   N=          65
           7           6           1           1           1           3
           1           1           1           1           1           1
           1           1           3           1           1           1
           1           1           1           1           1           1
           1           1           1           1           1           1
           1           9           8           1           1           1
           1           8           8           1           1           1
           9           1           1           1           1           1
           3           1           1           1           1           1
           1           1           1           1           1           1
           1           1           1           1           1
Shell to atom map                          I   N=          65
           1           1           1           1           1           1
           1           1           1           1           1           1
           1           1           2           2           2           2
           2           2           2           2           2           2
           2           2           2           2           2           2
           2           3           3           3           3           3
           3           3           3           3           3           3
           3           3           3           3           3           3
           4           4           4           4           4           4
           4           4           4           4           4           4
           4           4           4           4           4
Primitive exponents                        R   N=         119
  1.53300000E+04  2.29900000E+03  5.22400000E+02  1.47300000E+02  4.75500000E+01
  1.67600000E+01  6.20700000E+00  5.22400000E+02  1.47300000E+02  4.75500000E+01
  1.67600000E+01  6.20700000E+00  6.88200000E-01  1.75200000E+00  2.38400000E-01
  7.37600000E-02  3.44600000E+01  7.74900000E+00  2.28000000E+00  7.15600000E-01
  2.14000000E-01  5.97400000E-02  2.31400000E+00  6.45000000E-01  2.14000000E-01
  1.42800000E+00  5.00000000E-01  3.38700000E+01  5.09500000E+00  1.15900000E+00
  3.25800000E-01  1.02700000E-01  2.52600000E-02  3.25800000E-01  1.02700000E-01
  2.52600000E-02  1.40700000E+00  3.88000000E-01  1.02000000E-01  1.40700000E+00
  3.88000000E-01  1.02000000E-01  1.05700000E+00  2.47000000E-01  1.05700000E+00
  2.47000000E-01  5.54650000E+03  8.38214000E+02  1.82187000E+02  3.12123000E+01
  1.95314000E+01  8.24099000E+00  2.19455000E+00  1.10911000E+00  8.10610000E-02
  5.54650000E+03  8.38214000E+02  3.12123000E+01  1.95314000E+01  8.24099000E+00
  2.19455000E+00  1.10911000E+00  8.10610000E-02  3.74641000E-01  1.77080000E-01
  1.00100000E-01  4.12000000E-02  1.88988000E+02  2.12868000E+01  1.00396000E+01
  3.45180000E+00  1.97456000E+00  1.02420000E+00  4.49437000E-01  7.34810000E-02
  1.88988000E+02  1.00396000E+01  3.45180000E+00  1.97456000E+00  1.02420000E+00
  4.49437000E-01  1.86648000E-01  7.34810000E-02  5.98100000E-01  9.61800000E-02
  3.59000000E-02  1.32662000E+02  3.76054000E+01  1.03891000E+01  6.49017000E+00
  3.45451000E+00  1.84413000E+00  9.62478000E-01  4.72853000E-01  1.93200000E-01
  4.72853000E-01  1.93200000E-01  7.82000000E-02  4.06400000E-01  1.84800000E-01
  3.38700000E+01  5.09500000E+00  1.15900000E+00  3.25800000E-01  1.02700000E-01
  2.52600000E-02  3.25800000E-01  1.02700000E-01  2.52600000E-02  1.40700000E+00
  3.88000000E-01  1.02000000E-01  1.40700000E+00  3.88000000E-01  1.02000000E-01
  1.05700000E+00  2.47000000E-01  1.05700000E+00  2.47000000E-01
Contraction coefficients                   R   N=         119
  5.19808943E-04  4.02025621E-03  2.07128267E-02  8.10105536E-02  2.35962985E-01
  4.42653446E-01  3.57064423E-01 -4.42115008E-05 -1.22591041E-03 -1.05517725E-02
 -6.74452633E-02 -1.71198607E-01  1.07329856E+00  1.00000000E+00  1.00000000E+00
  1.00000000E+00  4.11634896E-02  2.57762836E-01  8.02419274E-01  1.00000000E+00
  1.00000000E+00  1.00000000E+00  1.00000000E+00  1.00000000E+00  1.00000000E+00
  1.00000000E+00  1.00000000E+00  2.54948632E-02  1.90362766E-01  8.52162022E-01
  1.00000000E+00  1.00000000E+00  1.00000000E+00  1.00000000E+00  1.00000000E+00
  1.00000000E+00  1.00000000E+00  1.00000000E+00  1.00000000E+00  1.00000000E+00
  1.00000000E+00  1.00000000E+00  1.00000000E+00  1.00000000E+00  1.00000000E+00
  1.00000000E+00  1.58603022E-04  1.00211458E-03  2.83966410E-03 -4.40310212E-02
  2.38198152E-01 -7.63568980E-01  8.96516870E-01  4.68371203E-01  2.16251781E-03
 -2.17177846E-05 -2.59237305E-04 -1.50376554E-02  2.42214079E-02  6.99888661E-02
 -5.50491335E-01 -5.69654432E-01  3.76065139E-01  1.00000000E+00  1.00000000E+00
  1.00000000E+00  1.00000000E+00  5.85232173E-04  3.69335916E-02 -2.35399435E-01
  3.41625365E-01  5.34991615E-01  2.65244797E-01  2.54463150E-02  3.82802808E-04
 -6.76097015E-05  8.33123161E-03 -4.66496478E-02 -5.27406452E-02 -2.91398344E-02
  3.65650039E-01  5.48502805E-01  2.34644635E-01  1.00000000E+00  1.00000000E+00
  1.00000000E+00  5.72000072E-04  4.40200055E-03 -4.09220051E-02  9.96610125E-02
  3.22663040E-01  4.00343050E-01  2.68306034E-01  8.48470106E-02  7.63200096E-03
  1.00000000E+00  1.00000000E+00  1.00000000E+00  1.00000000E+00  1.00000000E+00
  2.54948632E-02  1.90362766E-01  8.52162022E-01  1.00000000E+00  1.00000000E+00
  1.00000000E+00  1.00000000E+00  1.00000000E+00  1.00000000E+00  1.00000000E+00
  1.00000000E+00  1.00000000E+00  1.00000000E+00  1.00000000E+00  1.00000000E+00
  1.00000000E+00  1.00000000E+00  1.00000000E+00  1.00000000E+00
Coordinates of each shell                  R   N=         195
  0.00000000E+00  0.00000000E+00  0.00000000E+00  0.00000000E+00  0.00000000E+00
  0.00000000E+00  0.00000000E+00  0.00000000E+00  0.00000000E+00  0.00000000E+00
  0.00000000E+00  0.00000000E+00  0.00000000E+00  0.00000000E+00  0.00000000E+00
  0.00000000E+00  0.00000000E+00  0.00000000E+00  0.00000000E+00  0.00000000E+00
  0.00000000E+00  0.00000000E+00  0.00000000E+00  0.00000000E+00  0.00000000E+00
  0.00000000E+00  0.00000000E+00  0.00000000E+00  0.00000000E+00  0.00000000E+00
  0.00000000E+00  0.00000000E+00  0.00000000E+00  0.00000000E+00  0.00000000E+00
  0.00000000E+00  0.00000000E+00  0.00000000E+00  0.00000000E+00  0.00000000E+00
  0.00000000E+00  0.00000000E+00  1.81585239E+00  0.00000000E+00  0.00000000E+00
  1.81585239E+00  0.00000000E+00  0.00000000E+00  1.81585239E+00  0.00000000E+00
  0.00000000E+00  1.81585239E+00  0.00000000E+00  0.00000000E+00  1.81585239E+00
  0.00000000E+00  0.00000000E+00  1.81585239E+00  0.00000000E+00  0.00000000E+00
  1.81585239E+00  0.00000000E+00  0.00000000E+00  1.81585239E+00  0.00000000E+00
  0.00000000E+00  1.81585239E+00  0.00000000E+00  0.00000000E+00  1.81585239E+00
  0.00000000E+00  0.00000000E+00  1.81585239E+00  0.00000000E+00  0.00000000E+00
  1.81585239E+00  0.00000000E+00  0.00000000E+00  1.81585239E+00  0.00000000E+00
  0.00000000E+00  1.81585239E+00  0.00000000E+00  0.00000000E+00  1.81585239E+00
  0.00000000E+00  0.00000000E+00  1.81585239E+00  0.00000000E+00  0.00000000E+00
  1.81585239E+00  0.00000000E+00  0.00000000E+00 -1.36243524E+00 -6.48861632E+00
  0.00000000E+00 -1.36243524E+00 -6.48861632E+00  0.00000000E+00 -1.36243524E+00
 -6.48861632E+00  0.00000000E+00 -1.36243524E+00 -6.48861632E+00  0.00000000E+00
 -1.36243524E+00 -6.48861632E+00  0.00000000E+00 -1.36243524E+00 -6.48861632E+00
  0.00000000E+00 -1.36243524E+00 -6.48861632E+00  0.00000000E+00 -1.36243524E+00
 -6.48861632E+00  0.00000000E+00 -1.36243524E+00 -6.48861632E+00  0.00000000E+00
 -1.36243524E+00 -6.48861632E+00  0.00000000E+00 -1.36243524E+00 -6.48861632E+00
  0.00000000E+00 -1.36243524E+00 -6.48861632E+00  0.00000000E+00 -1.36243524E+00
 -6.48861632E+00  0.00000000E+00 -1.36243524E+00 -6.48861632E+00  0.00000000E+00
 -1.36243524E+00 -6.48861632E+00  0.00000000E+00 -1.36243524E+00 -6.48861632E+00
  0.00000000E+00 -1.36243524E+00 -6.48861632E+00  0.00000000E+00 -5.82485606E-01
 -2.77409561E+00  0.00000000E+00 -5.82485606E-01 -2.77409561E+00  0.00000000E+00
 -5.82485606E-01 -2.77409561E+00  0.00000000E+00 -5.82485606E-01 -2.77409561E+00
  0.00000000E+00 -5.82485606E-01 -2.77409561E+00  0.00000000E+00 -5.82485606E-01
 -2.77409561E+00  0.00000000E+00 -5.82485606E-01 -2.77409561E+00  0.00000000E+00
 -5.82485606E-01 -2.77409561E+00  0.00000000E+00 -5.82485606E-01 -2.77409561E+00
  0.00000000E+00 -5.82485606E-01 -2.77409561E+00  0.00000000E+00 -5.82485606E-01
 -2.77409561E+00  0.00000000E+00 -5.82485606E-01 -2.77409561E+00  0.00000000E+00
 -5.82485606E-01 -2.77409561E+00  0.00000000E+00 -5.82485606E-01 -2.77409561E+00
  0.00000000E+00 -5.82485606E-01 -2.77409561E+00  0.00000000E+00 -5.82485606E-01
 -2.77409561E+00  0.00000000E+00 -5.82485606E-01 -2.77409561E+00  0.00000000E+00
Constraint Structure                       R   N=          12
  0.00000000E+00  0.00000000E+00  0.00000000E+00  1.81585239E+00  0.00000000E+00
  0.00000000E+00 -1.36243524E+00 -6.48861632E+00  0.00000000E+00 -5.82485606E-01
 -2.77409561E+00  0.00000000E+00
Num ILSW                                   I              100
ILSW                                       I   N=         100
           0           0           0           0           2           0
           0           0           0           0           0          -1
           0           0           0           0           0           0
           0           0           0           0           0           0
           1           1           0           0           0           0
           0           0      100000           0          -1           0
           0           0           0           0           0           0
           0           0           0           1           0           0
           0           0           1           0           0           0
           0           0           4          41           0           0
           0           0           0           0           0           0
           0           0           0           4           0           0
           0           0           0           0           0           0
           0           0           0           0           0           0
           0           0           0           0           0           0
           0           0           0           0           0           0
           0           0           0           0
Num RLSW                                   I               41
RLSW                                       R   N=          41
  1.00000000E+00  1.00000000E+00  1.00000000E+00  1.00000000E+00  1.00000000E+00
  0.00000000E+00  0.00000000E+00  1.00000000E+00  0.00000000E+00  0.00000000E+00
  0.00000000E+00  0.00000000E+00  1.00000000E+00  0.00000000E+00  0.00000000E+00
  0.00000000E+00  0.00000000E+00  1.00000000E+00  0.00000000E+00  0.00000000E+00
  0.00000000E+00  0.00000000E+00  1.00000000E+00  0.00000000E+00  0.00000000E+00
  0.00000000E+00  0.00000000E+00  1.00000000E+00  0.00000000E+00  0.00000000E+00
  0.00000000E+00  0.00000000E+00  1.00000000E+00  0.00000000E+00  0.00000000E+00
  0.00000000E+00  0.00000000E+00  0.00000000E+00  1.00000000E+00  1.00000000E+00
  0.00000000E+00
ECP-MxAtEC                                 I           250000
ECP-MaxLECP                                I               10
ECP-MaxAtL                                 I          2250000
ECP-MxTECP                                 I         11250000
ECP-LenNCZ                                 I               16
ECP-KFirst                                 I   N=          40
           0           0           1           0           0           0
           2           0           0           0           5           0
           0           0           9           0           0           0
          13           0           0           0           0           0
           0           0           0           0           0           0
           0           0           0           0           0           0
           0           0           0           0
ECP-KLast                                  I   N=          40
           0           0           1           0           0           0
           4           0           0           0           8           0
           0           0          12           0           0           0
          16           0           0           0           0           0
           0           0           0           0           0           0
           0           0           0           0           0           0
           0           0           0           0
ECP-LMax                                   I   N=           4
           0           0           4           0
ECP-LPSkip                                 I   N=           4
           1           1           0           1
ECP-RNFroz                                 R   N=           4
  0.00000000E+00  0.00000000E+00  2.80000000E+01  0.00000000E+00
ECP-NLP                                    I   N=          16
           2           2           2           2           2           2
           2           2           2           2           2           2
           2           2           2           2
ECP-CLP1                                   R   N=          16
  0.00000000E+00  4.99896490E+01  2.81006556E+02  6.14167390E+01  6.74162390E+01
  1.34807696E+02  1.45665480E+01  2.89684220E+01  3.55387560E+01  5.33397590E+01
  9.71646600E+00  1.49775000E+01 -2.01766180E+01 -2.60880770E+01 -2.20434000E-01
 -2.21646000E-01
ECP-CLP2                                   R   N=          16
  0.00000000E+00  0.00000000E+00  0.00000000E+00  0.00000000E+00  0.00000000E+00
  0.00000000E+00  0.00000000E+00  0.00000000E+00  0.00000000E+00  0.00000000E+00
  0.00000000E+00  0.00000000E+00  0.00000000E+00  0.00000000E+00  0.00000000E+00
  0.00000000E+00
ECP-ZLP                                    R   N=          16
  1.00000000E+00  4.00333760E+01  1.73005760E+01  8.85172000E+00  1.57201410E+01
  1.52082220E+01  8.29418600E+00  7.75394900E+00  1.38177510E+01  1.35878050E+01
  6.94763000E+00  6.96009900E+00  1.85229500E+01  1.82510350E+01  7.55790100E+00
  7.59740400E+00
MxBond                                     I                1
NBond                                      I   N=           4
           1           1           0           0
IBond                                      I   N=           4
           2           1           0           0
RBond                                      R   N=           4
  1.00000000E+00  1.00000000E+00  0.00000000E+00  0.00000000E+00
Virial Ratio                               R      2.987531069205202E+00
SCF Energy                                 R     -3.707295555673821E+02
MP2 Energy                                 R     -3.712533515646952E+02
Total Energy                               R     -3.712533515646952E+02
Post-SCF wavefunction norm                 R      1.085040858523686E+00
RMS Density                                R      9.887802185568675E-09
Job Status                                 I                1
Nuclear derivative order                   I                0
External E-field                           R   N=          35
  0.00000000E+00  0.00000000E+00  0.00000000E+00  0.00000000E+00  0.00000000E+00
  0.00000000E+00  0.00000000E+00  0.00000000E+00  0.00000000E+00  0.00000000E+00
  0.00000000E+00  0.00000000E+00  0.00000000E+00  0.00000000E+00  0.00000000E+00
  0.00000000E+00  0.00000000E+00  0.00000000E+00  0.00000000E+00  0.00000000E+00
  0.00000000E+00  0.00000000E+00  0.00000000E+00  0.00000000E+00  0.00000000E+00
  0.00000000E+00  0.00000000E+00  0.00000000E+00  0.00000000E+00  0.00000000E+00
  0.00000000E+00  0.00000000E+00  0.00000000E+00  0.00000000E+00  0.00000000E+00
IOpCl                                      I                0
IROHF                                      I                0
Alpha Orbital Energies                     R   N=         147
 -2.03295639E+01 -7.50887374E+00 -5.33600976E+00 -5.33338949E+00 -5.33333604E+00
 -2.06401717E+00 -2.06259799E+00 -2.06253891E+00 -2.05966969E+00 -2.05966951E+00
 -1.04964432E+00 -6.74880262E-01 -4.01513435E-01 -3.23054244E-01 -2.53960980E-01
 -1.78489942E-01 -1.77685475E-01 -1.76336400E-01  1.47843628E-01  1.67197454E-01
  2.25033864E-01  2.37664771E-01  2.39588519E-01  2.83527242E-01  3.02395902E-01
  3.12156581E-01  3.15944422E-01  3.43721668E-01  3.57828903E-01  3.58583031E-01
  3.62174174E-01  3.88631605E-01  3.95625067E-01  4.44321135E-01  4.57990951E-01
  4.63507356E-01  4.94231831E-01  5.54473775E-01  5.76442698E-01  6.26406805E-01
  6.58242098E-01  7.03705452E-01  7.47459107E-01  7.48239418E-01  7.58471980E-01
  7.68652670E-01  7.69652826E-01  7.80553013E-01  8.15431750E-01  8.28403580E-01
  8.40736204E-01  8.55629732E-01  8.55912080E-01  8.60272826E-01  8.81683634E-01
  9.24254861E-01  9.31536341E-01  9.44685334E-01  9.56336070E-01  1.00663587E+00
  1.04623166E+00  1.09029651E+00  1.10111839E+00  1.12672214E+00  1.14588602E+00
  1.14871615E+00  1.19102992E+00  1.22022747E+00  1.24062133E+00  1.25182010E+00
  1.25888513E+00  1.37376818E+00  1.37698294E+00  1.50332019E+00  1.50371893E+00
  1.51876636E+00  1.57116101E+00  1.68172281E+00  1.71631586E+00  1.71700087E+00
  1.72088767E+00  1.72537602E+00  1.73426697E+00  1.75591867E+00  1.75882137E+00
  1.82542161E+00  1.88299043E+00  1.91148088E+00  1.97676668E+00  2.01907544E+00
  2.02351723E+00  2.02753477E+00  2.05754755E+00  2.11438929E+00  2.17309130E+00
  2.34530188E+00  2.43305483E+00  2.51320891E+00  2.56752901E+00  2.57442862E+00
  2.61644035E+00  2.63318766E+00  2.73434438E+00  2.78829314E+00  2.85979657E+00
  2.87390542E+00  2.98323174E+00  3.02210744E+00  3.18893602E+00  3.41784786E+00
  3.41835169E+00  3.61978802E+00  3.90892274E+00  4.13037908E+00  4.13873264E+00
  4.31263999E+00  4.31956323E+00  4.39522368E+00  4.39529276E+00  4.43608311E+00
  4.50997255E+00  4.54129101E+00  4.58961936E+00  4.60031150E+00  4.72405883E+00
  4.83421192E+00  5.07876268E+00  5.19182176E+00  5.40403630E+00  5.52030542E+00
  5.59556111E+00  5.91145218E+00  6.50886808E+00  6.92747014E+00  7.01599727E+00
  7.07504577E+00  7.09654583E+00  7.43641309E+00  7.47502403E+00  7.51860390E+00
  7.54544824E+00  7.55731600E+00  7.75846335E+00  7.84817887E+00  8.46815612E+00
  1.44982159E+01  5.91779373E+01
Alpha MO coefficients                      R   N=       28077
  9.76861683E-01 -9.09265663E-03  4.32779594E-02  2.65726575E-03  1.43302170E-03
  1.38379583E-03 -6.32329563E-04 -3.68906764E-16 -1.30467157E-03  5.61912712E-04
  1.37403830E-15 -1.13707324E-05 -7.73671592E-04 -2.19262668E-15  1.20814869E-05
 -4.67487905E-04 -6.18018076E-16 -3.79765713E-06 -2.75831566E-17  4.54598200E-18
  9.41698371E-05 -9.23074793E-06  3.55372431E-04  5.05016343E-16  1.08316447E-16
 -4.02141440E-04 -7.55134057E-05 -1.47822327E-04 -1.83250118E-16  7.33078873E-16
  8.92878194E-05 -3.15273372E-05  1.48011681E-16  2.43608306E-05 -7.07422172E-06
 -5.68316453E-16 -4.72367912E-17 -1.90604761E-05  2.23789375E-06  1.16206122E-16
  4.64161195E-05  1.33050285E-05  8.61854323E-16 -1.00022976E-16 -9.40132111E-05
  1.02970382E-05  5.38719371E-04  5.75618292E-04 -2.61402862E-05  1.01016633E-05
  5.75618292E-04 -2.61402862E-05  1.01016633E-05 -1.32351709E-04 -1.28278361E-05
 -2.32701301E-16 -5.26498357E-04  5.47089660E-05  2.98422716E-16 -1.24534030E-04
  6.72883182E-05  1.44819592E-15 -1.32351709E-04 -1.28278361E-05  3.15894502E-16
 -5.26498357E-04  5.47089660E-05 -1.01198359E-15 -1.24534030E-04  6.72883182E-05
  1.04743495E-16  2.17768537E-05  3.90404455E-16  2.41887015E-16 -3.62530590E-05
  1.04638382E-05 -1.24413566E-04 -6.37149698E-16  3.79177501E-17  2.50478255E-04
 -5.08842059E-05  2.17768537E-05 -2.27544980E-17 -1.50769141E-16 -3.62530590E-05
  1.04638382E-05 -1.24413566E-04  1.74811423E-16 -6.60661172E-17  2.50478255E-04
 -5.08842059E-05  5.22237730E-06 -3.54330649E-06  7.10210401E-05  6.49759407E-04
 -3.69298569E-03 -7.60692820E-04 -2.24402181E-05 -1.12468034E-04 -3.60261471E-17
 -1.39089727E-04 -7.24558039E-04 -3.00264111E-16  5.71416699E-05  2.76308345E-04
  1.75668713E-16 -5.20271430E-04 -1.98668629E-03  6.46658837E-16 -5.45450403E-05
 -1.67666874E-04 -2.01517457E-16 -1.83427111E-06  4.36148388E-17 -3.58546466E-17
 -5.16348917E-06  2.63397615E-07 -4.72405955E-06 -5.68442448E-17  2.79473064E-16
  4.85490123E-06  1.05444235E-05  2.47286081E-04  1.78486933E-16 -1.78607530E-16
  3.53760657E-04 -2.04063244E-04  2.24443862E-04 -1.10662077E-16  2.81004612E-16
  3.54490388E-04 -2.27845422E-04 -4.68225890E-17  8.66010581E-06  4.26654727E-05
 -1.05762276E-16  1.89344625E-17  2.08196704E-05  4.33625966E-05 -9.02825357E-17
  1.12919306E-05  1.05886173E-05 -7.76766632E-17  2.88928426E-17  5.41435302E-05
 -4.78434152E-06 -5.13936449E-05 -9.71704894E-05  1.01650562E-03  9.54817387E-05
 -9.71704894E-05  1.01650562E-03  9.54817387E-05  1.02545612E-06  2.67294838E-06
 -7.78729297E-17 -1.64707777E-05  1.49717938E-05  3.91888868E-16 -2.61300773E-04
 -1.77404093E-03  2.10988401E-16  1.02545612E-06  2.67294838E-06 -7.78729297E-17
 -1.64707777E-05  1.49717938E-05  3.91888868E-16 -2.61300773E-04 -1.77404093E-03
  6.23737876E-17 -2.67127500E-05  5.60291574E-18  3.03992883E-17 -4.94196140E-05
  1.29570796E-05 -1.23016815E-04  8.51736973E-17  4.97098179E-16 -1.89956399E-04
  5.86616886E-05 -2.67127500E-05  1.98844315E-18  3.15892445E-17 -4.94196140E-05
  1.29570796E-05 -1.23016815E-04  8.18622172E-17  5.09064830E-16 -1.89956399E-04
  5.86616886E-05  2.16030132E-06 -6.98917960E-06 -5.24970358E-06  1.95017999E-04
  1.54732218E-04  2.24378444E-06  1.23374849E-05 -2.22962713E-16 -5.05072825E-06
 -2.40026736E-05 -1.46744066E-16  3.93753398E-05 -1.65060057E-05  9.77752058E-15
  4.73813378E-05 -4.66200969E-05  1.76699615E-15  5.58442646E-07 -7.66149828E-16
  6.66236856E-17  9.21445538E-07 -1.10021970E-06 -5.28768946E-06  1.11335242E-15
 -1.27439664E-16 -7.34925058E-06  9.35619384E-06  3.47223736E-06  2.36629508E-15
 -4.87299482E-15  4.34481292E-05 -4.21776827E-06  2.53639875E-16  9.45461378E-07
  2.71213042E-06 -1.72186245E-16  5.43705424E-16  6.03015831E-07  2.12966216E-06
 -1.22762368E-15 -3.35160578E-06 -1.00220968E-05 -1.08460475E-17 -4.71239858E-16
 -8.82480423E-07 -2.64397429E-06 -5.72404770E-07 -2.53107186E-05 -4.41453077E-05
 -5.22715330E-05 -2.53107186E-05 -4.41453077E-05 -5.22715330E-05 -5.09733272E-07
  7.07602976E-07  1.29273892E-17  4.65115936E-06 -9.28249121E-06 -2.09030118E-15
  3.62828159E-06 -3.33428205E-07 -1.06486621E-15 -5.09733272E-07  7.07602975E-07
  7.11786176E-16  4.65115936E-06 -9.28249121E-06 -2.89549076E-15  3.62828160E-06
 -3.33428204E-07 -1.75087787E-15 -1.55444730E-07  4.10016528E-16  8.50876455E-16
 -2.48880124E-07  1.59595480E-06 -2.73782157E-06  1.45794924E-15  2.71941873E-16
  9.81078875E-07 -4.86336700E-07 -1.55444730E-07 -2.53770069E-16 -9.21557971E-16
 -2.48880125E-07  1.59595480E-06 -2.73782157E-06  1.21059240E-15  1.23619530E-15
  9.81078875E-07 -4.86336700E-07  9.83164165E-01 -2.60887166E-03  2.29212071E-02
 -5.90022006E-03  1.82016413E-03 -7.91055458E-04  2.44836970E-04  1.00189203E-03
  1.46321628E-16 -1.36105024E-05 -5.23236984E-05 -2.30945141E-15  4.85081948E-05
  2.03293146E-04  5.47652525E-16  3.79470407E-05  1.67432568E-04  1.47759278E-15
 -1.27407141E-05 -1.01685602E-04 -5.04247724E-17 -2.43321579E-04 -4.95183390E-17
  2.93350957E-16 -3.68909344E-04  1.67780775E-04 -2.72487251E-05  1.92353825E-17
  3.54134317E-16 -4.18686645E-05  1.88933017E-05  1.85843874E-05 -4.49368993E-16
 -2.71492272E-15  2.58778193E-05 -1.22296522E-05 -1.76993522E-05  2.14199058E-16
  1.67123401E-15 -2.09700256E-05  1.56292896E-05  5.69601670E-16  2.78349350E-06
  1.26675935E-05  4.21529917E-16 -2.96940512E-16  9.02699577E-06  1.22129786E-05
  1.73353380E-16 -3.04026655E-06 -1.17160636E-05  4.07710843E-16 -1.27920617E-16
 -8.75211022E-06 -9.19182966E-06  3.49535109E-05  7.35226014E-05 -2.35841657E-04
  1.60926480E-04  7.35226014E-05 -2.35841657E-04  1.60926480E-04 -7.13857093E-07
 -1.21573614E-06  8.64689730E-17 -2.70617452E-06 -2.32145431E-05 -6.21817218E-16
 -9.48695272E-06 -3.54217690E-07 -1.65174641E-15 -7.13857093E-07 -1.21573614E-06
  8.64689730E-17 -2.70617452E-06 -2.32145431E-05 -6.21817218E-16 -9.48695272E-06
 -3.54217690E-07 -1.91356847E-15 -8.47558482E-07  4.75314369E-18  1.15978449E-16
 -7.15591975E-07  7.22459247E-07  3.53725121E-05 -5.12880470E-16 -2.45440712E-15
  5.42579977E-05 -2.45167267E-05 -8.47558482E-07 -1.59055233E-17  1.45717535E-16
 -7.15591975E-07  7.22459247E-07  3.53725121E-05 -4.81081591E-16 -2.41158486E-15
  5.42579977E-05 -2.45167267E-05  7.52078165E-06  6.32671361E-07 -7.08906780E-06
  1.38849120E-04  1.54523699E-04  2.60154726E-06  1.96166042E-05  3.79153763E-16
  9.02661887E-06  7.45991931E-06 -6.71838332E-16  1.23358728E-04 -1.49259504E-05
  1.51027375E-14  4.72741481E-05 -3.61451131E-05  4.50367801E-15 -5.87791291E-07
  2.75243360E-16 -3.70979908E-16 -1.84354015E-06  8.04322787E-07 -5.24081774E-07
  9.49906755E-16  6.94775275E-16  1.82935428E-05 -2.51587941E-06 -4.22491580E-05
  3.78861979E-15 -6.97275815E-15 -1.18857613E-06  1.79951956E-05  2.46535675E-16
 -1.64229465E-07 -1.53566943E-06  1.52220638E-16 -5.32339594E-16 -7.89820136E-07
 -1.78297659E-06 -2.20551868E-15 -5.26838881E-06  9.31198058E-07  1.44793525E-16
  5.14573022E-16  6.07458779E-06  2.11059204E-06 -5.53403166E-07 -6.70690734E-05
 -1.34933765E-04 -2.62234657E-05 -6.70690734E-05 -1.34933765E-04 -2.62234657E-05
  1.90791451E-06  3.64375085E-07  5.47422620E-16  1.92070670E-05 -1.84218885E-06
 -3.41540751E-15  3.52598373E-05 -8.53145803E-07 -1.91216147E-15  1.90791451E-06
  3.64375086E-07 -2.90618266E-16  1.92070670E-05 -1.84218886E-06 -3.52658437E-15