 Entering Gaussian System, Link 0=g09
 Input=ihod_rOH_090_sp.gjf
 Output=ihod_rOH_090_sp.log
 Initial command:
 /usr/local/gaussian/g09/l1.exe "/scratch/Gau-914.inp" -scrdir="/scratch/"
 Entering Link 1 = /usr/local/gaussian/g09/l1.exe PID=       915.
  
 Copyright (c) 1988,1990,1992,1993,1995,1998,2003,2009,2015,
            Gaussian, Inc.  All Rights Reserved.
  
 This is part of the Gaussian(R) 09 program.  It is based on
 the Gaussian(R) 03 system (copyright 2003, Gaussian, Inc.),
 the Gaussian(R) 98 system (copyright 1998, Gaussian, Inc.),
 the Gaussian(R) 94 system (copyright 1995, Gaussian, Inc.),
 the Gaussian 92(TM) system (copyright 1992, Gaussian, Inc.),
 the Gaussian 90(TM) system (copyright 1990, Gaussian, Inc.),
 the Gaussian 88(TM) system (copyright 1988, Gaussian, Inc.),
 the Gaussian 86(TM) system (copyright 1986, Carnegie Mellon
 University), and the Gaussian 82(TM) system (copyright 1983,
 Carnegie Mellon University). Gaussian is a federally registered
 trademark of Gaussian, Inc.
  
 This software contains proprietary and confidential information,
 including trade secrets, belonging to Gaussian, Inc.
  
 This software is provided under written license and may be
 used, copied, transmitted, or stored only in accord with that
 written license.
  
 The following legend is applicable only to US Government
 contracts under FAR:
  
                    RESTRICTED RIGHTS LEGEND
  
 Use, reproduction and disclosure by the US Government is
 subject to restrictions as set forth in subparagraphs (a)
 and (c) of the Commercial Computer Software - Restricted
 Rights clause in FAR 52.227-19.
  
 Gaussian, Inc.
 340 Quinnipiac St., Bldg. 40, Wallingford CT 06492
  
  
 ---------------------------------------------------------------
 Warning -- This program may not be used in any manner that
 competes with the business of Gaussian, Inc. or will provide
 assistance to any competitor of Gaussian, Inc.  The licensee
 of this program is prohibited from giving any competitor of
 Gaussian, Inc. access to this program.  By using this program,
 the user acknowledges that Gaussian, Inc. is engaged in the
 business of creating and licensing software in the field of
 computational chemistry and represents and warrants to the
 licensee that it is not a competitor of Gaussian, Inc. and that
 it will not use this program in any manner prohibited above.
 ---------------------------------------------------------------
  

 Cite this work as:
 Gaussian 09, Revision E.01,
 M. J. Frisch, G. W. Trucks, H. B. Schlegel, G. E. Scuseria, 
 M. A. Robb, J. R. Cheeseman, G. Scalmani, V. Barone, B. Mennucci, 
 G. A. Petersson, H. Nakatsuji, M. Caricato, X. Li, H. P. Hratchian, 
 A. F. Izmaylov, J. Bloino, G. Zheng, J. L. Sonnenberg, M. Hada, 
 M. Ehara, K. Toyota, R. Fukuda, J. Hasegawa, M. Ishida, T. Nakajima, 
 Y. Honda, O. Kitao, H. Nakai, T. Vreven, J. A. Montgomery, Jr., 
 J. E. Peralta, F. Ogliaro, M. Bearpark, J. J. Heyd, E. Brothers, 
 K. N. Kudin, V. N. Staroverov, T. Keith, R. Kobayashi, J. Normand, 
 K. Raghavachari, A. Rendell, J. C. Burant, S. S. Iyengar, J. Tomasi, 
 M. Cossi, N. Rega, J. M. Millam, M. Klene, J. E. Knox, J. B. Cross, 
 V. Bakken, C. Adamo, J. Jaramillo, R. Gomperts, R. E. Stratmann, 
 O. Yazyev, A. J. Austin, R. Cammi, C. Pomelli, J. W. Ochterski, 
 R. L. Martin, K. Morokuma, V. G. Zakrzewski, G. A. Voth, 
 P. Salvador, J. J. Dannenberg, S. Dapprich, A. D. Daniels, 
 O. Farkas, J. B. Foresman, J. V. Ortiz, J. Cioslowski, 
 and D. J. Fox, Gaussian, Inc., Wallingford CT, 2013.
 
 ******************************************
 Gaussian 09:  ES64L-G09RevE.01 30-Nov-2015
                12-Oct-2021 
 ******************************************
 %nproc=12
 Will use up to   12 processors via shared memory.
 %mem=8000MB
 %chk=/home/netid.washington.edu/cgavinh/mccoy_hocl/rOH_s_oop_0/ihod/ihod_rOH_090
 _sp.chk
 --------------------------------------------------------
 #p pop=NBO SP NoSymm mp2/gen Pseudo=read density=current
 --------------------------------------------------------
 1/30=1,38=1/1;
 2/12=2,15=1,17=6,18=5,40=1/2;
 3/5=7,11=9,16=1,17=8,25=1,30=1,71=1/1,2,3;
 4//1;
 5/5=2,38=5/2;
 8/6=4,10=1/1;
 9/15=1,16=-3/6;
 10/5=1,13=10,31=1/2;
 6/7=2,8=2,9=2,10=2,22=-1,40=1/1,7;
 99/5=1,9=1/99;
 Leave Link    1 at Tue Oct 12 16:21:47 2021, MaxMem=  1048576000 cpu:         0.2
 (Enter /usr/local/gaussian/g09/l101.exe)
 -----
 title
 -----
 Symbolic Z-matrix:
 Charge = -1 Multiplicity = 1
 O
 X                    1     10. 
 H(iso=2)             1    r1       2     90. 
 I                    1    r2       2     90.      3    a1       0
 H                    1    r3       2    oop      3    a1       0
       Variables:
  r1                    0.96091                  
  r2                    3.5085                   
  r3                    0.9                      
  a1                  101.85831                  
  OOP                  90.                       
 
 NAtoms=      4 NQM=        4 NQMF=       0 NMMI=      0 NMMIF=      0
                NMic=       0 NMicF=      0.
                    Isotopes and Nuclear Properties:
 (Nuclear quadrupole moments (NQMom) in fm**2, nuclear magnetic moments (NMagM)
  in nuclear magnetons)

  Atom         1           2           3           4
 IAtWgt=          16           2         127           1
 AtmWgt=  15.9949146   2.0141018 126.9004000   1.0078250
 NucSpn=           0           2           5           1
 AtZEff=   0.0000000   0.0000000   0.0000000   0.0000000
 NQMom=    0.0000000   0.2860000 -71.0000000   0.0000000
 NMagM=    0.0000000   0.8574380   2.8132800   2.7928460
 AtZNuc=   8.0000000   1.0000000  53.0000000   1.0000000
 Leave Link  101 at Tue Oct 12 16:21:47 2021, MaxMem=  1048576000 cpu:         0.4
 (Enter /usr/local/gaussian/g09/l202.exe)
                          Input orientation:                          
 ---------------------------------------------------------------------
 Center     Atomic      Atomic             Coordinates (Angstroms)
 Number     Number       Type             X           Y           Z
 ---------------------------------------------------------------------
      1          8           0        0.000000    0.000000    0.000000
      2          1           0        0.960908    0.000000    0.000000
      3         53           0       -0.720970   -3.433628    0.000000
      4          1           0       -0.184943   -0.880793    0.000000
 ---------------------------------------------------------------------
                    Distance matrix (angstroms):
                    1          2          3          4
     1  O    0.000000
     2  H    0.960908   0.000000
     3  I    3.508504   3.823416   0.000000
     4  H    0.900000   1.445258   2.608504   0.000000
 Symmetry turned off by external request.
 Stoichiometry    H2IO(1-)
 Framework group  CS[SG(H2IO)]
 Deg. of freedom     5
 Full point group                 CS      NOp   2
 Rotational constants (GHZ):    322.5792009      2.5073826      2.4880433
 Leave Link  202 at Tue Oct 12 16:21:47 2021, MaxMem=  1048576000 cpu:         0.1
 (Enter /usr/local/gaussian/g09/l301.exe)
 General basis read from cards:  (5D, 7F)
 Centers:       2      4      1      2      4
 aug-cc-pVTZ
 ****
 Centers:       3
 S 11 1.00
     Exponent=  5.5465000000D+03 Coefficients=  1.5600000000D-04
     Exponent=  8.3821400000D+02 Coefficients=  9.8600000000D-04
     Exponent=  1.8218700000D+02 Coefficients=  2.7920000000D-03
     Exponent=  3.1212300000D+01 Coefficients= -4.3251000000D-02
     Exponent=  1.9531400000D+01 Coefficients=  2.3413400000D-01
     Exponent=  8.2409900000D+00 Coefficients= -7.5094300000D-01
     Exponent=  2.1945500000D+00 Coefficients=  8.8296800000D-01
     Exponent=  1.1091100000D+00 Coefficients=  4.6206100000D-01
     Exponent=  3.7464100000D-01 Coefficients=  2.2286000000D-02
     Exponent=  1.7708000000D-01 Coefficients= -4.3530000000D-03
     Exponent=  8.1061000000D-02 Coefficients=  1.1020000000D-03
 S 11 1.00
     Exponent=  5.5465000000D+03 Coefficients= -7.3000000000D-05
     Exponent=  8.3821400000D+02 Coefficients= -5.0800000000D-04
     Exponent=  1.8218700000D+02 Coefficients= -1.1580000000D-03
     Exponent=  3.1212300000D+01 Coefficients=  1.2193000000D-02
     Exponent=  1.9531400000D+01 Coefficients= -8.7854000000D-02
     Exponent=  8.2409900000D+00 Coefficients=  3.3820000000D-01
     Exponent=  2.1945500000D+00 Coefficients= -5.7655000000D-01
     Exponent=  1.1091100000D+00 Coefficients= -4.0929800000D-01
     Exponent=  3.7464100000D-01 Coefficients=  5.6745900000D-01
     Exponent=  1.7708000000D-01 Coefficients=  6.1248900000D-01
     Exponent=  8.1061000000D-02 Coefficients=  1.4323100000D-01
 S 1 1.00
     Exponent=  3.7464100000D-01 Coefficients=  1.0000000000D+00
 S 1 1.00
     Exponent=  1.7708000000D-01 Coefficients=  1.0000000000D+00
 S 1 1.00
     Exponent=  1.0010000000D-01 Coefficients=  1.0000000000D+00
 S 1 1.00
     Exponent=  4.1200000000D-02 Coefficients=  1.0000000000D+00
 P 9 1.00
     Exponent=  1.8898800000D+02 Coefficients=  5.8500000000D-04
     Exponent=  2.1286800000D+01 Coefficients=  3.6923000000D-02
     Exponent=  1.0039600000D+01 Coefficients= -2.3532400000D-01
     Exponent=  3.4518000000D+00 Coefficients=  3.4148300000D-01
     Exponent=  1.9745600000D+00 Coefficients=  5.3478800000D-01
     Exponent=  1.0242000000D+00 Coefficients=  2.6514100000D-01
     Exponent=  4.4943700000D-01 Coefficients=  2.5787000000D-02
     Exponent=  1.8664800000D-01 Coefficients=  5.2200000000D-04
     Exponent=  7.3481000000D-02 Coefficients=  6.0600000000D-04
 P 9 1.00
     Exponent=  1.8898800000D+02 Coefficients= -2.5600000000D-04
     Exponent=  2.1286800000D+01 Coefficients= -1.1682000000D-02
     Exponent=  1.0039600000D+01 Coefficients=  8.3192000000D-02
     Exponent=  3.4518000000D+00 Coefficients= -1.5697000000D-01
     Exponent=  1.9745600000D+00 Coefficients= -2.2451800000D-01
     Exponent=  1.0242000000D+00 Coefficients= -1.1445100000D-01
     Exponent=  4.4943700000D-01 Coefficients=  3.7535600000D-01
     Exponent=  1.8664800000D-01 Coefficients=  5.7513600000D-01
     Exponent=  7.3481000000D-02 Coefficients=  2.4591700000D-01
 P 1 1.00
     Exponent=  5.9810000000D-01 Coefficients=  1.0000000000D+00
 P 1 1.00
     Exponent=  9.6180000000D-02 Coefficients=  1.0000000000D+00
 P 1 1.00
     Exponent=  3.5900000000D-02 Coefficients=  1.0000000000D+00
 D 9 1.00
     Exponent=  1.3266200000D+02 Coefficients=  5.7200000000D-04
     Exponent=  3.7605400000D+01 Coefficients=  4.4020000000D-03
     Exponent=  1.0389100000D+01 Coefficients= -4.0922000000D-02
     Exponent=  6.4901700000D+00 Coefficients=  9.9661000000D-02
     Exponent=  3.4545100000D+00 Coefficients=  3.2266300000D-01
     Exponent=  1.8441300000D+00 Coefficients=  4.0034300000D-01
     Exponent=  9.6247800000D-01 Coefficients=  2.6830600000D-01
     Exponent=  4.7285300000D-01 Coefficients=  8.4847000000D-02
     Exponent=  1.9320000000D-01 Coefficients=  7.6320000000D-03
 D 1 1.00
     Exponent=  4.7285300000D-01 Coefficients=  1.0000000000D+00
 D 1 1.00
     Exponent=  1.9320000000D-01 Coefficients=  1.0000000000D+00
 D 1 1.00
     Exponent=  7.8200000000D-02 Coefficients=  1.0000000000D+00
 F 1 1.00
     Exponent=  4.0640000000D-01 Coefficients=  1.0000000000D+00
 F 1 1.00
     Exponent=  1.8480000000D-01 Coefficients=  1.0000000000D+00
 ****
 ======================================================================================================
                                       Pseudopotential Parameters
 ======================================================================================================
  Center     Atomic      Valence      Angular      Power
  Number     Number     Electrons     Momentum     of R      Exponent        Coefficient   SO-Coeffient
 ======================================================================================================
    1          8
                                   No pseudopotential on this center.
    2          1
                                   No pseudopotential on this center.
    3         53           25
                                      G and up 
                                                     2        1.0000000        0.00000000    0.00000000
                                      S - G
                                                     2       40.0333760       49.98964900    0.00000000
                                                     2       17.3005760      281.00655600    0.00000000
                                                     2        8.8517200       61.41673900    0.00000000
                                      P - G
                                                     2       15.7201410       67.41623900    0.00000000
                                                     2       15.2082220      134.80769600    0.00000000
                                                     2        8.2941860       14.56654800    0.00000000
                                                     2        7.7539490       28.96842200    0.00000000
                                      D - G
                                                     2       13.8177510       35.53875600    0.00000000
                                                     2       13.5878050       53.33975900    0.00000000
                                                     2        6.9476300        9.71646600    0.00000000
                                                     2        6.9600990       14.97750000    0.00000000
                                      F - G
                                                     2       18.5229500      -20.17661800    0.00000000
                                                     2       18.2510350      -26.08807700    0.00000000
                                                     2        7.5579010       -0.22043400    0.00000000
                                                     2        7.5974040       -0.22164600    0.00000000
    4          1
                                   No pseudopotential on this center.
 ======================================================================================================
 Ernie: Thresh=  0.10000D-02 Tol=  0.10000D-05 Strict=F.
 Ernie:  16 primitive shells out of 135 were deleted.
   191 basis functions,   344 primitive gaussians,   218 cartesian basis functions
    18 alpha electrons       18 beta electrons
       nuclear repulsion energy        48.1727588994 Hartrees.
 IExCor=    0 DFT=F Ex=HF Corr=None ExCW=0 ScaHFX=  1.000000
 ScaDFX=  1.000000  1.000000  1.000000  1.000000 ScalE2=  1.000000  1.000000
 IRadAn=      0 IRanWt=     -1 IRanGd=            0 ICorTp=0 IEmpDi=  4
 NAtoms=    4 NActive=    4 NUniq=    4 SFac= 1.00D+00 NAtFMM=   60 NAOKFM=F Big=F
 Integral buffers will be    131072 words long.
 Raffenetti 1 integral format.
 Two-electron integral symmetry is turned off.
 Leave Link  301 at Tue Oct 12 16:21:47 2021, MaxMem=  1048576000 cpu:         0.6
 (Enter /usr/local/gaussian/g09/l302.exe)
 NPDir=0 NMtPBC=     1 NCelOv=     1 NCel=       1 NClECP=     1 NCelD=      1
         NCelK=      1 NCelE2=     1 NClLst=     1 CellRange=     0.0.
 One-electron integrals computed using PRISM.
   1 Symmetry operations used in ECPInt.
 ECPInt:  NShTT=    2145 NPrTT=    7341 LenC2=    2146 LenP2D=    6690.
 LDataN:  DoStor=T MaxTD1= 7 Len=  274
 NBasis=   191 RedAO= T EigKep=  3.43D-04  NBF=   191
 NBsUse=   147 1.00D-06 EigRej=  8.91D-16 NBFU=   147
 Leave Link  302 at Tue Oct 12 16:21:47 2021, MaxMem=  1048576000 cpu:         2.8
 (Enter /usr/local/gaussian/g09/l303.exe)
 DipDrv:  MaxL=1.
 Leave Link  303 at Tue Oct 12 16:21:48 2021, MaxMem=  1048576000 cpu:         0.2
 (Enter /usr/local/gaussian/g09/l401.exe)
 ExpMin= 2.53D-02 ExpMax= 1.53D+04 ExpMxC= 5.22D+02 IAcc=3 IRadAn=         5 AccDes= 0.00D+00
 Harris functional with IExCor=  205 and IRadAn=       5 diagonalized for initial guess.
 HarFok:  IExCor=  205 AccDes= 0.00D+00 IRadAn=         5 IDoV= 1 UseB2=F ITyADJ=14
 ICtDFT=  3500011 ScaDFX=  1.000000  1.000000  1.000000  1.000000
 Defaulting to unpruned grid for atomic number  53.
 Defaulting to unpruned grid for atomic number  53.
 Defaulting to unpruned grid for atomic number  53.
 Defaulting to unpruned grid for atomic number  53.
 Defaulting to unpruned grid for atomic number  53.
 Defaulting to unpruned grid for atomic number  53.
 Defaulting to unpruned grid for atomic number  53.
 Defaulting to unpruned grid for atomic number  53.
 Defaulting to unpruned grid for atomic number  53.
 Defaulting to unpruned grid for atomic number  53.
 Defaulting to unpruned grid for atomic number  53.
 Defaulting to unpruned grid for atomic number  53.
 FoFCou: FMM=F IPFlag=           0 FMFlag=      100000 FMFlg1=           0
         NFxFlg=           0 DoJE=T BraDBF=F KetDBF=T FulRan=T
         wScrn=  0.000000 ICntrl=     500 IOpCl=  0 I1Cent=   200000004 NGrid=           0
         NMat0=    1 NMatS0=      1 NMatT0=    0 NMatD0=    1 NMtDS0=    0 NMtDT0=    0
 Symmetry not used in FoFCou.
 Harris En= -372.679920275500    
 JPrj=0 DoOrth=F DoCkMO=F.
 Leave Link  401 at Tue Oct 12 16:21:48 2021, MaxMem=  1048576000 cpu:         2.8
 (Enter /usr/local/gaussian/g09/l502.exe)
 Closed shell SCF:
 Using DIIS extrapolation, IDIIS=  1040.
 Two-electron integral symmetry not used.
 Keep R1 ints in memory in canonical form, NReq=176646541.
 IVT=      165054 IEndB=      165054 NGot=  1048576000 MDV=   880297331
 LenX=   880297331 LenY=   880249366
 Requested convergence on RMS density matrix=1.00D-08 within 128 cycles.
 Requested convergence on MAX density matrix=1.00D-06.
 Requested convergence on             energy=1.00D-06.
 No special actions if energy rises.
 FoFCou: FMM=F IPFlag=           0 FMFlag=           0 FMFlg1=           0
         NFxFlg=           0 DoJE=F BraDBF=F KetDBF=F FulRan=T
         wScrn=  0.000000 ICntrl=     600 IOpCl=  0 I1Cent=           0 NGrid=           0
         NMat0=    1 NMatS0=  18336 NMatT0=    0 NMatD0=    1 NMtDS0=    0 NMtDT0=    0
 Symmetry not used in FoFCou.

 Cycle   1  Pass 1  IDiag  1:
 E= -370.648339174837    
 DIIS: error= 4.55D-02 at cycle   1 NSaved=   1.
 NSaved= 1 IEnMin= 1 EnMin= -370.648339174837     IErMin= 1 ErrMin= 4.55D-02
 ErrMax= 4.55D-02  0.00D+00 EMaxC= 1.00D-01 BMatC= 3.81D-01 BMatP= 3.81D-01
 IDIUse=3 WtCom= 5.45D-01 WtEn= 4.55D-01
 Coeff-Com:  0.100D+01
 Coeff-En:   0.100D+01
 Coeff:      0.100D+01
 Gap=     0.385 Goal=   None    Shift=    0.000
 GapD=    0.385 DampG=1.000 DampE=0.500 DampFc=0.5000 IDamp=-1.
 Damping current iteration by 5.00D-01
 RMSDP=3.49D-03 MaxDP=1.02D-01              OVMax= 1.31D-01

 Cycle   2  Pass 1  IDiag  1:
 E= -370.735348020317     Delta-E=       -0.087008845481 Rises=F Damp=T
 DIIS: error= 1.44D-02 at cycle   2 NSaved=   2.
 NSaved= 2 IEnMin= 2 EnMin= -370.735348020317     IErMin= 2 ErrMin= 1.44D-02
 ErrMax= 1.44D-02  0.00D+00 EMaxC= 1.00D-01 BMatC= 5.83D-02 BMatP= 3.81D-01
 IDIUse=3 WtCom= 8.56D-01 WtEn= 1.44D-01
 Coeff-Com: -0.455D+00 0.146D+01
 Coeff-En:   0.000D+00 0.100D+01
 Coeff:     -0.390D+00 0.139D+01
 Gap=     0.259 Goal=   None    Shift=    0.000
 RMSDP=1.59D-03 MaxDP=8.02D-02 DE=-8.70D-02 OVMax= 6.43D-02

 Cycle   3  Pass 1  IDiag  1:
 E= -370.813145695370     Delta-E=       -0.077797675053 Rises=F Damp=F
 DIIS: error= 4.73D-03 at cycle   3 NSaved=   3.
 NSaved= 3 IEnMin= 3 EnMin= -370.813145695370     IErMin= 3 ErrMin= 4.73D-03
 ErrMax= 4.73D-03  0.00D+00 EMaxC= 1.00D-01 BMatC= 1.89D-03 BMatP= 5.83D-02
 IDIUse=3 WtCom= 9.53D-01 WtEn= 4.73D-02
 Coeff-Com: -0.124D+00 0.247D+00 0.876D+00
 Coeff-En:   0.000D+00 0.000D+00 0.100D+01
 Coeff:     -0.118D+00 0.236D+00 0.882D+00
 Gap=     0.269 Goal=   None    Shift=    0.000
 RMSDP=3.80D-04 MaxDP=1.64D-02 DE=-7.78D-02 OVMax= 1.00D-02

 Cycle   4  Pass 1  IDiag  1:
 E= -370.814417366147     Delta-E=       -0.001271670777 Rises=F Damp=F
 DIIS: error= 6.97D-04 at cycle   4 NSaved=   4.
 NSaved= 4 IEnMin= 4 EnMin= -370.814417366147     IErMin= 4 ErrMin= 6.97D-04
 ErrMax= 6.97D-04  0.00D+00 EMaxC= 1.00D-01 BMatC= 4.68D-05 BMatP= 1.89D-03
 IDIUse=3 WtCom= 9.93D-01 WtEn= 6.97D-03
 Coeff-Com:  0.424D-02-0.218D-01 0.762D-01 0.941D+00
 Coeff-En:   0.000D+00 0.000D+00 0.000D+00 0.100D+01
 Coeff:      0.421D-02-0.217D-01 0.757D-01 0.942D+00
 Gap=     0.271 Goal=   None    Shift=    0.000
 RMSDP=9.77D-05 MaxDP=5.79D-03 DE=-1.27D-03 OVMax= 2.94D-03

 Cycle   5  Pass 1  IDiag  1:
 E= -370.814469664554     Delta-E=       -0.000052298407 Rises=F Damp=F
 DIIS: error= 1.56D-04 at cycle   5 NSaved=   5.
 NSaved= 5 IEnMin= 5 EnMin= -370.814469664554     IErMin= 5 ErrMin= 1.56D-04
 ErrMax= 1.56D-04  0.00D+00 EMaxC= 1.00D-01 BMatC= 3.78D-06 BMatP= 4.68D-05
 IDIUse=3 WtCom= 9.98D-01 WtEn= 1.56D-03
 Coeff-Com:  0.868D-02-0.151D-01-0.618D-01 0.161D-01 0.105D+01
 Coeff-En:   0.000D+00 0.000D+00 0.000D+00 0.000D+00 0.100D+01
 Coeff:      0.867D-02-0.151D-01-0.617D-01 0.161D-01 0.105D+01
 Gap=     0.270 Goal=   None    Shift=    0.000
 RMSDP=4.15D-05 MaxDP=1.58D-03 DE=-5.23D-05 OVMax= 1.16D-03

 Cycle   6  Pass 1  IDiag  1:
 E= -370.814477150971     Delta-E=       -0.000007486417 Rises=F Damp=F
 DIIS: error= 4.78D-05 at cycle   6 NSaved=   6.
 NSaved= 6 IEnMin= 6 EnMin= -370.814477150971     IErMin= 6 ErrMin= 4.78D-05
 ErrMax= 4.78D-05  0.00D+00 EMaxC= 1.00D-01 BMatC= 2.91D-07 BMatP= 3.78D-06
 IDIUse=1 WtCom= 1.00D+00 WtEn= 0.00D+00
 Coeff-Com: -0.319D-02 0.651D-02 0.116D-01-0.918D-01-0.201D+00 0.128D+01
 Coeff:     -0.319D-02 0.651D-02 0.116D-01-0.918D-01-0.201D+00 0.128D+01
 Gap=     0.270 Goal=   None    Shift=    0.000
 RMSDP=1.07D-05 MaxDP=6.85D-04 DE=-7.49D-06 OVMax= 6.11D-04

 Cycle   7  Pass 1  IDiag  1:
 E= -370.814478016665     Delta-E=       -0.000000865694 Rises=F Damp=F
 DIIS: error= 1.06D-05 at cycle   7 NSaved=   7.
 NSaved= 7 IEnMin= 7 EnMin= -370.814478016665     IErMin= 7 ErrMin= 1.06D-05
 ErrMax= 1.06D-05  0.00D+00 EMaxC= 1.00D-01 BMatC= 9.65D-09 BMatP= 2.91D-07
 IDIUse=1 WtCom= 1.00D+00 WtEn= 0.00D+00
 Coeff-Com:  0.315D-03-0.744D-03 0.234D-03 0.211D-01-0.168D-01-0.263D+00
 Coeff-Com:  0.126D+01
 Coeff:      0.315D-03-0.744D-03 0.234D-03 0.211D-01-0.168D-01-0.263D+00
 Coeff:      0.126D+01
 Gap=     0.270 Goal=   None    Shift=    0.000
 RMSDP=2.25D-06 MaxDP=1.07D-04 DE=-8.66D-07 OVMax= 1.18D-04

 Cycle   8  Pass 1  IDiag  1:
 E= -370.814478050047     Delta-E=       -0.000000033382 Rises=F Damp=F
 DIIS: error= 2.09D-06 at cycle   8 NSaved=   8.
 NSaved= 8 IEnMin= 8 EnMin= -370.814478050047     IErMin= 8 ErrMin= 2.09D-06
 ErrMax= 2.09D-06  0.00D+00 EMaxC= 1.00D-01 BMatC= 3.42D-10 BMatP= 9.65D-09
 IDIUse=1 WtCom= 1.00D+00 WtEn= 0.00D+00
 Coeff-Com:  0.108D-03-0.216D-03-0.448D-03 0.272D-02 0.844D-02-0.376D-01
 Coeff-Com: -0.662D-01 0.109D+01
 Coeff:      0.108D-03-0.216D-03-0.448D-03 0.272D-02 0.844D-02-0.376D-01
 Coeff:     -0.662D-01 0.109D+01
 Gap=     0.270 Goal=   None    Shift=    0.000
 RMSDP=4.86D-07 MaxDP=2.58D-05 DE=-3.34D-08 OVMax= 1.46D-05

 Cycle   9  Pass 1  IDiag  1:
 E= -370.814478050963     Delta-E=       -0.000000000916 Rises=F Damp=F
 DIIS: error= 4.10D-07 at cycle   9 NSaved=   9.
 NSaved= 9 IEnMin= 9 EnMin= -370.814478050963     IErMin= 9 ErrMin= 4.10D-07
 ErrMax= 4.10D-07  0.00D+00 EMaxC= 1.00D-01 BMatC= 2.73D-11 BMatP= 3.42D-10
 IDIUse=1 WtCom= 1.00D+00 WtEn= 0.00D+00
 Coeff-Com: -0.321D-04 0.728D-04 0.900D-05-0.173D-02 0.781D-03 0.210D-01
 Coeff-Com: -0.736D-01-0.141D+00 0.119D+01
 Coeff:     -0.321D-04 0.728D-04 0.900D-05-0.173D-02 0.781D-03 0.210D-01
 Coeff:     -0.736D-01-0.141D+00 0.119D+01
 Gap=     0.270 Goal=   None    Shift=    0.000
 RMSDP=1.05D-07 MaxDP=4.89D-06 DE=-9.16D-10 OVMax= 4.27D-06

 Cycle  10  Pass 1  IDiag  1:
 E= -370.814478051038     Delta-E=       -0.000000000075 Rises=F Damp=F
 DIIS: error= 8.38D-08 at cycle  10 NSaved=  10.
 NSaved=10 IEnMin=10 EnMin= -370.814478051038     IErMin=10 ErrMin= 8.38D-08
 ErrMax= 8.38D-08  0.00D+00 EMaxC= 1.00D-01 BMatC= 1.81D-12 BMatP= 2.73D-11
 IDIUse=1 WtCom= 1.00D+00 WtEn= 0.00D+00
 Coeff-Com: -0.928D-05 0.184D-04 0.312D-04-0.278D-03-0.564D-03 0.383D-02
 Coeff-Com: -0.308D-03-0.756D-01 0.788D-01 0.994D+00
 Coeff:     -0.928D-05 0.184D-04 0.312D-04-0.278D-03-0.564D-03 0.383D-02
 Coeff:     -0.308D-03-0.756D-01 0.788D-01 0.994D+00
 Gap=     0.270 Goal=   None    Shift=    0.000
 RMSDP=2.28D-08 MaxDP=1.14D-06 DE=-7.46D-11 OVMax= 8.33D-07

 Cycle  11  Pass 1  IDiag  1:
 E= -370.814478051041     Delta-E=       -0.000000000004 Rises=F Damp=F
 DIIS: error= 2.17D-08 at cycle  11 NSaved=  11.
 NSaved=11 IEnMin=11 EnMin= -370.814478051041     IErMin=11 ErrMin= 2.17D-08
 ErrMax= 2.17D-08  0.00D+00 EMaxC= 1.00D-01 BMatC= 1.18D-13 BMatP= 1.81D-12
 IDIUse=1 WtCom= 1.00D+00 WtEn= 0.00D+00
 Coeff-Com:  0.311D-05-0.697D-05-0.126D-05 0.158D-03-0.619D-04-0.182D-02
 Coeff-Com:  0.536D-02 0.172D-01-0.106D+00-0.777D-01 0.116D+01
 Coeff:      0.311D-05-0.697D-05-0.126D-05 0.158D-03-0.619D-04-0.182D-02
 Coeff:      0.536D-02 0.172D-01-0.106D+00-0.777D-01 0.116D+01
 Gap=     0.270 Goal=   None    Shift=    0.000
 RMSDP=1.42D-08 MaxDP=9.66D-07 DE=-3.64D-12 OVMax= 4.31D-07

 Cycle  12  Pass 1  IDiag  1:
 E= -370.814478051043     Delta-E=       -0.000000000001 Rises=F Damp=F
 DIIS: error= 5.81D-09 at cycle  12 NSaved=  12.
 NSaved=12 IEnMin=12 EnMin= -370.814478051043     IErMin=12 ErrMin= 5.81D-09
 ErrMax= 5.81D-09  0.00D+00 EMaxC= 1.00D-01 BMatC= 3.32D-15 BMatP= 1.18D-13
 IDIUse=1 WtCom= 1.00D+00 WtEn= 0.00D+00
 Coeff-Com: -0.558D-06 0.136D-05-0.529D-06-0.356D-04 0.413D-04 0.370D-03
 Coeff-Com: -0.143D-02-0.209D-02 0.268D-01-0.162D-01-0.296D+00 0.129D+01
 Coeff:     -0.558D-06 0.136D-05-0.529D-06-0.356D-04 0.413D-04 0.370D-03
 Coeff:     -0.143D-02-0.209D-02 0.268D-01-0.162D-01-0.296D+00 0.129D+01
 Gap=     0.270 Goal=   None    Shift=    0.000
 RMSDP=2.98D-09 MaxDP=2.01D-07 DE=-1.36D-12 OVMax= 8.25D-08

 SCF Done:  E(RHF) =  -370.814478051     A.U. after   12 cycles
            NFock= 12  Conv=0.30D-08     -V/T= 2.9829
 KE= 1.870065021283D+02 PE=-9.100891108884D+02 EE= 3.040953718097D+02
 Leave Link  502 at Tue Oct 12 16:21:52 2021, MaxMem=  1048576000 cpu:        19.5
 (Enter /usr/local/gaussian/g09/l801.exe)
 ExpMin= 2.53D-02 ExpMax= 1.53D+04 ExpMxC= 5.22D+02 IAcc=3 IRadAn=         5 AccDes= 0.00D+00
 HarFok:  IExCor=  205 AccDes= 0.00D+00 IRadAn=         5 IDoV=-2 UseB2=F ITyADJ=14
 ICtDFT= 12500011 ScaDFX=  1.000000  1.000000  1.000000  1.000000
 Defaulting to unpruned grid for atomic number  53.
 Defaulting to unpruned grid for atomic number  53.
 Defaulting to unpruned grid for atomic number  53.
 Defaulting to unpruned grid for atomic number  53.
 Defaulting to unpruned grid for atomic number  53.
 Defaulting to unpruned grid for atomic number  53.
 Defaulting to unpruned grid for atomic number  53.
 Defaulting to unpruned grid for atomic number  53.
 Defaulting to unpruned grid for atomic number  53.
 Defaulting to unpruned grid for atomic number  53.
 Defaulting to unpruned grid for atomic number  53.
 Defaulting to unpruned grid for atomic number  53.
 Largest valence mixing into a core orbital is  1.30D-04
 Largest core mixing into a valence orbital is  2.00D-05
 Range of M.O.s used for correlation:     6   147
 NBasis=   191 NAE=    18 NBE=    18 NFC=     5 NFV=     0
 NROrb=    142 NOA=    13 NOB=    13 NVA=   129 NVB=   129

 **** Warning!!: The largest alpha MO coefficient is  0.12211042D+02

 Leave Link  801 at Tue Oct 12 16:21:52 2021, MaxMem=  1048576000 cpu:         0.8
 (Enter /usr/local/gaussian/g09/l906.exe)
 Frozen-core derivative calculation, NFC=   5 NFV=   0.
 FulOut=F Deriv=T AODrv=F NAtomX=     4
   MMem=         196  MDisk=          13 MDiskD=          13
  W3Min=      576828 MinDsk=     1313419 NBas6D=         218
 NBas2D=       24339    NTT=       23871    LW2=    26219120
    MDV=  1048236990 MDiskM=       23996 NBas2p=       24339
 Fully in-core method, ICMem=   672878533.
 IMap=   1   2   3   4   5   6   7   8   9  10  11  12  13  14  15  16  17  18
 JobTyp=1 Pass  1 fully in-core, NPsUse= 12.
 Compute canonical integrals.
 FoFCou: FMM=F IPFlag=           0 FMFlag=           0 FMFlg1=           0
         NFxFlg=           0 DoJE=F BraDBF=F KetDBF=F FulRan=T
         wScrn=  0.000000 ICntrl=     600 IOpCl=  1 I1Cent=           0 NGrid=           0
         NMat0=    1 NMatS0=  24339 NMatT0=    0 NMatD0=    1 NMtDS0=    0 NMtDT0=    0
 Symmetry not used in FoFCou.
 Spin components of T(2) and E(2):
     alpha-alpha T2 =       0.2119523313D-01 E2=     -0.6677619679D-01
     alpha-beta  T2 =       0.1109575513D+00 E2=     -0.3591849001D+00
     beta-beta   T2 =       0.2119523313D-01 E2=     -0.6677619679D-01
 The integrals were generated   1 times.
 ANorm=    0.1073940416D+01
 E2 =    -0.4927372937D+00 EUMP2 =    -0.37130721534473D+03
 Leave Link  906 at Tue Oct 12 16:22:00 2021, MaxMem=  1048576000 cpu:       101.4
 (Enter /usr/local/gaussian/g09/l1002.exe)
 Minotr:  Closed shell wavefunction.
          Computing MP2/KS-MP2 derivatives.
          Using Z-Vector for PSCF gradient.
          Skipping F1 and S1 gradient terms here.
          Frozen-core window.
          Direct CPHF calculation.
          Differentiating once with respect to electric field.
                with respect to dipole field.
          Electric field/nuclear overlap derivatives assumed to be zero.
          Requested convergence is 1.0D-10 RMS, and 1.0D-09 maximum.
          NewPWx=F KeepS1=T KeepF1=T KeepIn=T MapXYZ=F SortEE=F KeepMc=T.
          MDV=    1048575822 using IRadAn=       0.
 Keep R1 ints in memory in canonical form, NReq=176526549.
 FoFCou: FMM=F IPFlag=           0 FMFlag=           0 FMFlg1=           0
         NFxFlg=           0 DoJE=F BraDBF=F KetDBF=F FulRan=T
         wScrn=  0.000000 ICntrl=     600 IOpCl=  0 I1Cent=           0 NGrid=           0
         NMat0=    1 NMatS0=  18336 NMatT0=    0 NMatD0=    1 NMtDS0=    0 NMtDT0=    0
 Symmetry not used in FoFCou.
          Solving linear equations separately, MaxMat=       0.
          There are     1 degrees of freedom in the 1st order CPHF.  IDoFFX=0 NUNeed=     1.
 LinEq1:  Iter=  0 NonCon=     1 RMS=2.52D-03 Max=4.17D-02 NDo=     1
 AX will form     1 AO Fock derivatives at one time.
 LinEq1:  Iter=  1 NonCon=     1 RMS=3.99D-04 Max=4.24D-03 NDo=     1
 LinEq1:  Iter=  2 NonCon=     1 RMS=1.82D-04 Max=2.58D-03 NDo=     1
 LinEq1:  Iter=  3 NonCon=     1 RMS=3.95D-05 Max=5.82D-04 NDo=     1
 LinEq1:  Iter=  4 NonCon=     1 RMS=1.10D-05 Max=1.17D-04 NDo=     1
 LinEq1:  Iter=  5 NonCon=     1 RMS=2.95D-06 Max=3.78D-05 NDo=     1
 LinEq1:  Iter=  6 NonCon=     1 RMS=6.06D-07 Max=8.80D-06 NDo=     1
 LinEq1:  Iter=  7 NonCon=     1 RMS=1.35D-07 Max=2.03D-06 NDo=     1
 LinEq1:  Iter=  8 NonCon=     1 RMS=3.85D-08 Max=5.07D-07 NDo=     1
 LinEq1:  Iter=  9 NonCon=     1 RMS=7.50D-09 Max=1.14D-07 NDo=     1
 LinEq1:  Iter= 10 NonCon=     1 RMS=1.23D-09 Max=1.54D-08 NDo=     1
 LinEq1:  Iter= 11 NonCon=     1 RMS=2.01D-10 Max=3.38D-09 NDo=     1
 LinEq1:  Iter= 12 NonCon=     0 RMS=5.23D-11 Max=8.51D-10 NDo=     1
 Linear equations converged to 1.000D-10 1.000D-09 after    12 iterations.
 End of Minotr F.D. properties file   721 does not exist.
 End of Minotr F.D. properties file   722 does not exist.
 End of Minotr F.D. properties file   788 does not exist.
 Leave Link 1002 at Tue Oct 12 16:22:04 2021, MaxMem=  1048576000 cpu:        18.7
 (Enter /usr/local/gaussian/g09/l601.exe)
 Copying SCF densities to generalized density rwf, IOpCl= 0 IROHF=0.

 **********************************************************************

            Population analysis using the MP2 density.

 **********************************************************************

 Alpha  occ. eigenvalues --  -20.40211  -7.46423  -5.28972  -5.28954  -5.28952
 Alpha  occ. eigenvalues --   -2.01713  -2.01704  -2.01699  -2.01681  -2.01681
 Alpha  occ. eigenvalues --   -1.21163  -0.62574  -0.56801  -0.44073  -0.35603
 Alpha  occ. eigenvalues --   -0.14473  -0.13977  -0.13941
 Alpha virt. eigenvalues --    0.13102   0.16925   0.23388   0.24546   0.25327
 Alpha virt. eigenvalues --    0.26842   0.28485   0.28978   0.31299   0.33449
 Alpha virt. eigenvalues --    0.36732   0.37277   0.37610   0.39593   0.40915
 Alpha virt. eigenvalues --    0.41858   0.44856   0.47524   0.54071   0.54661
 Alpha virt. eigenvalues --    0.56934   0.60153   0.66637   0.71269   0.77754
 Alpha virt. eigenvalues --    0.78191   0.78509   0.79869   0.80215   0.80268
 Alpha virt. eigenvalues --    0.82720   0.84483   0.85473   0.85823   0.87070
 Alpha virt. eigenvalues --    0.87531   0.88615   0.88850   0.89418   0.90054
 Alpha virt. eigenvalues --    0.92614   0.97320   1.00007   1.06806   1.06949
 Alpha virt. eigenvalues --    1.09011   1.09941   1.12902   1.14440   1.14553
 Alpha virt. eigenvalues --    1.16909   1.19528   1.33298   1.37083   1.38508
 Alpha virt. eigenvalues --    1.40539   1.47907   1.53137   1.54230   1.67552
 Alpha virt. eigenvalues --    1.73314   1.75365   1.75417   1.76286   1.77197
 Alpha virt. eigenvalues --    1.78283   1.81321   1.85031   1.88066   1.89493
 Alpha virt. eigenvalues --    2.01585   2.05198   2.05816   2.08835   2.10890
 Alpha virt. eigenvalues --    2.11034   2.16321   2.27137   2.43651   2.51684
 Alpha virt. eigenvalues --    2.57274   2.58619   2.61297   2.63867   2.72969
 Alpha virt. eigenvalues --    2.83625   2.85656   2.87787   2.98170   3.05360
 Alpha virt. eigenvalues --    3.07679   3.24697   3.26984   3.85377   3.88536
 Alpha virt. eigenvalues --    4.22337   4.23086   4.33681   4.37018   4.43570
 Alpha virt. eigenvalues --    4.49840   4.56959   4.57088   4.63248   4.76292
 Alpha virt. eigenvalues --    4.96976   5.20682   5.37339   5.38459   5.49791
 Alpha virt. eigenvalues --    5.73948   5.81242   5.94465   6.45334   6.68008
 Alpha virt. eigenvalues --    6.89379   7.19785   7.30542   7.43033   7.48773
 Alpha virt. eigenvalues --    7.52567   7.58160   7.65549   7.95282   8.09136
 Alpha virt. eigenvalues --    8.33371   9.14051  17.92974  59.22203
          Condensed to atoms (all electrons):
               1          2          3          4
     1  O    8.172050   0.236057  -0.050553   0.106300
     2  H    0.236057   0.603099   0.008484  -0.017090
     3  I   -0.050553   0.008484  25.946570   0.033152
     4  H    0.106300  -0.017090   0.033152   0.645581
 Mulliken charges:
               1
     1  O   -0.463854
     2  H    0.169450
     3  I   -0.937653
     4  H    0.232058
 Sum of Mulliken charges =  -1.00000
 Mulliken charges with hydrogens summed into heavy atoms:
               1
     1  O   -0.062347
     3  I   -0.937653
 Electronic spatial extent (au):  <R**2>=           1236.2214
 Charge=             -1.0000 electrons
 Dipole moment (field-independent basis, Debye):
    X=              4.2532    Y=             14.0037    Z=             -0.0000  Tot=             14.6354
 Quadrupole moment (field-independent basis, Debye-Ang):
   XX=            -41.4272   YY=            -92.9865   ZZ=            -41.8828
   XY=            -10.1348   XZ=              0.0000   YZ=              0.0000
 Traceless Quadrupole moment (field-independent basis, Debye-Ang):
   XX=             17.3383   YY=            -34.2210   ZZ=             16.8827
   XY=            -10.1348   XZ=              0.0000   YZ=              0.0000
 Octapole moment (field-independent basis, Debye-Ang**2):
  XXX=             74.6493  YYY=            529.2356  ZZZ=             -0.0000  XYY=             59.8071
  XXY=            124.2473  XXZ=             -0.0000  XZZ=             23.7251  YZZ=            116.8537
  YYZ=             -0.0000  XYZ=             -0.0000
 Hexadecapole moment (field-independent basis, Debye-Ang**3):
 XXXX=           -181.3817 YYYY=          -3080.8724 ZZZZ=            -76.9156 XXXY=           -255.0393
 XXXZ=              0.0000 YYYX=           -372.2898 YYYZ=              0.0000 ZZZX=              0.0000
 ZZZY=              0.0000 XXYY=           -467.9959 XXZZ=            -43.2501 YYZZ=           -425.5837
 XXYZ=              0.0000 YYXZ=              0.0000 ZZXY=            -83.3584
 N-N= 4.817275889941D+01 E-N=-9.095162830370D+02  KE= 1.871855551045D+02
 No NMR shielding tensors so no spin-rotation constants.
 Leave Link  601 at Tue Oct 12 16:22:05 2021, MaxMem=  1048576000 cpu:         2.0
 (Enter /usr/local/gaussian/g09/l607.exe)
 ******************************Gaussian NBO Version 3.1******************************
             N A T U R A L   A T O M I C   O R B I T A L   A N D
          N A T U R A L   B O N D   O R B I T A L   A N A L Y S I S
 ******************************Gaussian NBO Version 3.1******************************
       /RESON  / : Allow strongly delocalized NBO set

 Analyzing the MP2 density

 Job title: title                                                           

 Storage needed:    110417 in NPA,    146568 in NBO (1048575896 available)


 NATURAL POPULATIONS:  Natural atomic orbital occupancies 
                                                          
   NAO  Atom  No  lang   Type(AO)    Occupancy
 --------------------------------------------
     1    O    1  S      Cor( 1S)     1.99991
     2    O    1  S      Val( 2S)     1.87632
     3    O    1  S      Ryd( 3S)     0.00622
     4    O    1  S      Ryd( 4S)     0.00043
     5    O    1  S      Ryd( 5S)     0.00016
     6    O    1  px     Val( 2p)     1.67199
     7    O    1  px     Ryd( 3p)     0.01128
     8    O    1  px     Ryd( 4p)     0.00058
     9    O    1  px     Ryd( 5p)     0.00007
    10    O    1  py     Val( 2p)     1.75127
    11    O    1  py     Ryd( 3p)     0.01354
    12    O    1  py     Ryd( 4p)     0.00060
    13    O    1  py     Ryd( 5p)     0.00024
    14    O    1  pz     Val( 2p)     1.95487
    15    O    1  pz     Ryd( 3p)     0.01974
    16    O    1  pz     Ryd( 4p)     0.00052
    17    O    1  pz     Ryd( 5p)     0.00001
    18    O    1  dxy    Ryd( 3d)     0.00863
    19    O    1  dxy    Ryd( 4d)     0.00045
    20    O    1  dxy    Ryd( 5d)     0.00014
    21    O    1  dxz    Ryd( 3d)     0.00943
    22    O    1  dxz    Ryd( 4d)     0.00095
    23    O    1  dxz    Ryd( 5d)     0.00012
    24    O    1  dyz    Ryd( 3d)     0.00774
    25    O    1  dyz    Ryd( 4d)     0.00043
    26    O    1  dyz    Ryd( 5d)     0.00019
    27    O    1  dx2y2  Ryd( 3d)     0.00974
    28    O    1  dx2y2  Ryd( 4d)     0.00068
    29    O    1  dx2y2  Ryd( 5d)     0.00027
    30    O    1  dz2    Ryd( 3d)     0.00794
    31    O    1  dz2    Ryd( 4d)     0.00066
    32    O    1  dz2    Ryd( 5d)     0.00016
    33    O    1  f(0)   Ryd( 4f)     0.00087
    34    O    1  f(0)   Ryd( 5f)     0.00014
    35    O    1  f(C1)  Ryd( 4f)     0.00056
    36    O    1  f(C1)  Ryd( 5f)     0.00009
    37    O    1  f(S1)  Ryd( 4f)     0.00057
    38    O    1  f(S1)  Ryd( 5f)     0.00010
    39    O    1  f(C2)  Ryd( 4f)     0.00054
    40    O    1  f(C2)  Ryd( 5f)     0.00013
    41    O    1  f(S2)  Ryd( 4f)     0.00045
    42    O    1  f(S2)  Ryd( 5f)     0.00007
    43    O    1  f(C3)  Ryd( 4f)     0.00039
    44    O    1  f(C3)  Ryd( 5f)     0.00013
    45    O    1  f(S3)  Ryd( 4f)     0.00045
    46    O    1  f(S3)  Ryd( 5f)     0.00014

    47    H    2  S      Val( 1S)     0.33071
    48    H    2  S      Ryd( 2S)     0.00059
    49    H    2  S      Ryd( 3S)     0.00023
    50    H    2  S      Ryd( 4S)     0.00005
    51    H    2  px     Ryd( 2p)     0.00082
    52    H    2  px     Ryd( 3p)     0.00066
    53    H    2  px     Ryd( 4p)     0.00006
    54    H    2  py     Ryd( 2p)     0.00047
    55    H    2  py     Ryd( 3p)     0.00021
    56    H    2  py     Ryd( 4p)     0.00007
    57    H    2  pz     Ryd( 2p)     0.00132
    58    H    2  pz     Ryd( 3p)     0.00017
    59    H    2  pz     Ryd( 4p)     0.00005
    60    H    2  dxy    Ryd( 3d)     0.00006
    61    H    2  dxy    Ryd( 4d)     0.00006
    62    H    2  dxz    Ryd( 3d)     0.00031
    63    H    2  dxz    Ryd( 4d)     0.00007
    64    H    2  dyz    Ryd( 3d)     0.00011
    65    H    2  dyz    Ryd( 4d)     0.00006
    66    H    2  dx2y2  Ryd( 3d)     0.00020
    67    H    2  dx2y2  Ryd( 4d)     0.00007
    68    H    2  dz2    Ryd( 3d)     0.00017
    69    H    2  dz2    Ryd( 4d)     0.00007

    70    I    3  S      Cor( 4S)     2.00003
    71    I    3  S      Val( 5S)     1.98049
    72    I    3  S      Ryd( 6S)     0.00349
    73    I    3  S      Ryd( 7S)     0.00059
    74    I    3  S      Ryd( 8S)     0.00008
    75    I    3  S      Ryd( 9S)     0.00000
    76    I    3  px     Cor( 4p)     2.00007
    77    I    3  px     Val( 5p)     1.95098
    78    I    3  px     Ryd( 6p)     0.01111
    79    I    3  px     Ryd( 7p)     0.00075
    80    I    3  px     Ryd( 8p)     0.00008
    81    I    3  py     Cor( 4p)     2.00006
    82    I    3  py     Val( 5p)     1.94392
    83    I    3  py     Ryd( 6p)     0.01031
    84    I    3  py     Ryd( 7p)     0.00068
    85    I    3  py     Ryd( 8p)     0.00015
    86    I    3  pz     Cor( 4p)     2.00007
    87    I    3  pz     Val( 5p)     1.95164
    88    I    3  pz     Ryd( 6p)     0.01109
    89    I    3  pz     Ryd( 7p)     0.00075
    90    I    3  pz     Ryd( 8p)     0.00008
    91    I    3  dxy    Cor( 4d)     1.99675
    92    I    3  dxy    Ryd( 5d)     0.02045
    93    I    3  dxy    Ryd( 6d)     0.00145
    94    I    3  dxy    Ryd( 7d)     0.00018
    95    I    3  dxz    Cor( 4d)     1.99678
    96    I    3  dxz    Ryd( 5d)     0.02020
    97    I    3  dxz    Ryd( 6d)     0.00167
    98    I    3  dxz    Ryd( 7d)     0.00017
    99    I    3  dyz    Cor( 4d)     1.99676
   100    I    3  dyz    Ryd( 5d)     0.02030
   101    I    3  dyz    Ryd( 6d)     0.00144
   102    I    3  dyz    Ryd( 7d)     0.00017
   103    I    3  dx2y2  Cor( 4d)     1.99673
   104    I    3  dx2y2  Ryd( 5d)     0.02054
   105    I    3  dx2y2  Ryd( 6d)     0.00158
   106    I    3  dx2y2  Ryd( 7d)     0.00020
   107    I    3  dz2    Cor( 4d)     1.99677
   108    I    3  dz2    Ryd( 5d)     0.02036
   109    I    3  dz2    Ryd( 6d)     0.00165
   110    I    3  dz2    Ryd( 7d)     0.00018
   111    I    3  f(0)   Ryd( 4f)     0.00274
   112    I    3  f(0)   Ryd( 5f)     0.00043
   113    I    3  f(C1)  Ryd( 4f)     0.00276
   114    I    3  f(C1)  Ryd( 5f)     0.00043
   115    I    3  f(S1)  Ryd( 4f)     0.00276
   116    I    3  f(S1)  Ryd( 5f)     0.00046
   117    I    3  f(C2)  Ryd( 4f)     0.00272
   118    I    3  f(C2)  Ryd( 5f)     0.00043
   119    I    3  f(S2)  Ryd( 4f)     0.00278
   120    I    3  f(S2)  Ryd( 5f)     0.00044
   121    I    3  f(C3)  Ryd( 4f)     0.00270
   122    I    3  f(C3)  Ryd( 5f)     0.00045
   123    I    3  f(S3)  Ryd( 4f)     0.00273
   124    I    3  f(S3)  Ryd( 5f)     0.00047

   125    H    4  S      Val( 1S)     0.29728
   126    H    4  S      Ryd( 2S)     0.00592
   127    H    4  S      Ryd( 3S)     0.00066
   128    H    4  S      Ryd( 4S)     0.00011
   129    H    4  px     Ryd( 2p)     0.00402
   130    H    4  px     Ryd( 3p)     0.00041
   131    H    4  px     Ryd( 4p)     0.00014
   132    H    4  py     Ryd( 2p)     0.00451
   133    H    4  py     Ryd( 3p)     0.00057
   134    H    4  py     Ryd( 4p)     0.00023
   135    H    4  pz     Ryd( 2p)     0.00454
   136    H    4  pz     Ryd( 3p)     0.00046
   137    H    4  pz     Ryd( 4p)     0.00012
   138    H    4  dxy    Ryd( 3d)     0.00021
   139    H    4  dxy    Ryd( 4d)     0.00008
   140    H    4  dxz    Ryd( 3d)     0.00016
   141    H    4  dxz    Ryd( 4d)     0.00009
   142    H    4  dyz    Ryd( 3d)     0.00022
   143    H    4  dyz    Ryd( 4d)     0.00007
   144    H    4  dx2y2  Ryd( 3d)     0.00023
   145    H    4  dx2y2  Ryd( 4d)     0.00010
   146    H    4  dz2    Ryd( 3d)     0.00025
   147    H    4  dz2    Ryd( 4d)     0.00009

 [ 28 electrons found in the effective core potential]

 WARNING:  5 low occupancy (<1.9990e) core orbitals found on  I    3


 Summary of Natural Population Analysis:                  
                                                          
                                       Natural Population 
                Natural  -----------------------------------------------
    Atom  No    Charge         Core      Valence    Rydberg      Total
 -----------------------------------------------------------------------
      O    1   -1.35990      1.99991     7.25444    0.10555     9.35990
      H    2    0.66341      0.00000     0.33071    0.00588     0.33659
      I    3   -0.98304     45.98402     7.82704    0.17199    53.98304
      H    4    0.67953      0.00000     0.29728    0.02319     0.32047
 =======================================================================
   * Total *   -1.00000     47.98392    15.70947    0.30661    64.00000

                                 Natural Population      
 --------------------------------------------------------
   Effective Core            28.00000
   Core                      19.98392 ( 99.9196% of  20)
   Valence                   15.70947 ( 98.1842% of  16)
   Natural Minimal Basis     63.69339 ( 99.5209% of  64)
   Natural Rydberg Basis      0.30661 (  0.4791% of  64)
 --------------------------------------------------------

    Atom  No          Natural Electron Configuration
 ----------------------------------------------------------------------------
      O    1      [core]2S( 1.88)2p( 5.38)3S( 0.01)3p( 0.04)3d( 0.04)
      H    2            1S( 0.33)
      I    3      [core]5S( 1.98)5p( 5.85)4f( 0.02)5d( 0.10)6p( 0.03)6d( 0.01)
      H    4            1S( 0.30)2S( 0.01)2p( 0.01)


 NATURAL BOND ORBITAL ANALYSIS:
 Warning:  a bond orbital has occupanc of -0.00006

                       Occupancies       Lewis Structure    Low   High
           Occ.    -------------------  -----------------   occ   occ
  Cycle   Thresh.   Lewis   Non-Lewis     CR  BD  3C  LP    (L)   (NL)   Dev
 =============================================================================
   1(1)    1.90    63.67996   0.32004     10   2   0   6     0      0    0.01
 -----------------------------------------------------------------------------

 Structure accepted: No low occupancy Lewis orbitals

 WARNING:  5 low occupancy (<1.9990e) core orbitals found on  I    3

 --------------------------------------------------------
   Effective Core           28.00000
   Core                     19.98393 ( 99.920% of  20)
   Valence Lewis            15.69604 ( 98.100% of  16)
  ==================       ============================
   Total Lewis              63.67996 ( 99.500% of  64)
  -----------------------------------------------------
   Valence non-Lewis         0.03930 (  0.061% of  64)
   Rydberg non-Lewis         0.28073 (  0.439% of  64)
  ==================       ============================
   Total non-Lewis           0.32004 (  0.500% of  64)
 --------------------------------------------------------


       (Occupancy)   Bond orbital/ Coefficients/ Hybrids
 ---------------------------------------------------------------------------------
     1. (1.96494) BD ( 1) O   1 - H   2  
                ( 83.96%)   0.9163* O   1 s( 15.60%)p 5.39( 84.03%)d 0.02(  0.35%)
                                                  f 0.00(  0.01%)
                                            0.0001  0.3950  0.0013  0.0020 -0.0040
                                            0.9165 -0.0164  0.0056 -0.0014  0.0049
                                           -0.0105  0.0006 -0.0035  0.0000  0.0000
                                            0.0000  0.0000 -0.0244  0.0027  0.0019
                                            0.0000  0.0000  0.0000  0.0000  0.0000
                                            0.0000  0.0434 -0.0088  0.0052 -0.0302
                                            0.0032 -0.0016  0.0000  0.0000 -0.0097
                                            0.0010  0.0002 -0.0001  0.0000  0.0000
                                            0.0000  0.0000  0.0021  0.0019  0.0017
                                            0.0001
                ( 16.04%)   0.4005* H   2 s( 99.79%)p 0.00(  0.18%)d 0.00(  0.04%)
                                            0.9989 -0.0023 -0.0002  0.0000  0.0072
                                            0.0415 -0.0021 -0.0011 -0.0012 -0.0018
                                            0.0000  0.0000  0.0000  0.0004 -0.0027
                                            0.0000  0.0000  0.0000  0.0000  0.0144
                                           -0.0044 -0.0114  0.0016
     2. (1.96850) BD ( 1) O   1 - H   4  
                ( 85.75%)   0.9260* O   1 s( 20.58%)p 3.84( 79.09%)d 0.02(  0.33%)
                                                  f 0.00(  0.01%)
                                           -0.0001 -0.4535  0.0070  0.0045  0.0015
                                            0.1892 -0.0116 -0.0013 -0.0006  0.8685
                                           -0.0221  0.0069 -0.0050  0.0000  0.0000
                                            0.0000  0.0000  0.0085 -0.0054 -0.0002
                                            0.0000  0.0000  0.0000  0.0000  0.0000
                                            0.0000  0.0473 -0.0055  0.0031  0.0298
                                            0.0011 -0.0011  0.0000  0.0000 -0.0018
                                            0.0005 -0.0089  0.0004  0.0000  0.0000
                                            0.0000  0.0000 -0.0022 -0.0022  0.0015
                                           -0.0041
                ( 14.25%)   0.3775* H   4 s( 99.83%)p 0.00(  0.16%)d 0.00(  0.01%)
                                           -0.9989  0.0214 -0.0027  0.0001 -0.0220
                                           -0.0029  0.0004  0.0094 -0.0302 -0.0111
                                            0.0000  0.0000  0.0000 -0.0035  0.0033
                                            0.0000  0.0000  0.0000  0.0000 -0.0009
                                            0.0003  0.0064  0.0018
     3. (1.99991) CR ( 1) O   1           s(100.00%)
                                            1.0000 -0.0003  0.0000  0.0000  0.0000
                                           -0.0000  0.0000 -0.0000  0.0000  0.0000
                                           -0.0000  0.0000 -0.0000  0.0000  0.0000
                                            0.0000  0.0000 -0.0000 -0.0000  0.0000
                                            0.0000  0.0000  0.0000  0.0000  0.0000
                                            0.0000 -0.0000 -0.0000  0.0000  0.0000
                                            0.0000 -0.0000  0.0000  0.0000  0.0000
                                            0.0000 -0.0000 -0.0000  0.0000  0.0000
                                            0.0000  0.0000 -0.0000 -0.0000 -0.0000
                                           -0.0000
     4. (2.00003) CR ( 1) I   3           s(100.00%)
                                            1.0000 -0.0000  0.0000  0.0000 -0.0000
                                           -0.0000  0.0000 -0.0000 -0.0000 -0.0000
                                            0.0000  0.0000 -0.0000  0.0000  0.0000
                                           -0.0000  0.0000  0.0000  0.0000  0.0000
                                            0.0000  0.0000 -0.0000  0.0000  0.0000
                                            0.0000  0.0000  0.0000  0.0000  0.0000
                                            0.0000  0.0000  0.0000 -0.0000  0.0000
                                           -0.0000 -0.0000 -0.0000  0.0000 -0.0000
                                           -0.0000  0.0000  0.0000  0.0000  0.0000
                                            0.0000  0.0000  0.0000  0.0000  0.0000
                                            0.0000  0.0000  0.0000  0.0000  0.0000
     5. (2.00007) CR ( 2) I   3           s(  0.00%)p 1.00(100.00%)
                                            0.0000  0.0000  0.0000 -0.0000  0.0000
                                           -0.0000  1.0000 -0.0000 -0.0000 -0.0000
                                            0.0000 -0.0000  0.0000 -0.0000 -0.0000
                                            0.0000  0.0000  0.0000  0.0000  0.0000
                                            0.0000  0.0000 -0.0000  0.0000  0.0000
                                            0.0000  0.0000  0.0000  0.0000  0.0000
                                            0.0000  0.0000  0.0000  0.0000 -0.0000
                                            0.0000  0.0000  0.0000 -0.0000 -0.0000
                                            0.0000  0.0000  0.0000  0.0000  0.0000
                                           -0.0000 -0.0000  0.0000  0.0000  0.0000
                                            0.0000  0.0000  0.0000 -0.0000 -0.0000
     6. (2.00006) CR ( 3) I   3           s(  0.00%)p 1.00(100.00%)
                                            0.0000  0.0000 -0.0000 -0.0000  0.0000
                                            0.0000 -0.0000  0.0000  0.0000 -0.0000
                                           -0.0000  1.0000  0.0000 -0.0000 -0.0000
                                            0.0000  0.0000  0.0000  0.0000  0.0000
                                            0.0000 -0.0000  0.0000 -0.0000 -0.0000
                                            0.0000  0.0000  0.0000  0.0000  0.0000
                                            0.0000  0.0000  0.0000  0.0000 -0.0000
                                            0.0000  0.0000  0.0000 -0.0000  0.0000
                                            0.0000  0.0000  0.0000 -0.0000 -0.0000
                                           -0.0000 -0.0000  0.0000  0.0000  0.0000
                                            0.0000 -0.0000 -0.0000 -0.0000 -0.0000
     7. (2.00007) CR ( 4) I   3           s(  0.00%)p 1.00(100.00%)
                                            0.0000  0.0000  0.0000  0.0000  0.0000
                                            0.0000  0.0000  0.0000  0.0000  0.0000
                                            0.0000  0.0000  0.0000  0.0000  0.0000
                                            0.0000  1.0000 -0.0000  0.0000 -0.0000
                                           -0.0000  0.0000  0.0000  0.0000  0.0000
                                            0.0000 -0.0000  0.0000 -0.0000  0.0000
                                           -0.0000  0.0000  0.0000  0.0000  0.0000
                                            0.0000  0.0000  0.0000  0.0000  0.0000
                                            0.0000  0.0000  0.0000  0.0000  0.0000
                                            0.0000  0.0000  0.0000  0.0000 -0.0000
                                           -0.0000  0.0000  0.0000  0.0000  0.0000
     8. (1.99675) CR ( 5) I   3           s(  0.00%)p 0.00(  0.00%)d 1.00(100.00%)
                                            0.0000  0.0000 -0.0000 -0.0000 -0.0000
                                            0.0000  0.0000  0.0000  0.0000  0.0000
                                           -0.0000 -0.0000  0.0000 -0.0000 -0.0000
                                            0.0000  0.0000  0.0000  0.0000  0.0000
                                            0.0000  1.0000  0.0000 -0.0000 -0.0000
                                            0.0000  0.0000  0.0000  0.0000  0.0000
                                            0.0000  0.0000  0.0000  0.0000 -0.0000
                                           -0.0000  0.0000  0.0000 -0.0000  0.0000
                                           -0.0000  0.0000  0.0000 -0.0000 -0.0000
                                           -0.0000 -0.0000  0.0000  0.0000  0.0000
                                            0.0000 -0.0000 -0.0000 -0.0000 -0.0000
     9. (1.99678) CR ( 6) I   3           s(  0.00%)p 0.00(  0.00%)d 1.00(100.00%)
                                            0.0000  0.0000  0.0000  0.0000  0.0000
                                            0.0000  0.0000  0.0000  0.0000  0.0000
                                            0.0000  0.0000  0.0000  0.0000  0.0000
                                            0.0000  0.0000  0.0000 -0.0000  0.0000
                                            0.0000  0.0000  0.0000  0.0000  0.0000
                                            1.0000  0.0000 -0.0000  0.0000 -0.0000
                                            0.0000 -0.0000 -0.0000  0.0000  0.0000
                                            0.0000  0.0000  0.0000  0.0000  0.0000
                                            0.0000 -0.0000 -0.0000  0.0000  0.0000
                                            0.0000  0.0000 -0.0000 -0.0000  0.0000
                                            0.0000  0.0000  0.0000  0.0000  0.0000
    10. (1.99676) CR ( 7) I   3           s(  0.00%)p 0.00(  0.00%)d 1.00(100.00%)
                                            0.0000  0.0000  0.0000  0.0000  0.0000
                                            0.0000  0.0000  0.0000  0.0000  0.0000
                                            0.0000  0.0000  0.0000  0.0000  0.0000
                                            0.0000  0.0000  0.0000 -0.0000  0.0000
                                            0.0000  0.0000  0.0000  0.0000  0.0000
                                           -0.0000  0.0000 -0.0000  0.0000  1.0000
                                            0.0000 -0.0000 -0.0000  0.0000  0.0000
                                            0.0000  0.0000  0.0000  0.0000  0.0000
                                            0.0000 -0.0000 -0.0000  0.0000  0.0000
                                            0.0000  0.0000 -0.0000 -0.0000  0.0000
                                            0.0000  0.0000  0.0000  0.0000  0.0000
    11. (1.99673) CR ( 8) I   3           s(  0.00%)p 0.00(  0.00%)d 1.00(100.00%)
                                           -0.0000 -0.0000  0.0000  0.0000 -0.0000
                                           -0.0000  0.0000  0.0000 -0.0000  0.0000
                                            0.0000  0.0000 -0.0000  0.0000  0.0000
                                           -0.0000  0.0000  0.0000  0.0000  0.0000
                                            0.0000  0.0000 -0.0000  0.0000  0.0000
                                            0.0000  0.0000  0.0000  0.0000  0.0000
                                            0.0000  0.0000  0.0000  1.0000  0.0000
                                           -0.0000 -0.0000 -0.0000  0.0000 -0.0000
                                           -0.0000  0.0000  0.0000  0.0000  0.0000
                                            0.0000  0.0000  0.0000  0.0000  0.0000
                                            0.0000  0.0000  0.0000  0.0000  0.0000
    12. (1.99677) CR ( 9) I   3           s(  0.00%)p 0.00(  0.00%)d 1.00(100.00%)
                                           -0.0000 -0.0000  0.0000  0.0000 -0.0000
                                           -0.0000  0.0000 -0.0000 -0.0000  0.0000
                                            0.0000  0.0000 -0.0000  0.0000  0.0000
                                           -0.0000  0.0000  0.0000  0.0000  0.0000
                                            0.0000  0.0000 -0.0000  0.0000  0.0000
                                            0.0000  0.0000  0.0000  0.0000  0.0000
                                            0.0000  0.0000  0.0000 -0.0000  0.0000
                                           -0.0000 -0.0000  1.0000  0.0000 -0.0000
                                           -0.0000  0.0000  0.0000  0.0000  0.0000
                                            0.0000  0.0000  0.0000  0.0000  0.0000
                                            0.0000  0.0000  0.0000  0.0000  0.0000
    13. (1.97250) LP ( 1) O   1           s( 63.75%)p 0.57( 36.13%)d 0.00(  0.12%)
                                                  f 0.00(  0.00%)
                                            0.0002  0.7984  0.0032  0.0014  0.0024
                                           -0.3457 -0.0100  0.0057 -0.0010  0.4914
                                            0.0117 -0.0045 -0.0003  0.0000  0.0000
                                            0.0000  0.0000  0.0290 -0.0025 -0.0027
                                            0.0000  0.0000  0.0000  0.0000  0.0000
                                            0.0000  0.0047  0.0063 -0.0060  0.0126
                                           -0.0068  0.0037  0.0000  0.0000  0.0019
                                           -0.0017 -0.0034  0.0019  0.0000  0.0000
                                            0.0000  0.0000  0.0015  0.0020  0.0030
                                           -0.0014
    14. (1.96214) LP ( 2) O   1           s(  0.00%)p 1.00( 99.69%)d 0.00(  0.28%)
                                                  f 0.00(  0.03%)
                                            0.0000  0.0000  0.0000  0.0000  0.0000
                                            0.0000  0.0000  0.0000  0.0000  0.0000
                                            0.0000  0.0000  0.0000  0.9981  0.0243
                                           -0.0051  0.0046  0.0000  0.0000  0.0000
                                            0.0404 -0.0141  0.0039 -0.0306 -0.0026
                                            0.0060  0.0000  0.0000  0.0000  0.0000
                                            0.0000  0.0000 -0.0141  0.0049  0.0000
                                            0.0000  0.0000  0.0000  0.0044 -0.0039
                                            0.0022  0.0000  0.0000  0.0000  0.0000
                                            0.0000
    15. (1.98059) LP ( 1) I   3           s( 99.85%)p 0.00(  0.15%)d 0.00(  0.00%)
                                                  f 0.00(  0.00%)
                                            0.0000  0.9993  0.0000  0.0001 -0.0000
                                           -0.0000 -0.0000 -0.0054  0.0004 -0.0002
                                            0.0001 -0.0000 -0.0377  0.0005 -0.0008
                                            0.0001  0.0000  0.0000  0.0000  0.0000
                                            0.0000 -0.0000  0.0015 -0.0003 -0.0001
                                            0.0000  0.0000  0.0000  0.0000  0.0000
                                            0.0000  0.0000  0.0000  0.0000 -0.0024
                                            0.0004  0.0003  0.0000 -0.0019  0.0004
                                            0.0001  0.0000  0.0000 -0.0002 -0.0001
                                           -0.0008 -0.0006  0.0000  0.0000  0.0000
                                            0.0000 -0.0006 -0.0004 -0.0007 -0.0004
    16. (1.95172) LP ( 2) I   3           s(  0.00%)p 1.00(100.00%)d 0.00(  0.00%)
                                                  f 0.00(  0.00%)
                                            0.0000  0.0000  0.0000  0.0000  0.0000
                                            0.0000  0.0000  0.0000  0.0000  0.0000
                                            0.0000  0.0000  0.0000  0.0000  0.0000
                                            0.0000  0.0000  1.0000 -0.0002  0.0009
                                            0.0000  0.0000  0.0000  0.0000  0.0000
                                           -0.0000  0.0025 -0.0013  0.0010 -0.0000
                                            0.0043 -0.0010 -0.0011  0.0000  0.0000
                                            0.0000  0.0000  0.0000  0.0000  0.0000
                                            0.0000 -0.0015 -0.0011  0.0000  0.0000
                                            0.0000  0.0000 -0.0013 -0.0007  0.0010
                                            0.0009  0.0000  0.0000  0.0000  0.0000
    17. (1.95152) LP ( 3) I   3           s(  0.00%)p 1.00( 99.99%)d 0.00(  0.00%)
                                                  f 0.00(  0.00%)
                                           -0.0000  0.0033  0.0013 -0.0023  0.0020
                                           -0.0001 -0.0000 -0.9738 -0.0012 -0.0014
                                            0.0006  0.0000  0.2274 -0.0012 -0.0004
                                            0.0007 -0.0000 -0.0000 -0.0000 -0.0000
                                           -0.0000  0.0000 -0.0049  0.0010  0.0008
                                           -0.0000 -0.0000 -0.0000 -0.0000 -0.0000
                                           -0.0000 -0.0000 -0.0000  0.0000 -0.0040
                                            0.0017 -0.0007 -0.0000  0.0009 -0.0006
                                            0.0010 -0.0000 -0.0000  0.0007  0.0006
                                           -0.0001 -0.0001 -0.0000 -0.0000 -0.0000
                                           -0.0000  0.0013  0.0005 -0.0018 -0.0014
    18. (1.94413) LP ( 4) I   3           s(  0.14%)p99.99( 99.82%)d 0.22(  0.03%)
                                                  f 0.02(  0.00%)
                                            0.0000  0.0379 -0.0005 -0.0018  0.0009
                                            0.0003 -0.0000  0.2273  0.0009 -0.0002
                                           -0.0004 -0.0000  0.9729 -0.0010 -0.0022
                                            0.0005  0.0000  0.0000  0.0000  0.0000
                                            0.0000 -0.0000  0.0079 -0.0009 -0.0003
                                            0.0000  0.0000  0.0000  0.0000  0.0000
                                            0.0000  0.0000  0.0000  0.0000 -0.0124
                                            0.0007  0.0024  0.0000 -0.0092  0.0011
                                            0.0006  0.0000  0.0000 -0.0007 -0.0004
                                           -0.0030 -0.0019  0.0000  0.0000  0.0000
                                            0.0000 -0.0021 -0.0007 -0.0026 -0.0013
    19. (0.01899) RY*( 1) O   1           s(  0.00%)p 1.00( 97.20%)d 0.03(  2.70%)
                                                  f 0.00(  0.10%)
                                            0.0000  0.0000  0.0000  0.0000  0.0000
                                            0.0000  0.0000  0.0000  0.0000  0.0000
                                            0.0000  0.0000  0.0000 -0.0325  0.9850
                                            0.0275 -0.0057  0.0000  0.0000  0.0000
                                            0.1527 -0.0388  0.0078 -0.0447 -0.0009
                                            0.0113  0.0000  0.0000  0.0000  0.0000
                                            0.0000  0.0000 -0.0193  0.0144  0.0000
                                            0.0000  0.0000  0.0000  0.0154 -0.0113
                                           -0.0040  0.0009  0.0000  0.0000  0.0000
                                            0.0000
    20. (0.01536) RY*( 2) O   1           s( 12.47%)p 6.77( 84.37%)d 0.24(  3.05%)
                                                  f 0.01(  0.12%)
                                            0.0000 -0.0177  0.3526  0.0050  0.0025
                                            0.0127 -0.4959  0.0015 -0.0014 -0.0048
                                            0.7725  0.0235 -0.0181  0.0000  0.0000
                                            0.0000  0.0000  0.1653 -0.0111 -0.0104
                                            0.0000  0.0000  0.0000  0.0000  0.0000
                                            0.0000  0.0031  0.0234 -0.0178  0.0294
                                           -0.0327  0.0122  0.0000  0.0000  0.0024
                                           -0.0066 -0.0025  0.0078  0.0000  0.0000
                                            0.0000  0.0000  0.0187  0.0030  0.0243
                                           -0.0092
    21. (0.00942) RY*( 3) O   1           s(  0.37%)p99.99( 92.27%)d19.23(  7.12%)
                                                  f 0.64(  0.24%)
                                           -0.0000  0.0006  0.0477 -0.0377  0.0033
                                           -0.0320 -0.8092  0.0092  0.0085 -0.0239
                                           -0.5133 -0.0345  0.0379 -0.0000 -0.0000
                                           -0.0000 -0.0000 -0.1443  0.0104 -0.0082
                                           -0.0000 -0.0000 -0.0000 -0.0000 -0.0000
                                           -0.0000  0.1874  0.1055 -0.0449 -0.0041
                                           -0.0352  0.0261 -0.0000 -0.0000 -0.0209
                                           -0.0066 -0.0087 -0.0013 -0.0000 -0.0000
                                           -0.0000 -0.0000  0.0092  0.0094 -0.0372
                                            0.0163
    22. (0.00638) RY*( 4) O   1           s( 38.27%)p 0.06(  2.35%)d 1.53( 58.71%)
                                                  f 0.02(  0.66%)
                                            0.0000  0.0137  0.6183 -0.0162  0.0029
                                           -0.0064  0.1450 -0.0136 -0.0026  0.0099
                                           -0.0453 -0.0073 -0.0077 -0.0000 -0.0000
                                           -0.0000 -0.0000 -0.6914 -0.0321  0.0089
                                           -0.0000 -0.0000 -0.0000 -0.0000 -0.0000
                                           -0.0000 -0.1608 -0.0225  0.0141  0.2821
                                            0.0420 -0.0020 -0.0000 -0.0000 -0.0042
                                            0.0108  0.0106 -0.0068 -0.0000 -0.0000
                                           -0.0000 -0.0000 -0.0721  0.0170 -0.0283
                                            0.0069
    23. (0.00619) RY*( 5) O   1           s(  0.00%)p 1.00(  0.81%)d99.99( 97.88%)
                                                  f 1.62(  1.31%)
                                            0.0000  0.0000  0.0000  0.0000  0.0000
                                            0.0000  0.0000  0.0000  0.0000  0.0000
                                            0.0000  0.0000  0.0000 -0.0084 -0.0882
                                           -0.0034 -0.0142  0.0000  0.0000  0.0000
                                            0.7581  0.0715 -0.0172  0.6291  0.0535
                                           -0.0075  0.0000  0.0000  0.0000  0.0000
                                            0.0000  0.0000  0.0034 -0.0021  0.0000
                                            0.0000  0.0000  0.0000  0.1037 -0.0431
                                           -0.0199  0.0083  0.0000  0.0000  0.0000
                                            0.0000
    24. (0.00587) RY*( 6) O   1           s(  0.00%)p 1.00(  1.94%)d50.21( 97.18%)
                                                  f 0.46(  0.89%)
                                            0.0000  0.0000  0.0000  0.0000  0.0000
                                            0.0000  0.0000  0.0000  0.0000  0.0000
                                            0.0000  0.0000  0.0000  0.0453  0.1294
                                            0.0233 -0.0023  0.0000  0.0000  0.0000
                                           -0.6151 -0.0817  0.0180  0.7617  0.0785
                                           -0.0045  0.0000  0.0000  0.0000  0.0000
                                            0.0000  0.0000  0.0779 -0.0322  0.0000
                                            0.0000  0.0000  0.0000  0.0113 -0.0055
                                            0.0377 -0.0137  0.0000  0.0000  0.0000
                                            0.0000
    25. (0.00576) RY*( 7) O   1           s(  8.67%)p 0.68(  5.94%)d 9.75( 84.57%)
                                                  f 0.09(  0.81%)
                                           -0.0000  0.0101  0.2937 -0.0185 -0.0073
                                            0.0246  0.0904  0.0096 -0.0129 -0.0455
                                           -0.2160 -0.0397  0.0044  0.0000  0.0000
                                            0.0000  0.0000  0.5451  0.0501 -0.0115
                                            0.0000  0.0000  0.0000  0.0000  0.0000
                                            0.0000  0.1673  0.0028  0.0114  0.7126
                                            0.0996 -0.0124  0.0000  0.0000  0.0477
                                           -0.0166 -0.0584  0.0209  0.0000  0.0000
                                            0.0000  0.0000  0.0360 -0.0194  0.0065
                                           -0.0026
    26. (0.00316) RY*( 8) O   1           s( 35.38%)p 0.21(  7.60%)d 1.59( 56.39%)
                                                  f 0.02(  0.62%)
                                            0.0000 -0.0072  0.5944  0.0102 -0.0198
                                           -0.0260  0.2051 -0.0333 -0.0145 -0.0065
                                           -0.1764 -0.0232 -0.0157  0.0000  0.0000
                                            0.0000  0.0000  0.2467  0.0362 -0.0025
                                            0.0000  0.0000  0.0000  0.0000  0.0000
                                            0.0000  0.3730  0.0467  0.0182 -0.5859
                                           -0.1293 -0.0073  0.0000  0.0000 -0.0208
                                            0.0269  0.0124 -0.0142  0.0000  0.0000
                                            0.0000  0.0000  0.0424 -0.0470 -0.0266
                                            0.0036
    27. (0.00276) RY*( 9) O   1           s(  4.68%)p 1.65(  7.75%)d18.44( 86.37%)
                                                  f 0.26(  1.20%)
                                            0.0000 -0.0037  0.2154  0.0201 -0.0021
                                            0.0369 -0.1170  0.0666 -0.0240  0.0287
                                           -0.2306  0.0509 -0.0290 -0.0000 -0.0000
                                           -0.0000 -0.0000  0.3060  0.0736 -0.0000
                                           -0.0000 -0.0000 -0.0000 -0.0000 -0.0000
                                           -0.0000 -0.8437 -0.1439 -0.0192 -0.1733
                                           -0.0415 -0.0058 -0.0000 -0.0000  0.0169
                                           -0.0169  0.0223 -0.0263 -0.0000 -0.0000
                                           -0.0000 -0.0000 -0.0389  0.0101  0.0808
                                           -0.0453
    28. (0.00075) RY*(10) O   1           s( 42.82%)p 1.04( 44.71%)d 0.25( 10.61%)
                                                  f 0.04(  1.86%)
                                            0.0000 -0.0037 -0.0221  0.6535  0.0260
                                           -0.0042 -0.0327  0.0050 -0.0876 -0.0034
                                            0.0031 -0.6021 -0.2752 -0.0000 -0.0000
                                           -0.0000 -0.0000 -0.0323  0.1315 -0.0619
                                           -0.0000 -0.0000 -0.0000 -0.0000 -0.0000
                                           -0.0000  0.0231 -0.2096  0.0996  0.0300
                                           -0.1555  0.0671 -0.0000 -0.0000  0.0160
                                            0.0159  0.0205  0.0730 -0.0000 -0.0000
                                           -0.0000 -0.0000 -0.0071  0.0653  0.0452
                                            0.0772
    29. (0.00056) RY*(11) O   1           s(  0.00%)p 1.00( 43.60%)d 1.15( 50.20%)
                                                  f 0.14(  6.19%)
                                            0.0000  0.0000  0.0000  0.0000  0.0000
                                            0.0000  0.0000  0.0000  0.0000  0.0000
                                            0.0000  0.0000  0.0000 -0.0068 -0.0479
                                            0.6581  0.0248  0.0000  0.0000  0.0000
                                            0.0371 -0.3940 -0.0788 -0.0514  0.5649
                                            0.1319  0.0000  0.0000  0.0000  0.0000
                                            0.0000  0.0000 -0.2423  0.0349  0.0000
                                            0.0000  0.0000  0.0000 -0.0014 -0.0099
                                           -0.0417 -0.0136  0.0000  0.0000  0.0000
                                            0.0000
    30. (0.00056) RY*(12) O   1           s(  1.04%)p56.92( 59.11%)d33.77( 35.07%)
                                                  f 4.60(  4.78%)
                                           -0.0000  0.0082  0.0072  0.0828 -0.0584
                                            0.0001 -0.0495 -0.7615  0.0555 -0.0053
                                           -0.0421  0.0591  0.0200 -0.0000 -0.0000
                                           -0.0000 -0.0000  0.0308 -0.4922 -0.0804
                                           -0.0000 -0.0000 -0.0000 -0.0000 -0.0000
                                           -0.0000 -0.0121 -0.3108  0.0142 -0.0086
                                            0.0179 -0.0609 -0.0000 -0.0000  0.1212
                                            0.0171 -0.1466  0.0007 -0.0000 -0.0000
                                           -0.0000 -0.0000  0.0530 -0.0578  0.0710
                                           -0.0101
    31. (0.00054) RY*(13) O   1           s(  0.00%)p 1.00( 19.23%)d 2.89( 55.60%)
                                                  f 1.31( 25.17%)
                                            0.0000  0.0000  0.0000  0.0000  0.0000
                                            0.0000  0.0000  0.0000  0.0000  0.0000
                                            0.0000  0.0000  0.0000  0.0164  0.0290
                                            0.4305  0.0766  0.0000  0.0000  0.0000
                                           -0.0087  0.7054  0.2029  0.0083  0.1231
                                            0.0446  0.0000  0.0000  0.0000  0.0000
                                            0.0000  0.0000  0.2471 -0.0164  0.0000
                                            0.0000  0.0000  0.0000 -0.4229  0.0377
                                            0.1004  0.0016  0.0000  0.0000  0.0000
                                            0.0000
    32. (0.00049) RY*(14) O   1           s(  0.43%)p23.03(  9.88%)d99.99( 70.53%)
                                                  f44.66( 19.16%)
                                           -0.0000 -0.0013 -0.0221  0.0015  0.0616
                                            0.0034  0.0356  0.1416 -0.0218 -0.0098
                                           -0.0262  0.2627 -0.0851 -0.0000 -0.0000
                                           -0.0000 -0.0000 -0.0441 -0.1442 -0.0931
                                           -0.0000 -0.0000 -0.0000 -0.0000 -0.0000
                                           -0.0000  0.0324 -0.0084 -0.0396  0.1415
                                           -0.7933 -0.1476 -0.0000 -0.0000 -0.0352
                                           -0.0202  0.0001  0.0452 -0.0000 -0.0000
                                           -0.0000 -0.0000  0.2287  0.0899  0.3549
                                            0.0397
    33. (0.00046) RY*(15) O   1           s(  0.44%)p20.36(  8.89%)d26.59( 11.60%)
                                                  f99.99( 79.07%)
                                            0.0000  0.0032 -0.0141  0.0600  0.0235
                                            0.0013 -0.0194 -0.1619 -0.0235  0.0051
                                           -0.0007  0.2421 -0.0559  0.0000  0.0000
                                            0.0000  0.0000 -0.0074  0.2369  0.0669
                                            0.0000  0.0000  0.0000  0.0000  0.0000
                                            0.0000  0.0109 -0.1855 -0.0203  0.0519
                                           -0.1308 -0.0251  0.0000  0.0000  0.3247
[...]
                                            0.9855  0.1559 -0.0306  0.0000  0.0000
                                            0.0451 -0.0206 -0.0101  0.0311  0.0000
                                            0.0000  0.0000  0.0000
   126. (0.00397) RY*( 3) H   4           s(  0.78%)p99.99( 97.92%)d 1.68(  1.30%)
                                            0.0164 -0.0194  0.0836 -0.0107 -0.9631
                                            0.0274 -0.0274 -0.2037  0.0913 -0.0195
                                           -0.0000 -0.0000 -0.0000  0.0335 -0.0238
                                           -0.0000 -0.0000 -0.0000 -0.0000 -0.0685
                                            0.0337  0.0727  0.0155
   127. (0.00241) RY*( 4) H   4           s( 41.13%)p 1.42( 58.22%)d 0.02(  0.65%)
                                            0.0293  0.5772 -0.2724  0.0558 -0.2048
                                           -0.0156  0.0409  0.7037 -0.1988  0.0602
                                            0.0000  0.0000  0.0000  0.0543  0.0074
                                            0.0000  0.0000  0.0000  0.0000 -0.0361
                                           -0.0398 -0.0218 -0.0115
   128. (0.00067) RY*( 5) H   4           s( 60.86%)p 0.60( 36.52%)d 0.04(  2.62%)
                                           -0.0050  0.1655  0.7535  0.1155  0.0359
                                            0.4605 -0.0053  0.2625  0.2740 -0.0887
                                            0.0000  0.0000  0.0000 -0.0371  0.0646
                                            0.0000  0.0000  0.0000  0.0000  0.1370
                                           -0.0184  0.0337  0.0205
   129. (0.00038) RY*( 6) H   4           s(  7.16%)p12.40( 88.87%)d 0.55(  3.96%)
                                           -0.0052  0.0853  0.2443  0.0684  0.0093
                                           -0.8152  0.0812  0.1349  0.3940 -0.2101
                                           -0.0000 -0.0000 -0.0000  0.0424 -0.1408
                                           -0.0000 -0.0000 -0.0000 -0.0000  0.1086
                                           -0.0034  0.0724  0.0304
   130. (0.00037) RY*( 7) H   4           s(  0.00%)p 1.00( 93.84%)d 0.07(  6.16%)
                                            0.0000  0.0000  0.0000  0.0000  0.0000
                                            0.0000  0.0000  0.0000  0.0000  0.0000
                                           -0.1576  0.9542  0.0547  0.0000  0.0000
                                            0.1057 -0.0235  0.1657  0.1499  0.0000
                                            0.0000  0.0000  0.0000
   131. (0.00034) RY*( 8) H   4           s(  4.40%)p11.29( 49.65%)d10.45( 45.95%)
                                           -0.0156 -0.0457  0.1451  0.1436  0.0009
                                           -0.1071  0.2402 -0.0046  0.1784  0.6289
                                           -0.0000 -0.0000 -0.0000  0.2051  0.1710
                                           -0.0000 -0.0000 -0.0000 -0.0000 -0.3947
                                           -0.3044 -0.3028 -0.2192
   132. (0.00026) RY*( 9) H   4           s(  2.39%)p 5.69( 13.61%)d35.11( 84.00%)
                                            0.0001  0.0482 -0.0190  0.1457  0.0511
                                           -0.0447 -0.3212  0.0453  0.1551  0.0468
                                           -0.0000 -0.0000 -0.0000 -0.6314  0.0634
                                           -0.0000 -0.0000 -0.0000 -0.0000 -0.5841
                                            0.0704  0.3021 -0.0021
   133. (0.00022) RY*(10) H   4           s(  0.00%)p 1.00(  7.70%)d11.98( 92.30%)
                                            0.0000  0.0000  0.0000  0.0000  0.0000
                                            0.0000  0.0000  0.0000  0.0000  0.0000
                                            0.0374 -0.1700  0.2162  0.0000  0.0000
                                            0.1506 -0.1214  0.9340 -0.1150  0.0000
                                            0.0000  0.0000  0.0000
   134. (0.00015) RY*(11) H   4           s(  0.00%)p 1.00(  0.57%)d99.99( 99.43%)
                                            0.0000  0.0000  0.0000  0.0000  0.0000
                                            0.0000  0.0000  0.0000  0.0000  0.0000
                                           -0.0265 -0.0580 -0.0409  0.0000  0.0000
                                            0.9373  0.2927 -0.1275 -0.1176  0.0000
                                            0.0000  0.0000  0.0000
   135. (0.00016) RY*(12) H   4           s(  0.07%)p23.95(  1.57%)d99.99( 98.36%)
                                            0.0022  0.0048  0.0251 -0.0001  0.0936
                                            0.0434  0.0356 -0.0199 -0.0466  0.0349
                                            0.0000  0.0000  0.0000  0.5537  0.0254
                                            0.0000  0.0000  0.0000  0.0000 -0.2511
                                           -0.1128  0.7451  0.2132
   136. (0.00014) RY*(13) H   4           s( 30.06%)p 1.46( 43.74%)d 0.87( 26.20%)
                                           -0.0159 -0.0065 -0.2599  0.4824  0.0355
                                            0.1559 -0.5162 -0.0042  0.3811  0.0132
                                            0.0000  0.0000  0.0000  0.3354 -0.3379
                                            0.0000  0.0000  0.0000  0.0000  0.0394
                                            0.0798 -0.1481 -0.0739
   137. (0.00013) RY*(14) H   4           s(  0.00%)p 1.00( 72.23%)d 0.38( 27.77%)
                                            0.0000  0.0000  0.0000  0.0000  0.0000
                                            0.0000  0.0000  0.0000  0.0000  0.0000
                                            0.0229 -0.1010  0.8436  0.0000  0.0000
                                            0.0598  0.0395 -0.1578  0.4976  0.0000
                                            0.0000  0.0000  0.0000
   138. (0.00012) RY*(15) H   4           s( 16.59%)p 3.37( 55.96%)d 1.65( 27.45%)
                                           -0.0063 -0.0230 -0.2805  0.2943  0.0163
                                            0.1600  0.5676 -0.0082  0.3421 -0.3074
                                            0.0000  0.0000  0.0000  0.0326  0.3228
                                            0.0000  0.0000  0.0000  0.0000 -0.1597
                                            0.3657 -0.0515  0.0859
   139. (0.00009) RY*(16) H   4           s( 17.78%)p 0.29(  5.10%)d 4.34( 77.12%)
   140. (0.00008) RY*(17) H   4           s(  0.00%)p 1.00(  0.44%)d99.99( 99.56%)
   141. (0.00007) RY*(18) H   4           s(  3.11%)p 0.68(  2.11%)d30.47( 94.78%)
   142. (0.00005) RY*(19) H   4           s( 43.40%)p 1.11( 48.32%)d 0.19(  8.29%)
   143. (0.00003) RY*(20) H   4           s(  1.84%)p13.37( 24.56%)d40.05( 73.60%)
   144. (0.00003) RY*(21) H   4           s(  0.00%)p 1.00( 25.57%)d 2.91( 74.43%)
   145. (0.00002) RY*(22) H   4           s(  8.37%)p 4.38( 36.64%)d 6.57( 54.99%)
   146. (0.01930) BD*( 1) O   1 - H   2  
                ( 16.04%)   0.4005* O   1 s( 15.60%)p 5.39( 84.03%)d 0.02(  0.35%)
                                                  f 0.00(  0.01%)
                                           -0.0001 -0.3950 -0.0013 -0.0020  0.0040
                                           -0.9165  0.0164 -0.0056  0.0014 -0.0049
                                            0.0105 -0.0006  0.0035 -0.0000 -0.0000
                                           -0.0000 -0.0000  0.0244 -0.0027 -0.0019
                                           -0.0000 -0.0000 -0.0000 -0.0000 -0.0000
                                           -0.0000 -0.0434  0.0088 -0.0052  0.0302
                                           -0.0032  0.0016 -0.0000 -0.0000  0.0097
                                           -0.0010 -0.0002  0.0001 -0.0000 -0.0000
                                           -0.0000 -0.0000 -0.0021 -0.0019 -0.0017
                                           -0.0001
                ( 83.96%)  -0.9163* H   2 s( 99.79%)p 0.00(  0.18%)d 0.00(  0.04%)
                                           -0.9989  0.0023  0.0002 -0.0000 -0.0072
                                           -0.0415  0.0021  0.0011  0.0012  0.0018
                                           -0.0000 -0.0000 -0.0000 -0.0004  0.0027
                                           -0.0000 -0.0000 -0.0000 -0.0000 -0.0144
                                            0.0044  0.0114 -0.0016
   147. (0.02000) BD*( 1) O   1 - H   4  
                ( 14.25%)   0.3775* O   1 s( 20.58%)p 3.84( 79.09%)d 0.02(  0.33%)
                                                  f 0.00(  0.01%)
                                            0.0001  0.4535 -0.0070 -0.0045 -0.0015
                                           -0.1892  0.0116  0.0013  0.0006 -0.8685
                                            0.0221 -0.0069  0.0050 -0.0000 -0.0000
                                           -0.0000 -0.0000 -0.0085  0.0054  0.0002
                                           -0.0000 -0.0000 -0.0000 -0.0000 -0.0000
                                           -0.0000 -0.0473  0.0055 -0.0031 -0.0298
                                           -0.0011  0.0011 -0.0000 -0.0000  0.0018
                                           -0.0005  0.0089 -0.0004 -0.0000 -0.0000
                                           -0.0000 -0.0000  0.0022  0.0022 -0.0015
                                            0.0041
                ( 85.75%)  -0.9260* H   4 s( 99.83%)p 0.00(  0.16%)d 0.00(  0.01%)
                                            0.9989 -0.0214  0.0027 -0.0001  0.0220
                                            0.0029 -0.0004 -0.0094  0.0302  0.0111
                                           -0.0000 -0.0000 -0.0000  0.0035 -0.0033
                                           -0.0000 -0.0000 -0.0000 -0.0000  0.0009
                                           -0.0003 -0.0064 -0.0018


 NHO Directionality and "Bond Bending" (deviations from line of nuclear centers)

         [Thresholds for printing:  angular deviation  >  1.0 degree]
                                    hybrid p-character > 25.0%
                                    orbital occupancy  >  0.10e

                                Line of Centers        Hybrid 1              Hybrid 2
                                ---------------  -------------------   ------------------
                NBO               Theta   Phi    Theta   Phi    Dev    Theta   Phi    Dev
 ========================================================================================
    13. LP (   1) O   1             --     --     90.0  125.2   --       --     --    --
    14. LP (   2) O   1             --     --      0.0    0.0   --       --     --    --
    16. LP (   2) I   3             --     --      0.0    0.0   --       --     --    --
    17. LP (   3) I   3             --     --     90.0  166.9   --       --     --    --
    18. LP (   4) I   3             --     --     90.0   76.8   --       --     --    --


 Natural Bond Orbitals (Summary):

           NBO                  Occupancy  
 -----------------------------------------------
 Molecular unit  1  (H2O)
     1. BD (   1) O   1 - H   2          1.96494
     2. BD (   1) O   1 - H   4          1.96850
     3. CR (   1) O   1                  1.99991
    13. LP (   1) O   1                  1.97250
    14. LP (   2) O   1                  1.96214
    19. RY*(   1) O   1                  0.01899
    20. RY*(   2) O   1                  0.01536
    21. RY*(   3) O   1                  0.00942
    22. RY*(   4) O   1                  0.00638
    23. RY*(   5) O   1                  0.00619
    24. RY*(   6) O   1                  0.00587
    25. RY*(   7) O   1                  0.00576
    26. RY*(   8) O   1                  0.00316
    27. RY*(   9) O   1                  0.00276
    28. RY*(  10) O   1                  0.00075
    29. RY*(  11) O   1                  0.00056
    30. RY*(  12) O   1                  0.00056
    31. RY*(  13) O   1                  0.00054
    32. RY*(  14) O   1                  0.00049
    33. RY*(  15) O   1                  0.00046
    34. RY*(  16) O   1                  0.00044
    35. RY*(  17) O   1                  0.00044
    36. RY*(  18) O   1                  0.00044
    37. RY*(  19) O   1                  0.00042
    38. RY*(  20) O   1                  0.00041
    39. RY*(  21) O   1                  0.00034
    40. RY*(  22) O   1                  0.00032
    41. RY*(  23) O   1                  0.00026
    42. RY*(  24) O   1                  0.00024
    43. RY*(  25) O   1                  0.00021
    44. RY*(  26) O   1                  0.00013
    45. RY*(  27) O   1                  0.00008
    46. RY*(  28) O   1                  0.00007
    47. RY*(  29) O   1                  0.00007
    48. RY*(  30) O   1                  0.00008
    49. RY*(  31) O   1                  0.00008
    50. RY*(  32) O   1                  0.00007
    51. RY*(  33) O   1                  0.00006
    52. RY*(  34) O   1                  0.00007
    53. RY*(  35) O   1                  0.00007
    54. RY*(  36) O   1                  0.00006
    55. RY*(  37) O   1                  0.00005
    56. RY*(  38) O   1                  0.00005
    57. RY*(  39) O   1                  0.00002
    58. RY*(  40) O   1                  0.00002
    59. RY*(  41) O   1                 -0.00006
    60. RY*(   1) H   2                  0.00163
    61. RY*(   2) H   2                  0.00151
    62. RY*(   3) H   2                  0.00061
    63. RY*(   4) H   2                  0.00030
    64. RY*(   5) H   2                  0.00022
    65. RY*(   6) H   2                  0.00015
    66. RY*(   7) H   2                  0.00012
    67. RY*(   8) H   2                  0.00011
    68. RY*(   9) H   2                  0.00011
    69. RY*(  10) H   2                  0.00007
    70. RY*(  11) H   2                  0.00006
    71. RY*(  12) H   2                  0.00006
    72. RY*(  13) H   2                  0.00003
    73. RY*(  14) H   2                  0.00003
    74. RY*(  15) H   2                  0.00003
    75. RY*(  16) H   2                  0.00004
    76. RY*(  17) H   2                  0.00003
    77. RY*(  18) H   2                  0.00002
    78. RY*(  19) H   2                  0.00001
    79. RY*(  20) H   2                  0.00002
    80. RY*(  21) H   2                  0.00001
    81. RY*(  22) H   2                  0.00001
   124. RY*(   1) H   4                  0.00842
   125. RY*(   2) H   4                  0.00466
   126. RY*(   3) H   4                  0.00397
   127. RY*(   4) H   4                  0.00241
   128. RY*(   5) H   4                  0.00067
   129. RY*(   6) H   4                  0.00038
   130. RY*(   7) H   4                  0.00037
   131. RY*(   8) H   4                  0.00034
   132. RY*(   9) H   4                  0.00026
   133. RY*(  10) H   4                  0.00022
   134. RY*(  11) H   4                  0.00015
   135. RY*(  12) H   4                  0.00016
   136. RY*(  13) H   4                  0.00014
   137. RY*(  14) H   4                  0.00013
   138. RY*(  15) H   4                  0.00012
   139. RY*(  16) H   4                  0.00009
   140. RY*(  17) H   4                  0.00008
   141. RY*(  18) H   4                  0.00007
   142. RY*(  19) H   4                  0.00005
   143. RY*(  20) H   4                  0.00003
   144. RY*(  21) H   4                  0.00003
   145. RY*(  22) H   4                  0.00002
   146. BD*(   1) O   1 - H   2          0.01930
   147. BD*(   1) O   1 - H   4          0.02000
       -------------------------------
              Total Lewis    9.86800  ( 98.5129%)
        Valence non-Lewis    0.03930  (  0.3924%)
        Rydberg non-Lewis    0.10966  (  1.0947%)
       -------------------------------
            Total unit  1   10.01696  (100.0000%)
           Charge unit  1   -0.01696

 Molecular unit  2  (I)
     4. CR (   1) I   3                  2.00003
     5. CR (   2) I   3                  2.00007
     6. CR (   3) I   3                  2.00006
     7. CR (   4) I   3                  2.00007
     8. CR (   5) I   3                  1.99675
     9. CR (   6) I   3                  1.99678
    10. CR (   7) I   3                  1.99676
    11. CR (   8) I   3                  1.99673
    12. CR (   9) I   3                  1.99677
    15. LP (   1) I   3                  1.98059
    16. LP (   2) I   3                  1.95172
    17. LP (   3) I   3                  1.95152
    18. LP (   4) I   3                  1.94413
    82. RY*(   1) I   3                  0.02033
    83. RY*(   2) I   3                  0.02029
    84. RY*(   3) I   3                  0.02026
    85. RY*(   4) I   3                  0.02017
    86. RY*(   5) I   3                  0.02017
    87. RY*(   6) I   3                  0.01113
    88. RY*(   7) I   3                  0.01109
    89. RY*(   8) I   3                  0.01028
    90. RY*(   9) I   3                  0.00406
    91. RY*(  10) I   3                  0.00279
    92. RY*(  11) I   3                  0.00279
    93. RY*(  12) I   3                  0.00277
    94. RY*(  13) I   3                  0.00277
    95. RY*(  14) I   3                  0.00272
    96. RY*(  15) I   3                  0.00271
    97. RY*(  16) I   3                  0.00271
    98. RY*(  17) I   3                  0.00168
    99. RY*(  18) I   3                  0.00168
   100. RY*(  19) I   3                  0.00144
   101. RY*(  20) I   3                  0.00144
   102. RY*(  21) I   3                  0.00122
   103. RY*(  22) I   3                  0.00074
   104. RY*(  23) I   3                  0.00074
   105. RY*(  24) I   3                  0.00070
   106. RY*(  25) I   3                  0.00051
   107. RY*(  26) I   3                  0.00044
   108. RY*(  27) I   3                  0.00044
   109. RY*(  28) I   3                  0.00043
   110. RY*(  29) I   3                  0.00043
   111. RY*(  30) I   3                  0.00041
   112. RY*(  31) I   3                  0.00040
   113. RY*(  32) I   3                  0.00035
   114. RY*(  33) I   3                  0.00016
   115. RY*(  34) I   3                  0.00016
   116. RY*(  35) I   3                  0.00014
   117. RY*(  36) I   3                  0.00015
   118. RY*(  37) I   3                  0.00011
   119. RY*(  38) I   3                  0.00008
   120. RY*(  39) I   3                  0.00008
   121. RY*(  40) I   3                  0.00006
   122. RY*(  41) I   3                  0.00007
   123. RY*(  42) I   3                  0.00000
       -------------------------------
              Total Lewis   53.81197  ( 99.6831%)
        Valence non-Lewis    0.00000  (  0.0000%)
        Rydberg non-Lewis    0.17107  (  0.3169%)
       -------------------------------
            Total unit  2   53.98304  (100.0000%)
           Charge unit  2   -0.98304
 Leave Link  607 at Tue Oct 12 16:22:05 2021, MaxMem=  1048576000 cpu:         5.6
 (Enter /usr/local/gaussian/g09/l9999.exe)
 1\1\GINC-KRYPTON\SP\RMP2-FC\Gen\H2I1O1(1-)\CGAVINH\12-Oct-2021\0\\#p p
 op=NBO SP NoSymm mp2/gen Pseudo=read density=current\\title\\-1,1\O\X,
 1,10.\H,1,0.9609077,2,90.\I,1,3.50850362,2,90.,3,101.85830594,0\H,1,0.
 9,2,90.,3,101.85830594,0\\Version=ES64L-G09RevE.01\HF=-370.8144781\MP2
 =-371.3072153\RMSD=2.984e-09\Dipole=0.7420824,0.8272041,0.\Quadrupole=
 12.8905857,-25.4424738,12.5518881,-7.5350089,0.,0.\PG=CS [SG(H2I1O1)]\
 \@


 THE FIRST AND LAST THING REQUIRED OF GENIUS IS THE LOVE OF TRUTH.

                          -- GOETHE
 Job cpu time:       0 days  0 hours  2 minutes 35.5 seconds.
 File lengths (MBytes):  RWF=     15 Int=      0 D2E=      0 Chk=      3 Scr=      1
 Normal termination of Gaussian 09 at Tue Oct 12 16:22:05 2021.
