title                                                                   
SP        RMP2-FC                                                     Gen                 
Number of atoms                            I                4
Info1-9                                    I   N=           9
         144         135           0           0           0         110
           1           2           1
Charge                                     I               -1
Multiplicity                               I                1
Number of electrons                        I               36
Number of alpha electrons                  I               18
Number of beta electrons                   I               18
Number of basis functions                  I              191
Number of independent functions            I              147
Number of point charges in /Mol/           I                0
Number of translation vectors              I                0
Atomic numbers                             I   N=           4
           8           1          53           1
Nuclear charges                            R   N=           4
  8.00000000E+00  1.00000000E+00  2.50000000E+01  1.00000000E+00
Current cartesian coordinates              R   N=          12
  0.00000000E+00  0.00000000E+00  0.00000000E+00  1.81585239E+00  0.00000000E+00
  0.00000000E+00 -1.36243524E+00 -6.48861632E+00  0.00000000E+00 -3.68907550E-01
 -1.75692722E+00  0.00000000E+00
Force Field                                I                0
Int Atom Types                             I   N=           4
           0           0           0           0
MM charges                                 R   N=           4
  0.00000000E+00  0.00000000E+00  0.00000000E+00  0.00000000E+00
Integer atomic weights                     I   N=           4
          16           2         127           1
Real atomic weights                        R   N=           4
  1.59949146E+01  2.01410179E+00  1.26900400E+02  1.00782504E+00
Atom fragment info                         I   N=           4
           0           0           0           0
Atom residue num                           I   N=           4
           0           0           0           0
Nuclear spins                              I   N=           4
           0           2           5           1
Nuclear ZEff                               R   N=           4
 -5.60000000E+00 -1.00000000E+00 -5.83000000E+03 -1.00000000E+00
Nuclear ZNuc                               R   N=           4
  8.00000000E+00  1.00000000E+00  5.30000000E+01  1.00000000E+00
Nuclear QMom                               R   N=           4
  0.00000000E+00  2.86000000E-01 -7.10000000E+01  0.00000000E+00
Nuclear GFac                               R   N=           4
  0.00000000E+00  8.57438000E-01  2.81328000E+00  2.79284600E+00
MicOpt                                     I   N=           4
          -1          -1          -1          -1
Number of contracted shells                I               65
Number of primitive shells                 I              119
Pure/Cartesian d shells                    I                0
Pure/Cartesian f shells                    I                0
Highest angular momentum                   I                3
Largest degree of contraction              I                9
Shell types                                I   N=          65
           0           0           0           0           0           1
           1           1           1          -2          -2          -2
          -3          -3           0           0           0           0
           0           0           0           1           1           1
           1           1           1          -2          -2          -2
          -2           0           0           0           0           0
           0           1           1           1           1           1
          -2          -2          -2          -2          -3          -3
           0           0           0           0           0           0
           0           1           1           1           1           1
           1          -2          -2          -2          -2
Number of primitives per shell             I   N=          65
           7           6           1           1           1           3
           1           1           1           1           1           1
           1           1           3           1           1           1
           1           1           1           1           1           1
           1           1           1           1           1           1
           1           9           8           1           1           1
           1           8           8           1           1           1
           9           1           1           1           1           1
           3           1           1           1           1           1
           1           1           1           1           1           1
           1           1           1           1           1
Shell to atom map                          I   N=          65
           1           1           1           1           1           1
           1           1           1           1           1           1
           1           1           2           2           2           2
           2           2           2           2           2           2
           2           2           2           2           2           2
           2           3           3           3           3           3
           3           3           3           3           3           3
           3           3           3           3           3           3
           4           4           4           4           4           4
           4           4           4           4           4           4
           4           4           4           4           4
Primitive exponents                        R   N=         119
  1.53300000E+04  2.29900000E+03  5.22400000E+02  1.47300000E+02  4.75500000E+01
  1.67600000E+01  6.20700000E+00  5.22400000E+02  1.47300000E+02  4.75500000E+01
  1.67600000E+01  6.20700000E+00  6.88200000E-01  1.75200000E+00  2.38400000E-01
  7.37600000E-02  3.44600000E+01  7.74900000E+00  2.28000000E+00  7.15600000E-01
  2.14000000E-01  5.97400000E-02  2.31400000E+00  6.45000000E-01  2.14000000E-01
  1.42800000E+00  5.00000000E-01  3.38700000E+01  5.09500000E+00  1.15900000E+00
  3.25800000E-01  1.02700000E-01  2.52600000E-02  3.25800000E-01  1.02700000E-01
  2.52600000E-02  1.40700000E+00  3.88000000E-01  1.02000000E-01  1.40700000E+00
  3.88000000E-01  1.02000000E-01  1.05700000E+00  2.47000000E-01  1.05700000E+00
  2.47000000E-01  5.54650000E+03  8.38214000E+02  1.82187000E+02  3.12123000E+01
  1.95314000E+01  8.24099000E+00  2.19455000E+00  1.10911000E+00  8.10610000E-02
  5.54650000E+03  8.38214000E+02  3.12123000E+01  1.95314000E+01  8.24099000E+00
  2.19455000E+00  1.10911000E+00  8.10610000E-02  3.74641000E-01  1.77080000E-01
  1.00100000E-01  4.12000000E-02  1.88988000E+02  2.12868000E+01  1.00396000E+01
  3.45180000E+00  1.97456000E+00  1.02420000E+00  4.49437000E-01  7.34810000E-02
  1.88988000E+02  1.00396000E+01  3.45180000E+00  1.97456000E+00  1.02420000E+00
  4.49437000E-01  1.86648000E-01  7.34810000E-02  5.98100000E-01  9.61800000E-02
  3.59000000E-02  1.32662000E+02  3.76054000E+01  1.03891000E+01  6.49017000E+00
  3.45451000E+00  1.84413000E+00  9.62478000E-01  4.72853000E-01  1.93200000E-01
  4.72853000E-01  1.93200000E-01  7.82000000E-02  4.06400000E-01  1.84800000E-01
  3.38700000E+01  5.09500000E+00  1.15900000E+00  3.25800000E-01  1.02700000E-01
  2.52600000E-02  3.25800000E-01  1.02700000E-01  2.52600000E-02  1.40700000E+00
  3.88000000E-01  1.02000000E-01  1.40700000E+00  3.88000000E-01  1.02000000E-01
  1.05700000E+00  2.47000000E-01  1.05700000E+00  2.47000000E-01
Contraction coefficients                   R   N=         119
  5.19808943E-04  4.02025621E-03  2.07128267E-02  8.10105536E-02  2.35962985E-01
  4.42653446E-01  3.57064423E-01 -4.42115008E-05 -1.22591041E-03 -1.05517725E-02
 -6.74452633E-02 -1.71198607E-01  1.07329856E+00  1.00000000E+00  1.00000000E+00
  1.00000000E+00  4.11634896E-02  2.57762836E-01  8.02419274E-01  1.00000000E+00
  1.00000000E+00  1.00000000E+00  1.00000000E+00  1.00000000E+00  1.00000000E+00
  1.00000000E+00  1.00000000E+00  2.54948632E-02  1.90362766E-01  8.52162022E-01
  1.00000000E+00  1.00000000E+00  1.00000000E+00  1.00000000E+00  1.00000000E+00
  1.00000000E+00  1.00000000E+00  1.00000000E+00  1.00000000E+00  1.00000000E+00
  1.00000000E+00  1.00000000E+00  1.00000000E+00  1.00000000E+00  1.00000000E+00
  1.00000000E+00  1.58603022E-04  1.00211458E-03  2.83966410E-03 -4.40310212E-02
  2.38198152E-01 -7.63568980E-01  8.96516870E-01  4.68371203E-01  2.16251781E-03
 -2.17177846E-05 -2.59237305E-04 -1.50376554E-02  2.42214079E-02  6.99888661E-02
 -5.50491335E-01 -5.69654432E-01  3.76065139E-01  1.00000000E+00  1.00000000E+00
  1.00000000E+00  1.00000000E+00  5.85232173E-04  3.69335916E-02 -2.35399435E-01
  3.41625365E-01  5.34991615E-01  2.65244797E-01  2.54463150E-02  3.82802808E-04
 -6.76097015E-05  8.33123161E-03 -4.66496478E-02 -5.27406452E-02 -2.91398344E-02
  3.65650039E-01  5.48502805E-01  2.34644635E-01  1.00000000E+00  1.00000000E+00
  1.00000000E+00  5.72000072E-04  4.40200055E-03 -4.09220051E-02  9.96610125E-02
  3.22663040E-01  4.00343050E-01  2.68306034E-01  8.48470106E-02  7.63200096E-03
  1.00000000E+00  1.00000000E+00  1.00000000E+00  1.00000000E+00  1.00000000E+00
  2.54948632E-02  1.90362766E-01  8.52162022E-01  1.00000000E+00  1.00000000E+00
  1.00000000E+00  1.00000000E+00  1.00000000E+00  1.00000000E+00  1.00000000E+00
  1.00000000E+00  1.00000000E+00  1.00000000E+00  1.00000000E+00  1.00000000E+00
  1.00000000E+00  1.00000000E+00  1.00000000E+00  1.00000000E+00
Coordinates of each shell                  R   N=         195
  0.00000000E+00  0.00000000E+00  0.00000000E+00  0.00000000E+00  0.00000000E+00
  0.00000000E+00  0.00000000E+00  0.00000000E+00  0.00000000E+00  0.00000000E+00
  0.00000000E+00  0.00000000E+00  0.00000000E+00  0.00000000E+00  0.00000000E+00
  0.00000000E+00  0.00000000E+00  0.00000000E+00  0.00000000E+00  0.00000000E+00
  0.00000000E+00  0.00000000E+00  0.00000000E+00  0.00000000E+00  0.00000000E+00
  0.00000000E+00  0.00000000E+00  0.00000000E+00  0.00000000E+00  0.00000000E+00
  0.00000000E+00  0.00000000E+00  0.00000000E+00  0.00000000E+00  0.00000000E+00
  0.00000000E+00  0.00000000E+00  0.00000000E+00  0.00000000E+00  0.00000000E+00
  0.00000000E+00  0.00000000E+00  1.81585239E+00  0.00000000E+00  0.00000000E+00
  1.81585239E+00  0.00000000E+00  0.00000000E+00  1.81585239E+00  0.00000000E+00
  0.00000000E+00  1.81585239E+00  0.00000000E+00  0.00000000E+00  1.81585239E+00
  0.00000000E+00  0.00000000E+00  1.81585239E+00  0.00000000E+00  0.00000000E+00
  1.81585239E+00  0.00000000E+00  0.00000000E+00  1.81585239E+00  0.00000000E+00
  0.00000000E+00  1.81585239E+00  0.00000000E+00  0.00000000E+00  1.81585239E+00
  0.00000000E+00  0.00000000E+00  1.81585239E+00  0.00000000E+00  0.00000000E+00
  1.81585239E+00  0.00000000E+00  0.00000000E+00  1.81585239E+00  0.00000000E+00
  0.00000000E+00  1.81585239E+00  0.00000000E+00  0.00000000E+00  1.81585239E+00
  0.00000000E+00  0.00000000E+00  1.81585239E+00  0.00000000E+00  0.00000000E+00
  1.81585239E+00  0.00000000E+00  0.00000000E+00 -1.36243524E+00 -6.48861632E+00
  0.00000000E+00 -1.36243524E+00 -6.48861632E+00  0.00000000E+00 -1.36243524E+00
 -6.48861632E+00  0.00000000E+00 -1.36243524E+00 -6.48861632E+00  0.00000000E+00
 -1.36243524E+00 -6.48861632E+00  0.00000000E+00 -1.36243524E+00 -6.48861632E+00
  0.00000000E+00 -1.36243524E+00 -6.48861632E+00  0.00000000E+00 -1.36243524E+00
 -6.48861632E+00  0.00000000E+00 -1.36243524E+00 -6.48861632E+00  0.00000000E+00
 -1.36243524E+00 -6.48861632E+00  0.00000000E+00 -1.36243524E+00 -6.48861632E+00
  0.00000000E+00 -1.36243524E+00 -6.48861632E+00  0.00000000E+00 -1.36243524E+00
 -6.48861632E+00  0.00000000E+00 -1.36243524E+00 -6.48861632E+00  0.00000000E+00
 -1.36243524E+00 -6.48861632E+00  0.00000000E+00 -1.36243524E+00 -6.48861632E+00
  0.00000000E+00 -1.36243524E+00 -6.48861632E+00  0.00000000E+00 -3.68907550E-01
 -1.75692722E+00  0.00000000E+00 -3.68907550E-01 -1.75692722E+00  0.00000000E+00
 -3.68907550E-01 -1.75692722E+00  0.00000000E+00 -3.68907550E-01 -1.75692722E+00
  0.00000000E+00 -3.68907550E-01 -1.75692722E+00  0.00000000E+00 -3.68907550E-01
 -1.75692722E+00  0.00000000E+00 -3.68907550E-01 -1.75692722E+00  0.00000000E+00
 -3.68907550E-01 -1.75692722E+00  0.00000000E+00 -3.68907550E-01 -1.75692722E+00
  0.00000000E+00 -3.68907550E-01 -1.75692722E+00  0.00000000E+00 -3.68907550E-01
 -1.75692722E+00  0.00000000E+00 -3.68907550E-01 -1.75692722E+00  0.00000000E+00
 -3.68907550E-01 -1.75692722E+00  0.00000000E+00 -3.68907550E-01 -1.75692722E+00
  0.00000000E+00 -3.68907550E-01 -1.75692722E+00  0.00000000E+00 -3.68907550E-01
 -1.75692722E+00  0.00000000E+00 -3.68907550E-01 -1.75692722E+00  0.00000000E+00
Constraint Structure                       R   N=          12
  0.00000000E+00  0.00000000E+00  0.00000000E+00  1.81585239E+00  0.00000000E+00
  0.00000000E+00 -1.36243524E+00 -6.48861632E+00  0.00000000E+00 -3.68907550E-01
 -1.75692722E+00  0.00000000E+00
Num ILSW                                   I              100
ILSW                                       I   N=         100
           0           0           0           0           2           0
           0           0           0           0           0          -1
           0           0           0           0           0           0
           0           0           0           0           0           0
           1           1           0           0           0           0
           0           0      100000           0          -1           0
           0           0           0           0           0           0
           0           0           0           1           0           0
           0           0           1           0           0           0
           0           0           4          41           0           0
           0           0           0           0           0           0
           0           0           0           4           0           0
           0           0           0           0           0           0
           0           0           0           0           0           0
           0           0           0           0           0           0
           0           0           0           0           0           0
           0           0           0           0
Num RLSW                                   I               41
RLSW                                       R   N=          41
  1.00000000E+00  1.00000000E+00  1.00000000E+00  1.00000000E+00  1.00000000E+00
  0.00000000E+00  0.00000000E+00  1.00000000E+00  0.00000000E+00  0.00000000E+00
  0.00000000E+00  0.00000000E+00  1.00000000E+00  0.00000000E+00  0.00000000E+00
  0.00000000E+00  0.00000000E+00  1.00000000E+00  0.00000000E+00  0.00000000E+00
  0.00000000E+00  0.00000000E+00  1.00000000E+00  0.00000000E+00  0.00000000E+00
  0.00000000E+00  0.00000000E+00  1.00000000E+00  0.00000000E+00  0.00000000E+00
  0.00000000E+00  0.00000000E+00  1.00000000E+00  0.00000000E+00  0.00000000E+00
  0.00000000E+00  0.00000000E+00  0.00000000E+00  1.00000000E+00  1.00000000E+00
  0.00000000E+00
ECP-MxAtEC                                 I           250000
ECP-MaxLECP                                I               10
ECP-MaxAtL                                 I          2250000
ECP-MxTECP                                 I         11250000
ECP-LenNCZ                                 I               16
ECP-KFirst                                 I   N=          40
           0           0           1           0           0           0
           2           0           0           0           5           0
           0           0           9           0           0           0
          13           0           0           0           0           0
           0           0           0           0           0           0
           0           0           0           0           0           0
           0           0           0           0
ECP-KLast                                  I   N=          40
           0           0           1           0           0           0
           4           0           0           0           8           0
           0           0          12           0           0           0
          16           0           0           0           0           0
           0           0           0           0           0           0
           0           0           0           0           0           0
           0           0           0           0
ECP-LMax                                   I   N=           4
           0           0           4           0
ECP-LPSkip                                 I   N=           4
           1           1           0           1
ECP-RNFroz                                 R   N=           4
  0.00000000E+00  0.00000000E+00  2.80000000E+01  0.00000000E+00
ECP-NLP                                    I   N=          16
           2           2           2           2           2           2
           2           2           2           2           2           2
           2           2           2           2
ECP-CLP1                                   R   N=          16
  0.00000000E+00  4.99896490E+01  2.81006556E+02  6.14167390E+01  6.74162390E+01
  1.34807696E+02  1.45665480E+01  2.89684220E+01  3.55387560E+01  5.33397590E+01
  9.71646600E+00  1.49775000E+01 -2.01766180E+01 -2.60880770E+01 -2.20434000E-01
 -2.21646000E-01
ECP-CLP2                                   R   N=          16
  0.00000000E+00  0.00000000E+00  0.00000000E+00  0.00000000E+00  0.00000000E+00
  0.00000000E+00  0.00000000E+00  0.00000000E+00  0.00000000E+00  0.00000000E+00
  0.00000000E+00  0.00000000E+00  0.00000000E+00  0.00000000E+00  0.00000000E+00
  0.00000000E+00
ECP-ZLP                                    R   N=          16
  1.00000000E+00  4.00333760E+01  1.73005760E+01  8.85172000E+00  1.57201410E+01
  1.52082220E+01  8.29418600E+00  7.75394900E+00  1.38177510E+01  1.35878050E+01
  6.94763000E+00  6.96009900E+00  1.85229500E+01  1.82510350E+01  7.55790100E+00
  7.59740400E+00
MxBond                                     I                2
NBond                                      I   N=           4
           2           1           0           1
IBond                                      I   N=           8
           2           4           1           0           0           0
           1           0
RBond                                      R   N=           8
  1.00000000E+00  1.00000000E+00  1.00000000E+00  0.00000000E+00  0.00000000E+00
  0.00000000E+00  1.00000000E+00  0.00000000E+00
Virial Ratio                               R      2.984048461412476E+00
SCF Energy                                 R     -3.708175932694471E+02
MP2 Energy                                 R     -3.713128885570421E+02
Total Energy                               R     -3.713128885570421E+02
Post-SCF wavefunction norm                 R      1.074794870483377E+00
RMS Density                                R      2.969416373521473E-09
Job Status                                 I                1
Nuclear derivative order                   I                0
External E-field                           R   N=          35
  0.00000000E+00  0.00000000E+00  0.00000000E+00  0.00000000E+00  0.00000000E+00
  0.00000000E+00  0.00000000E+00  0.00000000E+00  0.00000000E+00  0.00000000E+00
  0.00000000E+00  0.00000000E+00  0.00000000E+00  0.00000000E+00  0.00000000E+00
  0.00000000E+00  0.00000000E+00  0.00000000E+00  0.00000000E+00  0.00000000E+00
  0.00000000E+00  0.00000000E+00  0.00000000E+00  0.00000000E+00  0.00000000E+00
  0.00000000E+00  0.00000000E+00  0.00000000E+00  0.00000000E+00  0.00000000E+00
  0.00000000E+00  0.00000000E+00  0.00000000E+00  0.00000000E+00  0.00000000E+00
IOpCl                                      I                0
IROHF                                      I                0
Alpha Orbital Energies                     R   N=         147
 -2.04030033E+01 -7.46576363E+00 -5.29128561E+00 -5.29106960E+00 -5.29103173E+00
 -2.01872804E+00 -2.01859375E+00 -2.01854174E+00 -2.01831648E+00 -2.01831630E+00
 -1.19478234E+00 -6.27381689E-01 -5.51636889E-01 -4.33670735E-01 -3.50764021E-01
 -1.46500777E-01 -1.41241219E-01 -1.40876416E-01  1.31681538E-01  1.69599682E-01
  2.33576487E-01  2.45483682E-01  2.52812863E-01  2.69252479E-01  2.86682854E-01
  2.91289784E-01  3.12744590E-01  3.35635263E-01  3.66982944E-01  3.72414567E-01
  3.76006765E-01  3.95770268E-01  4.09440349E-01  4.19485319E-01  4.46449108E-01
  4.75560057E-01  5.41852569E-01  5.43973034E-01  5.69853471E-01  5.99684311E-01
  6.67325494E-01  7.14064978E-01  7.78168927E-01  7.80058660E-01  7.85056766E-01
  7.98262250E-01  8.01141927E-01  8.01284403E-01  8.27596947E-01  8.43633466E-01
  8.54016620E-01  8.58090291E-01  8.68177905E-01  8.76341801E-01  8.84974675E-01
  8.88526051E-01  8.99084366E-01  8.99854206E-01  9.29419434E-01  9.72547275E-01
  1.00443162E+00  1.06426513E+00  1.06834643E+00  1.09195203E+00  1.10262612E+00
  1.12604682E+00  1.14487942E+00  1.15159513E+00  1.16649089E+00  1.19161479E+00
  1.32936693E+00  1.36567281E+00  1.38357392E+00  1.41419533E+00  1.48264231E+00
  1.52753342E+00  1.54480030E+00  1.67705117E+00  1.73319421E+00  1.74248378E+00
  1.75281789E+00  1.75391600E+00  1.77044418E+00  1.78076670E+00  1.81274496E+00
  1.85068186E+00  1.88318110E+00  1.89613563E+00  2.02506319E+00  2.04856222E+00
  2.05700269E+00  2.08085001E+00  2.10796412E+00  2.10808287E+00  2.15754297E+00
  2.28437607E+00  2.43899926E+00  2.52557878E+00  2.56584156E+00  2.60803383E+00
  2.60810078E+00  2.63179187E+00  2.67920588E+00  2.83467138E+00  2.85671912E+00
  2.88499221E+00  2.97623864E+00  3.03500476E+00  3.07394946E+00  3.25625011E+00
  3.27572964E+00  3.81353413E+00  3.87483031E+00  4.21550621E+00  4.24074914E+00
  4.32878638E+00  4.34213881E+00  4.43024430E+00  4.45968028E+00  4.55244635E+00
  4.56824021E+00  4.61109121E+00  4.75284453E+00  4.95304039E+00  5.17047056E+00
  5.32476737E+00  5.38587769E+00  5.46649740E+00  5.59037251E+00  5.71698701E+00
  5.85493904E+00  6.39670378E+00  6.67898744E+00  6.88436529E+00  7.13274869E+00
  7.29738445E+00  7.43314361E+00  7.45673686E+00  7.50443834E+00  7.53997651E+00
  7.57342296E+00  7.86719908E+00  8.07547534E+00  8.16585629E+00  9.03447361E+00
  1.68343615E+01  5.92220929E+01
Alpha MO coefficients                      R   N=       28077
  9.76641594E-01 -9.17699991E-03  4.36736696E-02  8.15860124E-04  9.09346801E-04
  1.20278668E-03 -1.25477640E-03 -8.55509605E-16 -1.04099673E-03  9.73243707E-04
  1.30385871E-15 -9.16359194E-04 -4.51167591E-04  6.52447536E-15 -1.73499774E-04
 -3.28601020E-04  1.84048490E-15 -7.95231678E-05 -8.98444368E-16 -9.27957368E-16
 -8.24567476E-06  2.11876692E-05  4.43129070E-04  1.41600133E-15 -2.55941221E-16
 -2.53725907E-04 -9.08674564E-05  1.16926601E-04  3.99436792E-16 -2.41657177E-15
 -1.27650859E-04 -1.20328593E-04 -3.59919213E-16  7.69407220E-06  3.63184667E-05
 -2.64578867E-16  5.17897886E-16  5.48864422E-05  5.68116657E-05 -7.04916369E-16
  1.02299777E-04 -9.54456005E-05  7.33313023E-17 -1.20018614E-16 -2.14106450E-04
 -1.48594573E-04  5.05582982E-04  9.77782508E-04  6.84554090E-04  4.73185080E-05
  9.77782508E-04  6.84554090E-04  4.73185080E-05 -1.10480737E-04 -5.48616300E-06
 -7.13923243E-16 -5.10304375E-04  7.30838643E-05 -8.11675063E-16 -2.73095379E-04
  4.56132588E-05 -9.84761734E-16 -1.10480737E-04 -5.48616300E-06  5.82771970E-16
 -5.10304375E-04  7.30838643E-05 -1.67554917E-15 -2.73095379E-04  4.56132588E-05
 -2.64679016E-16  2.61641876E-05 -1.09853196E-16  3.71290361E-16 -5.91147818E-05
  1.52606043E-05 -9.24671172E-05  6.26510171E-16  5.74607220E-17  1.59434969E-04
 -4.78360494E-05  2.61641876E-05  6.46188205E-16 -3.63083870E-16 -5.91147818E-05
  1.52606043E-05 -9.24671172E-05  6.80089493E-16  1.56360935E-16  1.59434969E-04
 -4.78360494E-05 -3.69653183E-06  1.34915398E-05  9.99794751E-05  9.42741769E-04
 -2.31176281E-03 -5.53663000E-04 -1.38767940E-05 -5.75292869E-05  2.30887391E-16
 -5.27812268E-05 -2.11878325E-04  2.02655049E-16  4.42555551E-05  1.88537120E-04
 -4.07730076E-16 -3.34497741E-04 -1.61760822E-03  2.81634321E-16 -3.18012684E-05
 -1.68762960E-04  1.77801784E-16  4.48136072E-06  2.28515758E-17 -8.24942230E-17
  6.48259543E-06 -3.18593591E-06 -5.12051348E-05  4.94292523E-18  3.38763225E-16
 -7.75417720E-05  3.66381742E-05  3.03361674E-04 -5.31650572E-17 -6.66676496E-16
  4.69508602E-04 -2.15279964E-04  2.34923849E-04  2.07402735E-16  9.83199003E-16
  3.89465015E-04 -1.60479671E-04  1.32708502E-16  5.56999847E-06  1.87502406E-05
  1.24828814E-16 -7.75926952E-17  1.26073127E-05  1.31976789E-05 -1.97715207E-16
  2.74790197E-05  1.40889863E-04 -2.22424840E-16  1.11000792E-16  1.13399135E-04
  1.61236213E-04  4.47267728E-04  2.51813643E-04 -9.16134806E-05  9.52409316E-06
  2.51813643E-04 -9.16134806E-05  9.52409316E-06  1.16536388E-05  2.64480073E-05
 -1.30353432E-16  1.06628032E-04  4.60612077E-04 -1.29115065E-15 -2.93976892E-04
 -1.35635768E-03 -2.26783114E-15  1.16536388E-05  2.64480073E-05 -1.30353432E-16
  1.06628032E-04  4.60612077E-04 -1.29115065E-15 -2.93976892E-04 -1.35635768E-03
 -1.68465150E-15  5.65868191E-05 -1.62645823E-16 -4.17153489E-16  1.04513910E-04
 -1.95294722E-05 -2.70220899E-04 -1.37211175E-16 -1.08592760E-15 -4.24559496E-04
  1.84565431E-04  5.65868191E-05 -1.65575315E-16 -4.18407982E-16  1.04513910E-04
 -1.95294722E-05 -2.70220899E-04 -1.42381556E-16 -3.11377427E-16 -4.24559496E-04
  1.84565431E-04  3.25303247E-06  7.55278717E-06  1.91221181E-06 -1.42818836E-04
 -5.64853616E-05  9.68946241E-07  2.32680274E-06 -1.92581008E-16 -1.91867384E-06
  2.08124402E-05 -1.24085821E-16  7.70583022E-05  1.50965228E-04  3.41280521E-15
  6.44464260E-05 -2.48222475E-05 -9.01127908E-17 -5.95322614E-07 -6.26699258E-16
  2.10602360E-16 -9.03448917E-08  4.09764902E-07  1.57866888E-05  1.48256589E-15
  6.29872728E-16  1.86548216E-05 -1.15466489E-05  1.87084727E-05 -6.14609715E-16
 -2.16052425E-15  4.88429520E-05 -3.26314585E-05  4.81604325E-16  1.34924789E-07
 -1.77257540E-06  5.05589493E-16 -7.67209114E-17 -1.61408122E-06 -2.99931016E-06
 -4.51181178E-16 -3.70310130E-06 -7.53042391E-06 -1.66895568E-18 -4.43704955E-16
 -6.50221616E-06 -4.57949034E-06  1.78075214E-07 -3.54936580E-06 -3.24814713E-05
 -6.75178715E-05 -3.54936580E-06 -3.24814713E-05 -6.75178715E-05 -1.01290805E-08
  2.90788325E-07 -9.63820076E-16 -5.04169426E-06 -1.29008182E-06 -9.87891102E-16
  3.33282562E-06  1.43063389E-06 -1.13196493E-15 -1.01290796E-08  2.90788324E-07
  6.49425989E-16 -5.04169426E-06 -1.29008181E-06 -3.40800479E-16  3.33282562E-06
  1.43063389E-06  1.47768812E-15 -1.55168912E-07  1.77433545E-16 -8.56856105E-16
  2.75178422E-07 -4.88144547E-07 -2.03747949E-06 -9.11184911E-16 -5.12739752E-16
  3.63285386E-06 -2.52954667E-06 -1.55168912E-07  2.93726321E-16  8.28585516E-16
  2.75178421E-07 -4.88144546E-07 -2.03747949E-06  1.30624418E-15  1.06041269E-15
  3.63285386E-06 -2.52954667E-06  9.83173786E-01 -2.62257868E-03  2.28914449E-02
 -5.95673615E-03  1.76606723E-03 -7.80716336E-04  9.53180301E-05  1.19645043E-04
  2.68215316E-17 -1.57546041E-05 -4.68360824E-05 -2.51316202E-16  2.33421087E-05
  6.49820464E-05 -7.46026522E-17  2.08349532E-05  9.24316912E-05 -2.20038676E-16
 -1.34941900E-05 -1.26292295E-04  8.03324214E-16 -2.45066139E-05 -1.44019943E-17
 -4.67608456E-16 -1.47824055E-05  2.77458057E-05 -3.51232559E-06 -7.72581694E-17
  5.42479556E-16 -3.29580139E-06  3.62242879E-06 -7.84069942E-06 -1.64668211E-16
 -8.30350433E-16 -1.93990430E-05  1.86395021E-06  6.71609762E-06  4.17504785E-16
  9.51368103E-16  2.00858261E-05  1.41894413E-06 -8.78506786E-17 -2.81700865E-07
 -3.87012077E-06  1.17425833E-17 -3.32889223E-18 -2.67990220E-06 -6.60373737E-06
 -1.13742988E-17 -6.92366628E-07  2.27299813E-08 -2.13557915E-17 -4.88968029E-17
  7.95084209E-09  3.54990870E-06  1.35913728E-06  1.13311013E-04  1.77763963E-05
  1.69932078E-04  1.13311013E-04  1.77763963E-05  1.69932078E-04  1.41900663E-06
  5.78626980E-06  2.12410708E-16 -5.73708847E-06  5.40367956E-06 -5.13526234E-16
 -1.48309303E-05  2.81327179E-05 -1.23863614E-15  1.41900663E-06  5.78626980E-06
  2.12410708E-16 -5.73708847E-06  5.40367956E-06 -5.13526234E-16 -1.48309303E-05
  2.81327179E-05 -1.34087185E-15 -4.27258571E-06  8.39051494E-17  3.78073666E-16
 -6.43981802E-06  2.58037968E-06  7.27505703E-06 -4.73064281E-17 -7.28760820E-16
  7.26159371E-06 -1.11125202E-05 -4.27258571E-06  9.51575132E-17  3.86317652E-16
 -6.43981802E-06  2.58037968E-06  7.27505703E-06 -3.30058765E-17 -5.83964430E-16
  7.26159371E-06 -1.11125202E-05  5.62596698E-06  7.48970225E-06 -6.12176761E-08
 -6.60087971E-05  1.02945567E-05  1.93637046E-06  8.60545328E-06 -1.29858678E-16
 -4.06849957E-06  1.70198199E-05  2.43821857E-16  4.39906743E-05  1.00030139E-04
  1.84769546E-14  4.35550565E-06 -2.83082207E-06  3.78978274E-15 -1.29418570E-08
 -1.39938558E-16  6.70520414E-16  9.93879844E-08  5.80916021E-07  9.99014692E-06
  3.00707372E-16 -1.83990253E-15  1.15131502E-05 -8.38110708E-06  1.24059530E-05
  5.44439891E-15 -4.25120490E-15  2.92546131E-05 -5.18621859E-06  6.96870653E-16
  3.33507369E-07 -1.28396593E-06  3.09642302E-16 -3.39257081E-16 -1.76768639E-06
 -2.33749422E-06 -2.61114092E-15 -2.87377501E-06 -4.04617203E-06 -3.51763111E-16
  8.46002730E-16 -9.29607874E-07  4.55337677E-07 -1.87086273E-07  3.21347768E-06
 -2.93705519E-05 -2.82328688E-07  3.21347769E-06 -2.93705519E-05 -2.82328686E-07
 -2.20352003E-08 -2.45705705E-07  2.14368743E-16 -6.99821669E-06 -2.93890449E-06
 -4.02533813E-15  8.87517399E-06  2.70216446E-06 -4.14458281E-15 -2.20352051E-08