title                                                                   
SP        RMP2-FC                                                     Gen                 
Number of atoms                            I                4
Info1-9                                    I   N=           9
         144         135           0           0           0         110
           1           2           1
Charge                                     I               -1
Multiplicity                               I                1
Number of electrons                        I               36
Number of alpha electrons                  I               18
Number of beta electrons                   I               18
Number of basis functions                  I              191
Number of independent functions            I              147
Number of point charges in /Mol/           I                0
Number of translation vectors              I                0
Atomic numbers                             I   N=           4
           8           1          53           1
Nuclear charges                            R   N=           4
  8.00000000E+00  1.00000000E+00  2.50000000E+01  1.00000000E+00
Current cartesian coordinates              R   N=          12
  0.00000000E+00  0.00000000E+00  0.00000000E+00  1.81585239E+00  0.00000000E+00
  0.00000000E+00 -1.36243524E+00 -6.48861632E+00  0.00000000E+00 -3.49491363E-01
 -1.66445737E+00  0.00000000E+00
Force Field                                I                0
Int Atom Types                             I   N=           4
           0           0           0           0
MM charges                                 R   N=           4
  0.00000000E+00  0.00000000E+00  0.00000000E+00  0.00000000E+00
Integer atomic weights                     I   N=           4
          16           2         127           1
Real atomic weights                        R   N=           4
  1.59949146E+01  2.01410179E+00  1.26900400E+02  1.00782504E+00
Atom fragment info                         I   N=           4
           0           0           0           0
Atom residue num                           I   N=           4
           0           0           0           0
Nuclear spins                              I   N=           4
           0           2           5           1
Nuclear ZEff                               R   N=           4
 -5.60000000E+00 -1.00000000E+00 -5.83000000E+03 -1.00000000E+00
Nuclear ZNuc                               R   N=           4
  8.00000000E+00  1.00000000E+00  5.30000000E+01  1.00000000E+00
Nuclear QMom                               R   N=           4
  0.00000000E+00  2.86000000E-01 -7.10000000E+01  0.00000000E+00
Nuclear GFac                               R   N=           4
  0.00000000E+00  8.57438000E-01  2.81328000E+00  2.79284600E+00
MicOpt                                     I   N=           4
          -1          -1          -1          -1
Number of contracted shells                I               65
Number of primitive shells                 I              119
Pure/Cartesian d shells                    I                0
Pure/Cartesian f shells                    I                0
Highest angular momentum                   I                3
Largest degree of contraction              I                9
Shell types                                I   N=          65
           0           0           0           0           0           1
           1           1           1          -2          -2          -2
          -3          -3           0           0           0           0
           0           0           0           1           1           1
           1           1           1          -2          -2          -2
          -2           0           0           0           0           0
           0           1           1           1           1           1
          -2          -2          -2          -2          -3          -3
           0           0           0           0           0           0
           0           1           1           1           1           1
           1          -2          -2          -2          -2
Number of primitives per shell             I   N=          65
           7           6           1           1           1           3
           1           1           1           1           1           1
           1           1           3           1           1           1
           1           1           1           1           1           1
           1           1           1           1           1           1
           1           9           8           1           1           1
           1           8           8           1           1           1
           9           1           1           1           1           1
           3           1           1           1           1           1
           1           1           1           1           1           1
           1           1           1           1           1
Shell to atom map                          I   N=          65
           1           1           1           1           1           1
           1           1           1           1           1           1
           1           1           2           2           2           2
           2           2           2           2           2           2
           2           2           2           2           2           2
           2           3           3           3           3           3
           3           3           3           3           3           3
           3           3           3           3           3           3
           4           4           4           4           4           4
           4           4           4           4           4           4
           4           4           4           4           4
Primitive exponents                        R   N=         119
  1.53300000E+04  2.29900000E+03  5.22400000E+02  1.47300000E+02  4.75500000E+01
  1.67600000E+01  6.20700000E+00  5.22400000E+02  1.47300000E+02  4.75500000E+01
  1.67600000E+01  6.20700000E+00  6.88200000E-01  1.75200000E+00  2.38400000E-01
  7.37600000E-02  3.44600000E+01  7.74900000E+00  2.28000000E+00  7.15600000E-01
  2.14000000E-01  5.97400000E-02  2.31400000E+00  6.45000000E-01  2.14000000E-01
  1.42800000E+00  5.00000000E-01  3.38700000E+01  5.09500000E+00  1.15900000E+00
  3.25800000E-01  1.02700000E-01  2.52600000E-02  3.25800000E-01  1.02700000E-01
  2.52600000E-02  1.40700000E+00  3.88000000E-01  1.02000000E-01  1.40700000E+00
  3.88000000E-01  1.02000000E-01  1.05700000E+00  2.47000000E-01  1.05700000E+00
  2.47000000E-01  5.54650000E+03  8.38214000E+02  1.82187000E+02  3.12123000E+01
  1.95314000E+01  8.24099000E+00  2.19455000E+00  1.10911000E+00  8.10610000E-02
  5.54650000E+03  8.38214000E+02  3.12123000E+01  1.95314000E+01  8.24099000E+00
  2.19455000E+00  1.10911000E+00  8.10610000E-02  3.74641000E-01  1.77080000E-01
  1.00100000E-01  4.12000000E-02  1.88988000E+02  2.12868000E+01  1.00396000E+01
  3.45180000E+00  1.97456000E+00  1.02420000E+00  4.49437000E-01  7.34810000E-02
  1.88988000E+02  1.00396000E+01  3.45180000E+00  1.97456000E+00  1.02420000E+00
  4.49437000E-01  1.86648000E-01  7.34810000E-02  5.98100000E-01  9.61800000E-02
  3.59000000E-02  1.32662000E+02  3.76054000E+01  1.03891000E+01  6.49017000E+00
  3.45451000E+00  1.84413000E+00  9.62478000E-01  4.72853000E-01  1.93200000E-01
  4.72853000E-01  1.93200000E-01  7.82000000E-02  4.06400000E-01  1.84800000E-01
  3.38700000E+01  5.09500000E+00  1.15900000E+00  3.25800000E-01  1.02700000E-01
  2.52600000E-02  3.25800000E-01  1.02700000E-01  2.52600000E-02  1.40700000E+00
  3.88000000E-01  1.02000000E-01  1.40700000E+00  3.88000000E-01  1.02000000E-01
  1.05700000E+00  2.47000000E-01  1.05700000E+00  2.47000000E-01
Contraction coefficients                   R   N=         119
  5.19808943E-04  4.02025621E-03  2.07128267E-02  8.10105536E-02  2.35962985E-01
  4.42653446E-01  3.57064423E-01 -4.42115008E-05 -1.22591041E-03 -1.05517725E-02
 -6.74452633E-02 -1.71198607E-01  1.07329856E+00  1.00000000E+00  1.00000000E+00
  1.00000000E+00  4.11634896E-02  2.57762836E-01  8.02419274E-01  1.00000000E+00
  1.00000000E+00  1.00000000E+00  1.00000000E+00  1.00000000E+00  1.00000000E+00
  1.00000000E+00  1.00000000E+00  2.54948632E-02  1.90362766E-01  8.52162022E-01
  1.00000000E+00  1.00000000E+00  1.00000000E+00  1.00000000E+00  1.00000000E+00
  1.00000000E+00  1.00000000E+00  1.00000000E+00  1.00000000E+00  1.00000000E+00
  1.00000000E+00  1.00000000E+00  1.00000000E+00  1.00000000E+00  1.00000000E+00
  1.00000000E+00  1.58603022E-04  1.00211458E-03  2.83966410E-03 -4.40310212E-02
  2.38198152E-01 -7.63568980E-01  8.96516870E-01  4.68371203E-01  2.16251781E-03
 -2.17177846E-05 -2.59237305E-04 -1.50376554E-02  2.42214079E-02  6.99888661E-02
 -5.50491335E-01 -5.69654432E-01  3.76065139E-01  1.00000000E+00  1.00000000E+00
  1.00000000E+00  1.00000000E+00  5.85232173E-04  3.69335916E-02 -2.35399435E-01
  3.41625365E-01  5.34991615E-01  2.65244797E-01  2.54463150E-02  3.82802808E-04
 -6.76097015E-05  8.33123161E-03 -4.66496478E-02 -5.27406452E-02 -2.91398344E-02
  3.65650039E-01  5.48502805E-01  2.34644635E-01  1.00000000E+00  1.00000000E+00
  1.00000000E+00  5.72000072E-04  4.40200055E-03 -4.09220051E-02  9.96610125E-02
  3.22663040E-01  4.00343050E-01  2.68306034E-01  8.48470106E-02  7.63200096E-03
  1.00000000E+00  1.00000000E+00  1.00000000E+00  1.00000000E+00  1.00000000E+00
  2.54948632E-02  1.90362766E-01  8.52162022E-01  1.00000000E+00  1.00000000E+00
  1.00000000E+00  1.00000000E+00  1.00000000E+00  1.00000000E+00  1.00000000E+00
  1.00000000E+00  1.00000000E+00  1.00000000E+00  1.00000000E+00  1.00000000E+00
  1.00000000E+00  1.00000000E+00  1.00000000E+00  1.00000000E+00
Coordinates of each shell                  R   N=         195
  0.00000000E+00  0.00000000E+00  0.00000000E+00  0.00000000E+00  0.00000000E+00
  0.00000000E+00  0.00000000E+00  0.00000000E+00  0.00000000E+00  0.00000000E+00
  0.00000000E+00  0.00000000E+00  0.00000000E+00  0.00000000E+00  0.00000000E+00
  0.00000000E+00  0.00000000E+00  0.00000000E+00  0.00000000E+00  0.00000000E+00
  0.00000000E+00  0.00000000E+00  0.00000000E+00  0.00000000E+00  0.00000000E+00
  0.00000000E+00  0.00000000E+00  0.00000000E+00  0.00000000E+00  0.00000000E+00
  0.00000000E+00  0.00000000E+00  0.00000000E+00  0.00000000E+00  0.00000000E+00
  0.00000000E+00  0.00000000E+00  0.00000000E+00  0.00000000E+00  0.00000000E+00
  0.00000000E+00  0.00000000E+00  1.81585239E+00  0.00000000E+00  0.00000000E+00
  1.81585239E+00  0.00000000E+00  0.00000000E+00  1.81585239E+00  0.00000000E+00
  0.00000000E+00  1.81585239E+00  0.00000000E+00  0.00000000E+00  1.81585239E+00
  0.00000000E+00  0.00000000E+00  1.81585239E+00  0.00000000E+00  0.00000000E+00
  1.81585239E+00  0.00000000E+00  0.00000000E+00  1.81585239E+00  0.00000000E+00
  0.00000000E+00  1.81585239E+00  0.00000000E+00  0.00000000E+00  1.81585239E+00
  0.00000000E+00  0.00000000E+00  1.81585239E+00  0.00000000E+00  0.00000000E+00
  1.81585239E+00  0.00000000E+00  0.00000000E+00  1.81585239E+00  0.00000000E+00
  0.00000000E+00  1.81585239E+00  0.00000000E+00  0.00000000E+00  1.81585239E+00
  0.00000000E+00  0.00000000E+00  1.81585239E+00  0.00000000E+00  0.00000000E+00
  1.81585239E+00  0.00000000E+00  0.00000000E+00 -1.36243524E+00 -6.48861632E+00
  0.00000000E+00 -1.36243524E+00 -6.48861632E+00  0.00000000E+00 -1.36243524E+00
 -6.48861632E+00  0.00000000E+00 -1.36243524E+00 -6.48861632E+00  0.00000000E+00
 -1.36243524E+00 -6.48861632E+00  0.00000000E+00 -1.36243524E+00 -6.48861632E+00
  0.00000000E+00 -1.36243524E+00 -6.48861632E+00  0.00000000E+00 -1.36243524E+00
 -6.48861632E+00  0.00000000E+00 -1.36243524E+00 -6.48861632E+00  0.00000000E+00
 -1.36243524E+00 -6.48861632E+00  0.00000000E+00 -1.36243524E+00 -6.48861632E+00
  0.00000000E+00 -1.36243524E+00 -6.48861632E+00  0.00000000E+00 -1.36243524E+00
 -6.48861632E+00  0.00000000E+00 -1.36243524E+00 -6.48861632E+00  0.00000000E+00
 -1.36243524E+00 -6.48861632E+00  0.00000000E+00 -1.36243524E+00 -6.48861632E+00
  0.00000000E+00 -1.36243524E+00 -6.48861632E+00  0.00000000E+00 -3.49491363E-01
 -1.66445737E+00  0.00000000E+00 -3.49491363E-01 -1.66445737E+00  0.00000000E+00
 -3.49491363E-01 -1.66445737E+00  0.00000000E+00 -3.49491363E-01 -1.66445737E+00
  0.00000000E+00 -3.49491363E-01 -1.66445737E+00  0.00000000E+00 -3.49491363E-01
 -1.66445737E+00  0.00000000E+00 -3.49491363E-01 -1.66445737E+00  0.00000000E+00
 -3.49491363E-01 -1.66445737E+00  0.00000000E+00 -3.49491363E-01 -1.66445737E+00
  0.00000000E+00 -3.49491363E-01 -1.66445737E+00  0.00000000E+00 -3.49491363E-01
 -1.66445737E+00  0.00000000E+00 -3.49491363E-01 -1.66445737E+00  0.00000000E+00
 -3.49491363E-01 -1.66445737E+00  0.00000000E+00 -3.49491363E-01 -1.66445737E+00
  0.00000000E+00 -3.49491363E-01 -1.66445737E+00  0.00000000E+00 -3.49491363E-01
 -1.66445737E+00  0.00000000E+00 -3.49491363E-01 -1.66445737E+00  0.00000000E+00
Constraint Structure                       R   N=          12
  0.00000000E+00  0.00000000E+00  0.00000000E+00  1.81585239E+00  0.00000000E+00
  0.00000000E+00 -1.36243524E+00 -6.48861632E+00  0.00000000E+00 -3.49491363E-01
 -1.66445737E+00  0.00000000E+00
Num ILSW                                   I              100
ILSW                                       I   N=         100
           0           0           0           0           2           0
           0           0           0           0           0          -1
           0           0           0           0           0           0
           0           0           0           0           0           0
           1           1           0           0           0           0
           0           0      100000           0          -1           0
           0           0           0           0           0           0
           0           0           0           1           0           0
           0           0           1           0           0           0
           0           0           4          41           0           0
           0           0           0           0           0           0
           0           0           0           4           0           0
           0           0           0           0           0           0
           0           0           0           0           0           0
           0           0           0           0           0           0
           0           0           0           0           0           0
           0           0           0           0
Num RLSW                                   I               41
RLSW                                       R   N=          41
  1.00000000E+00  1.00000000E+00  1.00000000E+00  1.00000000E+00  1.00000000E+00
  0.00000000E+00  0.00000000E+00  1.00000000E+00  0.00000000E+00  0.00000000E+00
  0.00000000E+00  0.00000000E+00  1.00000000E+00  0.00000000E+00  0.00000000E+00
  0.00000000E+00  0.00000000E+00  1.00000000E+00  0.00000000E+00  0.00000000E+00
  0.00000000E+00  0.00000000E+00  1.00000000E+00  0.00000000E+00  0.00000000E+00
  0.00000000E+00  0.00000000E+00  1.00000000E+00  0.00000000E+00  0.00000000E+00
  0.00000000E+00  0.00000000E+00  1.00000000E+00  0.00000000E+00  0.00000000E+00
  0.00000000E+00  0.00000000E+00  0.00000000E+00  1.00000000E+00  1.00000000E+00
  0.00000000E+00
ECP-MxAtEC                                 I           250000
ECP-MaxLECP                                I               10
ECP-MaxAtL                                 I          2250000
ECP-MxTECP                                 I         11250000
ECP-LenNCZ                                 I               16
ECP-KFirst                                 I   N=          40
           0           0           1           0           0           0
           2           0           0           0           5           0
           0           0           9           0           0           0
          13           0           0           0           0           0
           0           0           0           0           0           0
           0           0           0           0           0           0
           0           0           0           0
ECP-KLast                                  I   N=          40
           0           0           1           0           0           0
           4           0           0           0           8           0
           0           0          12           0           0           0
          16           0           0           0           0           0
           0           0           0           0           0           0
           0           0           0           0           0           0
           0           0           0           0
ECP-LMax                                   I   N=           4
           0           0           4           0
ECP-LPSkip                                 I   N=           4
           1           1           0           1
ECP-RNFroz                                 R   N=           4
  0.00000000E+00  0.00000000E+00  2.80000000E+01  0.00000000E+00
ECP-NLP                                    I   N=          16
           2           2           2           2           2           2
           2           2           2           2           2           2
           2           2           2           2
ECP-CLP1                                   R   N=          16
  0.00000000E+00  4.99896490E+01  2.81006556E+02  6.14167390E+01  6.74162390E+01
  1.34807696E+02  1.45665480E+01  2.89684220E+01  3.55387560E+01  5.33397590E+01
  9.71646600E+00  1.49775000E+01 -2.01766180E+01 -2.60880770E+01 -2.20434000E-01
 -2.21646000E-01
ECP-CLP2                                   R   N=          16
  0.00000000E+00  0.00000000E+00  0.00000000E+00  0.00000000E+00  0.00000000E+00
  0.00000000E+00  0.00000000E+00  0.00000000E+00  0.00000000E+00  0.00000000E+00
  0.00000000E+00  0.00000000E+00  0.00000000E+00  0.00000000E+00  0.00000000E+00
  0.00000000E+00
ECP-ZLP                                    R   N=          16
  1.00000000E+00  4.00333760E+01  1.73005760E+01  8.85172000E+00  1.57201410E+01
  1.52082220E+01  8.29418600E+00  7.75394900E+00  1.38177510E+01  1.35878050E+01
  6.94763000E+00  6.96009900E+00  1.85229500E+01  1.82510350E+01  7.55790100E+00
  7.59740400E+00
MxBond                                     I                2
NBond                                      I   N=           4
           2           1           0           1
IBond                                      I   N=           8
           2           4           1           0           0           0
           1           0
RBond                                      R   N=           8
  1.00000000E+00  1.00000000E+00  1.00000000E+00  0.00000000E+00  0.00000000E+00
  0.00000000E+00  1.00000000E+00  0.00000000E+00
Virial Ratio                               R      2.982896176500726E+00
SCF Energy                                 R     -3.708144780510426E+02
MP2 Energy                                 R     -3.713072153447319E+02
Total Energy                               R     -3.713072153447319E+02
Post-SCF wavefunction norm                 R      1.073940416207873E+00
RMS Density                                R      2.984350787328338E-09
Job Status                                 I                1
Nuclear derivative order                   I                0
External E-field                           R   N=          35
  0.00000000E+00  0.00000000E+00  0.00000000E+00  0.00000000E+00  0.00000000E+00
  0.00000000E+00  0.00000000E+00  0.00000000E+00  0.00000000E+00  0.00000000E+00
  0.00000000E+00  0.00000000E+00  0.00000000E+00  0.00000000E+00  0.00000000E+00
  0.00000000E+00  0.00000000E+00  0.00000000E+00  0.00000000E+00  0.00000000E+00
  0.00000000E+00  0.00000000E+00  0.00000000E+00  0.00000000E+00  0.00000000E+00
  0.00000000E+00  0.00000000E+00  0.00000000E+00  0.00000000E+00  0.00000000E+00
  0.00000000E+00  0.00000000E+00  0.00000000E+00  0.00000000E+00  0.00000000E+00
IOpCl                                      I                0
IROHF                                      I                0
Alpha Orbital Energies                     R   N=         147
 -2.04021100E+01 -7.46422792E+00 -5.28971621E+00 -5.28954322E+00 -5.28951546E+00
 -2.01713449E+00 -2.01703694E+00 -2.01699092E+00 -2.01681137E+00 -2.01680937E+00
 -1.21162605E+00 -6.25736692E-01 -5.68006506E-01 -4.40727167E-01 -3.56027234E-01
 -1.44733749E-01 -1.39765844E-01 -1.39413338E-01  1.31016768E-01  1.69247859E-01
  2.33882379E-01  2.45456972E-01  2.53272848E-01  2.68419321E-01  2.84853442E-01
  2.89782331E-01  3.12988926E-01  3.34490081E-01  3.67320774E-01  3.72772176E-01
  3.76103068E-01  3.95934080E-01  4.09152908E-01  4.18576662E-01  4.48561186E-01
  4.75244128E-01  5.40712481E-01  5.46609417E-01  5.69338002E-01  6.01531010E-01
  6.66365468E-01  7.12687373E-01  7.77537566E-01  7.81908323E-01  7.85093244E-01
  7.98694264E-01  8.02149972E-01  8.02681684E-01  8.27201338E-01  8.44831709E-01
  8.54727931E-01  8.58233566E-01  8.70701901E-01  8.75306688E-01  8.86148746E-01
  8.88500502E-01  8.94175953E-01  9.00538809E-01  9.26138606E-01  9.73198465E-01
  1.00007326E+00  1.06805966E+00  1.06949057E+00  1.09010715E+00  1.09940690E+00
  1.12901679E+00  1.14440071E+00  1.14552638E+00  1.16909407E+00  1.19528034E+00
  1.33297750E+00  1.37082897E+00  1.38507559E+00  1.40539078E+00  1.47906906E+00
  1.53136773E+00  1.54230390E+00  1.67551570E+00  1.73313873E+00  1.75364737E+00
  1.75417371E+00  1.76286150E+00  1.77197361E+00  1.78283188E+00  1.81320651E+00
  1.85030544E+00  1.88066411E+00  1.89493196E+00  2.01584656E+00  2.05198453E+00
  2.05815735E+00  2.08834536E+00  2.10889880E+00  2.11033994E+00  2.16320530E+00
  2.27136811E+00  2.43651358E+00  2.51684088E+00  2.57273610E+00  2.58619399E+00
  2.61296553E+00  2.63867274E+00  2.72968952E+00  2.83624811E+00  2.85655798E+00
  2.87786591E+00  2.98169978E+00  3.05360250E+00  3.07678795E+00  3.24696534E+00
  3.26984259E+00  3.85376537E+00  3.88535747E+00  4.22337124E+00  4.23086454E+00
  4.33680582E+00  4.37017669E+00  4.43569755E+00  4.49840291E+00  4.56959138E+00
  4.57087525E+00  4.63247775E+00  4.76292148E+00  4.96976258E+00  5.20681647E+00
  5.37339147E+00  5.38458839E+00  5.49791072E+00  5.73947583E+00  5.81241881E+00
  5.94465117E+00  6.45334257E+00  6.68008057E+00  6.89379051E+00  7.19784973E+00
  7.30542192E+00  7.43033206E+00  7.48773069E+00  7.52566868E+00  7.58159880E+00
  7.65549260E+00  7.95281505E+00  8.09135654E+00  8.33371301E+00  9.14050953E+00
  1.79297368E+01  5.92220295E+01
Alpha MO coefficients                      R   N=       28077
  9.76633466E-01 -8.89972422E-03  4.37630849E-02  1.98898841E-03  1.54251014E-03
  1.19613813E-03 -1.28367026E-03  3.81877767E-16 -1.18303084E-03  5.20097298E-04
 -1.04165434E-15 -1.22888995E-03 -9.82769678E-04  8.26182337E-16 -2.59774236E-04
 -4.55457523E-04  2.29331043E-16 -1.18770703E-04 -2.78283938E-17  1.52024117E-16
 -7.10311791E-05  4.57101957E-05  3.82483299E-04 -6.61139393E-16 -1.99492255E-16
 -3.78140147E-04 -1.16361933E-05  1.17720463E-04 -1.07123013E-15 -4.39976353E-16
 -1.87087427E-04 -1.04663921E-04  3.29138056E-16  1.78703832E-05  7.31666159E-05
  6.78596600E-16 -2.98299318E-16  8.67379257E-05  9.84351359E-05  2.66771551E-16
  1.03885228E-04 -1.23080449E-04 -9.29640934E-16  1.84040408E-16 -2.29940776E-04
 -1.80576661E-04  5.00370971E-04  1.07919359E-03  9.64710119E-04  8.31327348E-05
  1.07919359E-03  9.64710119E-04  8.31327348E-05 -1.14298169E-04 -5.67625668E-06
 -2.05620715E-15 -5.56247209E-04  6.69849169E-05 -6.97444397E-16 -3.66746080E-04
  2.30903625E-05 -6.29288427E-16 -1.14298169E-04 -5.67625668E-06  1.89397273E-15
 -5.56247209E-04  6.69849169E-05  2.90104496E-15 -3.66746080E-04  2.30903625E-05
  1.29704548E-15  2.17562331E-05 -2.66680809E-16  4.38963783E-17 -5.54742641E-05
  1.93813238E-05 -9.98522189E-05 -7.19980634E-16  4.40347836E-16  1.64584820E-04
 -4.01423166E-05  2.17562331E-05 -1.49974798E-16  7.75616079E-17 -5.54742641E-05
  1.93813238E-05 -9.98522189E-05 -7.95392616E-17 -8.52711905E-16  1.64584820E-04
 -4.01423166E-05 -3.37340603E-06  1.10789672E-05  4.64187823E-05  1.01538580E-03
 -2.22814208E-03 -5.08280144E-04 -1.14176242E-05 -3.91556471E-05 -7.36668478E-16
 -3.57693488E-05 -9.33102111E-05 -2.21650560E-15  3.74166128E-05  1.41051111E-04
  1.58608066E-15 -3.08951378E-04 -1.57195033E-03  1.44217522E-15 -3.54231387E-05
 -1.76306401E-04  1.01418226E-16  5.16774453E-06  8.34726776E-17  3.97721977E-17
  7.92874960E-06 -3.51423303E-06 -5.37479195E-05 -1.76402422E-16  8.31049983E-17
 -8.33247523E-05  3.75632009E-05  2.74076445E-04  1.50309761E-16 -2.87186528E-16
  4.27372717E-04 -1.92752741E-04  2.31676672E-04  1.09732041E-17  3.46590342E-16
  3.82369041E-04 -1.49374831E-04 -1.98092584E-19  4.96540272E-06  1.37610920E-05
  1.18521109E-17 -1.78534909E-17  1.09387101E-05  7.86164645E-06  5.45335484E-17
  2.49952650E-05  1.35959726E-04  5.21123238E-17  2.35507588E-17  1.03503524E-04
  1.57212086E-04  4.93321375E-04 -3.41490626E-04 -9.42362432E-04 -5.65658324E-05
 -3.41490626E-04 -9.42362432E-04 -5.65658324E-05 -3.31294038E-06 -7.53555406E-05
  2.38952571E-16  5.48014287E-05  1.44280655E-04 -6.56297142E-16 -3.64913497E-04
 -1.54068619E-03 -9.47561482E-16 -3.31294038E-06 -7.53555406E-05  2.38952571E-16
  5.48014287E-05  1.44280655E-04 -6.56297142E-16 -3.64913497E-04 -1.54068619E-03
 -8.12359838E-16  1.06104634E-04  9.68052608E-17  2.33911601E-16  1.87721139E-04
 -4.91669268E-05 -2.25323093E-04 -2.39524094E-16 -6.62340359E-16 -3.57345927E-04
  1.59990860E-04  1.06104634E-04  9.36730427E-17  2.32612907E-16  1.87721139E-04
 -4.91669268E-05 -2.25323093E-04 -2.38455876E-16 -6.20338455E-16 -3.57345927E-04
  1.59990860E-04  2.44500868E-06  2.56268463E-06  9.54107463E-07 -1.59452095E-04
 -8.06057769E-05  8.71042202E-07  2.48760805E-06  1.07547408E-15 -3.93136829E-07
  2.36163801E-05 -1.50379901E-15  6.97704673E-05  1.33636758E-04  1.85556939E-15
  6.42694718E-05 -2.42862157E-05  7.11108694E-16 -2.22196062E-07  9.92709936E-17
  2.06961831E-16  6.22933841E-07  1.84740031E-07  1.52710574E-05 -1.53078978E-15
 -3.17696861E-16  1.67670057E-05 -1.18325927E-05  1.50711412E-05 -1.51703890E-15
 -2.86403010E-15  3.68727258E-05 -3.06375061E-05  2.10635783E-16 -1.28926508E-08
 -2.09549685E-06 -7.68339423E-17 -4.16129008E-16 -1.75614695E-06 -3.17071526E-06
  1.49060637E-16 -3.06777107E-06 -5.96659054E-06 -1.56060439E-15  7.15203596E-17
 -6.51707256E-06 -3.18873698E-06  2.61584124E-07  8.61866073E-07 -2.64101905E-05
 -6.70508930E-05  8.61866073E-07 -2.64101905E-05 -6.70508930E-05 -7.56288854E-08
  2.21338351E-07  1.56641365E-15 -5.40367850E-06 -7.66322969E-07  9.81478450E-16
  2.13365531E-06  6.32973749E-07  1.72117284E-16 -7.56288844E-08  2.21338350E-07
 -1.14086718E-15 -5.40367850E-06 -7.66322969E-07  2.26344887E-15  2.13365530E-06
  6.32973748E-07  3.88809281E-16 -1.40097250E-07 -5.44256795E-16  1.27295982E-16
  2.74816645E-07 -5.00876073E-07 -1.65192338E-06 -7.31222339E-16  4.75079709E-16
  3.24822507E-06 -2.23805548E-06 -1.40097248E-07 -6.18720147E-16 -1.15881878E-16
  2.74816646E-07 -5.00876074E-07 -1.65192338E-06 -3.34004144E-16  5.60112316E-17
  3.24822507E-06 -2.23805548E-06  9.83174374E-01 -2.62312588E-03  2.28917411E-02
 -5.95559320E-03  1.75499136E-03 -7.66739624E-04  9.28961238E-05  9.68115930E-05
 -1.95608104E-16 -1.70426721E-05 -5.12016071E-05 -3.15398030E-15  2.31822325E-05
  6.28408263E-05  1.85471349E-15  2.12052214E-05  9.13693464E-05  2.65574064E-15
 -1.26794916E-05 -1.22545428E-04 -8.28623351E-16 -1.90302314E-05  2.20072640E-16
  7.27651522E-16 -5.70092119E-06  2.48046686E-05 -3.07723352E-06 -8.98962871E-17
 -1.07923494E-15 -2.64777382E-06  3.29825297E-06 -6.56210124E-06  3.12649290E-16
  1.52605020E-15 -1.72534705E-05  1.04308034E-06  6.65947639E-06 -2.11425858E-16
 -1.34595504E-15  1.99317774E-05  1.89353846E-06 -1.07368813E-16 -2.14760559E-07
 -3.66812183E-06 -1.26655401E-16 -1.17735187E-16 -2.38121891E-06 -6.37879134E-06
  4.44913152E-16 -5.49302857E-07  1.11582817E-06  4.56727457E-16 -1.35769394E-16
  4.22596418E-07  4.76451165E-06  2.80551262E-06  1.03489572E-04  3.36228179E-05
  1.66496399E-04  1.03489572E-04  3.36228179E-05  1.66496399E-04  1.63052971E-06
  6.98844010E-06  3.29124518E-16 -7.79289985E-06  3.67211822E-06 -2.03399579E-15
 -1.62328220E-05  3.41675506E-05 -8.75618283E-16  1.63052971E-06  6.98844010E-06
  3.29124518E-16 -7.79289985E-06  3.67211822E-06 -2.03399579E-15 -1.62328220E-05
  3.41675506E-05 -6.01908981E-16 -3.96535122E-06  9.64294825E-17  6.66979835E-17
 -6.07333976E-06  2.23245425E-06  4.35445110E-06 -3.60814103E-16 -7.54285213E-16
  2.61635783E-06 -9.45864939E-06 -3.96535122E-06  8.63280533E-17  5.22322368E-17
 -6.07333976E-06  2.23245425E-06  4.35445110E-06 -3.92801411E-16 -1.06156692E-15
  2.61635783E-06 -9.45864939E-06  4.43184912E-06  2.31640012E-06 -2.28689869E-07
 -9.72530632E-05 -1.61566618E-05  1.51841854E-06  7.32376948E-06 -2.86306366E-17
 -1.23352814E-06  2.35662093E-05 -4.04893284E-16  4.30997804E-05  9.91433806E-05
  1.37972910E-14  5.19622535E-06  1.94661835E-06  4.58484088E-15  3.33451745E-07
 -7.86762111E-16 -4.74136739E-16  8.40502680E-07  3.94313479E-07  1.08368197E-05
  1.59543917E-15  4.23218882E-16  1.16748193E-05 -9.93369479E-06  1.20211091E-05
  4.49744814E-16 -5.18204319E-15  2.15463335E-05 -4.72850782E-06  3.76220712E-16
  1.07785953E-07 -1.79383628E-06  5.46433566E-16 -3.86950712E-16 -2.19443773E-06
 -2.87692499E-06 -1.26612762E-15 -2.29863332E-06 -3.07266269E-06  3.73474196E-17
  3.90521836E-16 -8.49708225E-07  1.67336597E-06 -1.68289326E-07  7.68771744E-06
 -2.58557747E-05  1.97713840E-06  7.68771744E-06 -2.58557747E-05  1.97713840E-06
 -5.07881191E-08 -3.10439221E-07 -1.72072518E-15 -7.29036976E-06 -2.65328286E-06
 -1.83200812E-15  8.53568759E-06  2.03451495E-06  3.18409338E-16 -5.07881247E-08