title                                                                   
SP        RMP2-FC                                                     Gen                 
Number of atoms                            I                4
Info1-9                                    I   N=           9
         144         135           0           0           0         110
           1           2           1
Charge                                     I               -1
Multiplicity                               I                1
Number of electrons                        I               36
Number of alpha electrons                  I               18
Number of beta electrons                   I               18
Number of basis functions                  I              191
Number of independent functions            I              147
Number of point charges in /Mol/           I                0
Number of translation vectors              I                0
Atomic numbers                             I   N=           4
           8           1          53           1
Nuclear charges                            R   N=           4
  8.00000000E+00  1.00000000E+00  2.50000000E+01  1.00000000E+00
Current cartesian coordinates              R   N=          12
  0.00000000E+00  0.00000000E+00  0.00000000E+00  1.81585239E+00  0.00000000E+00
  0.00000000E+00 -1.36243524E+00 -6.48861632E+00  0.00000000E+00 -4.46572298E-01
 -2.12680663E+00  0.00000000E+00
Force Field                                I                0
Int Atom Types                             I   N=           4
           0           0           0           0
MM charges                                 R   N=           4
  0.00000000E+00  0.00000000E+00  0.00000000E+00  0.00000000E+00
Integer atomic weights                     I   N=           4
          16           2         127           1
Real atomic weights                        R   N=           4
  1.59949146E+01  2.01410179E+00  1.26900400E+02  1.00782504E+00
Atom fragment info                         I   N=           4
           0           0           0           0
Atom residue num                           I   N=           4
           0           0           0           0
Nuclear spins                              I   N=           4
           0           2           5           1
Nuclear ZEff                               R   N=           4
 -5.60000000E+00 -1.00000000E+00 -5.83000000E+03 -1.00000000E+00
Nuclear ZNuc                               R   N=           4
  8.00000000E+00  1.00000000E+00  5.30000000E+01  1.00000000E+00
Nuclear QMom                               R   N=           4
  0.00000000E+00  2.86000000E-01 -7.10000000E+01  0.00000000E+00
Nuclear GFac                               R   N=           4
  0.00000000E+00  8.57438000E-01  2.81328000E+00  2.79284600E+00
MicOpt                                     I   N=           4
          -1          -1          -1          -1
Number of contracted shells                I               65
Number of primitive shells                 I              119
Pure/Cartesian d shells                    I                0
Pure/Cartesian f shells                    I                0
Highest angular momentum                   I                3
Largest degree of contraction              I                9
Shell types                                I   N=          65
           0           0           0           0           0           1
           1           1           1          -2          -2          -2
          -3          -3           0           0           0           0
           0           0           0           1           1           1
           1           1           1          -2          -2          -2
          -2           0           0           0           0           0
           0           1           1           1           1           1
          -2          -2          -2          -2          -3          -3
           0           0           0           0           0           0
           0           1           1           1           1           1
           1          -2          -2          -2          -2
Number of primitives per shell             I   N=          65
           7           6           1           1           1           3
           1           1           1           1           1           1
           1           1           3           1           1           1
           1           1           1           1           1           1
           1           1           1           1           1           1
           1           9           8           1           1           1
           1           8           8           1           1           1
           9           1           1           1           1           1
           3           1           1           1           1           1
           1           1           1           1           1           1
           1           1           1           1           1
Shell to atom map                          I   N=          65
           1           1           1           1           1           1
           1           1           1           1           1           1
           1           1           2           2           2           2
           2           2           2           2           2           2
           2           2           2           2           2           2
           2           3           3           3           3           3
           3           3           3           3           3           3
           3           3           3           3           3           3
           4           4           4           4           4           4
           4           4           4           4           4           4
           4           4           4           4           4
Primitive exponents                        R   N=         119
  1.53300000E+04  2.29900000E+03  5.22400000E+02  1.47300000E+02  4.75500000E+01
  1.67600000E+01  6.20700000E+00  5.22400000E+02  1.47300000E+02  4.75500000E+01
  1.67600000E+01  6.20700000E+00  6.88200000E-01  1.75200000E+00  2.38400000E-01
  7.37600000E-02  3.44600000E+01  7.74900000E+00  2.28000000E+00  7.15600000E-01
  2.14000000E-01  5.97400000E-02  2.31400000E+00  6.45000000E-01  2.14000000E-01
  1.42800000E+00  5.00000000E-01  3.38700000E+01  5.09500000E+00  1.15900000E+00
  3.25800000E-01  1.02700000E-01  2.52600000E-02  3.25800000E-01  1.02700000E-01
  2.52600000E-02  1.40700000E+00  3.88000000E-01  1.02000000E-01  1.40700000E+00
  3.88000000E-01  1.02000000E-01  1.05700000E+00  2.47000000E-01  1.05700000E+00
  2.47000000E-01  5.54650000E+03  8.38214000E+02  1.82187000E+02  3.12123000E+01
  1.95314000E+01  8.24099000E+00  2.19455000E+00  1.10911000E+00  8.10610000E-02
  5.54650000E+03  8.38214000E+02  3.12123000E+01  1.95314000E+01  8.24099000E+00
  2.19455000E+00  1.10911000E+00  8.10610000E-02  3.74641000E-01  1.77080000E-01
  1.00100000E-01  4.12000000E-02  1.88988000E+02  2.12868000E+01  1.00396000E+01
  3.45180000E+00  1.97456000E+00  1.02420000E+00  4.49437000E-01  7.34810000E-02
  1.88988000E+02  1.00396000E+01  3.45180000E+00  1.97456000E+00  1.02420000E+00
  4.49437000E-01  1.86648000E-01  7.34810000E-02  5.98100000E-01  9.61800000E-02
  3.59000000E-02  1.32662000E+02  3.76054000E+01  1.03891000E+01  6.49017000E+00
  3.45451000E+00  1.84413000E+00  9.62478000E-01  4.72853000E-01  1.93200000E-01
  4.72853000E-01  1.93200000E-01  7.82000000E-02  4.06400000E-01  1.84800000E-01
  3.38700000E+01  5.09500000E+00  1.15900000E+00  3.25800000E-01  1.02700000E-01
  2.52600000E-02  3.25800000E-01  1.02700000E-01  2.52600000E-02  1.40700000E+00
  3.88000000E-01  1.02000000E-01  1.40700000E+00  3.88000000E-01  1.02000000E-01
  1.05700000E+00  2.47000000E-01  1.05700000E+00  2.47000000E-01
Contraction coefficients                   R   N=         119
  5.19808943E-04  4.02025621E-03  2.07128267E-02  8.10105536E-02  2.35962985E-01
  4.42653446E-01  3.57064423E-01 -4.42115008E-05 -1.22591041E-03 -1.05517725E-02
 -6.74452633E-02 -1.71198607E-01  1.07329856E+00  1.00000000E+00  1.00000000E+00
  1.00000000E+00  4.11634896E-02  2.57762836E-01  8.02419274E-01  1.00000000E+00
  1.00000000E+00  1.00000000E+00  1.00000000E+00  1.00000000E+00  1.00000000E+00
  1.00000000E+00  1.00000000E+00  2.54948632E-02  1.90362766E-01  8.52162022E-01
  1.00000000E+00  1.00000000E+00  1.00000000E+00  1.00000000E+00  1.00000000E+00
  1.00000000E+00  1.00000000E+00  1.00000000E+00  1.00000000E+00  1.00000000E+00
  1.00000000E+00  1.00000000E+00  1.00000000E+00  1.00000000E+00  1.00000000E+00
  1.00000000E+00  1.58603022E-04  1.00211458E-03  2.83966410E-03 -4.40310212E-02
  2.38198152E-01 -7.63568980E-01  8.96516870E-01  4.68371203E-01  2.16251781E-03
 -2.17177846E-05 -2.59237305E-04 -1.50376554E-02  2.42214079E-02  6.99888661E-02
 -5.50491335E-01 -5.69654432E-01  3.76065139E-01  1.00000000E+00  1.00000000E+00
  1.00000000E+00  1.00000000E+00  5.85232173E-04  3.69335916E-02 -2.35399435E-01
  3.41625365E-01  5.34991615E-01  2.65244797E-01  2.54463150E-02  3.82802808E-04
 -6.76097015E-05  8.33123161E-03 -4.66496478E-02 -5.27406452E-02 -2.91398344E-02
  3.65650039E-01  5.48502805E-01  2.34644635E-01  1.00000000E+00  1.00000000E+00
  1.00000000E+00  5.72000072E-04  4.40200055E-03 -4.09220051E-02  9.96610125E-02
  3.22663040E-01  4.00343050E-01  2.68306034E-01  8.48470106E-02  7.63200096E-03
  1.00000000E+00  1.00000000E+00  1.00000000E+00  1.00000000E+00  1.00000000E+00
  2.54948632E-02  1.90362766E-01  8.52162022E-01  1.00000000E+00  1.00000000E+00
  1.00000000E+00  1.00000000E+00  1.00000000E+00  1.00000000E+00  1.00000000E+00
  1.00000000E+00  1.00000000E+00  1.00000000E+00  1.00000000E+00  1.00000000E+00
  1.00000000E+00  1.00000000E+00  1.00000000E+00  1.00000000E+00
Coordinates of each shell                  R   N=         195
  0.00000000E+00  0.00000000E+00  0.00000000E+00  0.00000000E+00  0.00000000E+00
  0.00000000E+00  0.00000000E+00  0.00000000E+00  0.00000000E+00  0.00000000E+00
  0.00000000E+00  0.00000000E+00  0.00000000E+00  0.00000000E+00  0.00000000E+00
  0.00000000E+00  0.00000000E+00  0.00000000E+00  0.00000000E+00  0.00000000E+00
  0.00000000E+00  0.00000000E+00  0.00000000E+00  0.00000000E+00  0.00000000E+00
  0.00000000E+00  0.00000000E+00  0.00000000E+00  0.00000000E+00  0.00000000E+00
  0.00000000E+00  0.00000000E+00  0.00000000E+00  0.00000000E+00  0.00000000E+00
  0.00000000E+00  0.00000000E+00  0.00000000E+00  0.00000000E+00  0.00000000E+00
  0.00000000E+00  0.00000000E+00  1.81585239E+00  0.00000000E+00  0.00000000E+00
  1.81585239E+00  0.00000000E+00  0.00000000E+00  1.81585239E+00  0.00000000E+00
  0.00000000E+00  1.81585239E+00  0.00000000E+00  0.00000000E+00  1.81585239E+00
  0.00000000E+00  0.00000000E+00  1.81585239E+00  0.00000000E+00  0.00000000E+00
  1.81585239E+00  0.00000000E+00  0.00000000E+00  1.81585239E+00  0.00000000E+00
  0.00000000E+00  1.81585239E+00  0.00000000E+00  0.00000000E+00  1.81585239E+00
  0.00000000E+00  0.00000000E+00  1.81585239E+00  0.00000000E+00  0.00000000E+00
  1.81585239E+00  0.00000000E+00  0.00000000E+00  1.81585239E+00  0.00000000E+00
  0.00000000E+00  1.81585239E+00  0.00000000E+00  0.00000000E+00  1.81585239E+00
  0.00000000E+00  0.00000000E+00  1.81585239E+00  0.00000000E+00  0.00000000E+00
  1.81585239E+00  0.00000000E+00  0.00000000E+00 -1.36243524E+00 -6.48861632E+00
  0.00000000E+00 -1.36243524E+00 -6.48861632E+00  0.00000000E+00 -1.36243524E+00
 -6.48861632E+00  0.00000000E+00 -1.36243524E+00 -6.48861632E+00  0.00000000E+00
 -1.36243524E+00 -6.48861632E+00  0.00000000E+00 -1.36243524E+00 -6.48861632E+00
  0.00000000E+00 -1.36243524E+00 -6.48861632E+00  0.00000000E+00 -1.36243524E+00
 -6.48861632E+00  0.00000000E+00 -1.36243524E+00 -6.48861632E+00  0.00000000E+00
 -1.36243524E+00 -6.48861632E+00  0.00000000E+00 -1.36243524E+00 -6.48861632E+00
  0.00000000E+00 -1.36243524E+00 -6.48861632E+00  0.00000000E+00 -1.36243524E+00
 -6.48861632E+00  0.00000000E+00 -1.36243524E+00 -6.48861632E+00  0.00000000E+00
 -1.36243524E+00 -6.48861632E+00  0.00000000E+00 -1.36243524E+00 -6.48861632E+00
  0.00000000E+00 -1.36243524E+00 -6.48861632E+00  0.00000000E+00 -4.46572298E-01
 -2.12680663E+00  0.00000000E+00 -4.46572298E-01 -2.12680663E+00  0.00000000E+00
 -4.46572298E-01 -2.12680663E+00  0.00000000E+00 -4.46572298E-01 -2.12680663E+00
  0.00000000E+00 -4.46572298E-01 -2.12680663E+00  0.00000000E+00 -4.46572298E-01
 -2.12680663E+00  0.00000000E+00 -4.46572298E-01 -2.12680663E+00  0.00000000E+00
 -4.46572298E-01 -2.12680663E+00  0.00000000E+00 -4.46572298E-01 -2.12680663E+00
  0.00000000E+00 -4.46572298E-01 -2.12680663E+00  0.00000000E+00 -4.46572298E-01
 -2.12680663E+00  0.00000000E+00 -4.46572298E-01 -2.12680663E+00  0.00000000E+00
 -4.46572298E-01 -2.12680663E+00  0.00000000E+00 -4.46572298E-01 -2.12680663E+00
  0.00000000E+00 -4.46572298E-01 -2.12680663E+00  0.00000000E+00 -4.46572298E-01
 -2.12680663E+00  0.00000000E+00 -4.46572298E-01 -2.12680663E+00  0.00000000E+00
Constraint Structure                       R   N=          12
  0.00000000E+00  0.00000000E+00  0.00000000E+00  1.81585239E+00  0.00000000E+00
  0.00000000E+00 -1.36243524E+00 -6.48861632E+00  0.00000000E+00 -4.46572298E-01
 -2.12680663E+00  0.00000000E+00
Num ILSW                                   I              100
ILSW                                       I   N=         100
           0           0           0           0           2           0
           0           0           0           0           0          -1
           0           0           0           0           0           0
           0           0           0           0           0           0
           1           1           0           0           0           0
           0           0      100000           0          -1           0
           0           0           0           0           0           0
           0           0           0           1           0           0
           0           0           1           0           0           0
           0           0           4          41           0           0
           0           0           0           0           0           0
           0           0           0           4           0           0
           0           0           0           0           0           0
           0           0           0           0           0           0
           0           0           0           0           0           0
           0           0           0           0           0           0
           0           0           0           0
Num RLSW                                   I               41
RLSW                                       R   N=          41
  1.00000000E+00  1.00000000E+00  1.00000000E+00  1.00000000E+00  1.00000000E+00
  0.00000000E+00  0.00000000E+00  1.00000000E+00  0.00000000E+00  0.00000000E+00
  0.00000000E+00  0.00000000E+00  1.00000000E+00  0.00000000E+00  0.00000000E+00
  0.00000000E+00  0.00000000E+00  1.00000000E+00  0.00000000E+00  0.00000000E+00
  0.00000000E+00  0.00000000E+00  1.00000000E+00  0.00000000E+00  0.00000000E+00
  0.00000000E+00  0.00000000E+00  1.00000000E+00  0.00000000E+00  0.00000000E+00
  0.00000000E+00  0.00000000E+00  1.00000000E+00  0.00000000E+00  0.00000000E+00
  0.00000000E+00  0.00000000E+00  0.00000000E+00  1.00000000E+00  1.00000000E+00
  0.00000000E+00
ECP-MxAtEC                                 I           250000
ECP-MaxLECP                                I               10
ECP-MaxAtL                                 I          2250000
ECP-MxTECP                                 I         11250000
ECP-LenNCZ                                 I               16
ECP-KFirst                                 I   N=          40
           0           0           1           0           0           0
           2           0           0           0           5           0
           0           0           9           0           0           0
          13           0           0           0           0           0
           0           0           0           0           0           0
           0           0           0           0           0           0
           0           0           0           0
ECP-KLast                                  I   N=          40
           0           0           1           0           0           0
           4           0           0           0           8           0
           0           0          12           0           0           0
          16           0           0           0           0           0
           0           0           0           0           0           0
           0           0           0           0           0           0
           0           0           0           0
ECP-LMax                                   I   N=           4
           0           0           4           0
ECP-LPSkip                                 I   N=           4
           1           1           0           1
ECP-RNFroz                                 R   N=           4
  0.00000000E+00  0.00000000E+00  2.80000000E+01  0.00000000E+00
ECP-NLP                                    I   N=          16
           2           2           2           2           2           2
           2           2           2           2           2           2
           2           2           2           2
ECP-CLP1                                   R   N=          16
  0.00000000E+00  4.99896490E+01  2.81006556E+02  6.14167390E+01  6.74162390E+01
  1.34807696E+02  1.45665480E+01  2.89684220E+01  3.55387560E+01  5.33397590E+01
  9.71646600E+00  1.49775000E+01 -2.01766180E+01 -2.60880770E+01 -2.20434000E-01
 -2.21646000E-01
ECP-CLP2                                   R   N=          16
  0.00000000E+00  0.00000000E+00  0.00000000E+00  0.00000000E+00  0.00000000E+00
  0.00000000E+00  0.00000000E+00  0.00000000E+00  0.00000000E+00  0.00000000E+00
  0.00000000E+00  0.00000000E+00  0.00000000E+00  0.00000000E+00  0.00000000E+00
  0.00000000E+00
ECP-ZLP                                    R   N=          16
  1.00000000E+00  4.00333760E+01  1.73005760E+01  8.85172000E+00  1.57201410E+01
  1.52082220E+01  8.29418600E+00  7.75394900E+00  1.38177510E+01  1.35878050E+01
  6.94763000E+00  6.96009900E+00  1.85229500E+01  1.82510350E+01  7.55790100E+00
  7.59740400E+00
MxBond                                     I                1
NBond                                      I   N=           4
           1           1           0           0
IBond                                      I   N=           4
           2           1           0           0
RBond                                      R   N=           4
  1.00000000E+00  1.00000000E+00  0.00000000E+00  0.00000000E+00
Virial Ratio                               R      2.986716543183792E+00
SCF Energy                                 R     -3.707930050387448E+02
MP2 Energy                                 R     -3.712993251241310E+02
Total Energy                               R     -3.712993251241310E+02
Post-SCF wavefunction norm                 R      1.078652541781868E+00
RMS Density                                R      3.126075418036658E-09
Job Status                                 I                1
Nuclear derivative order                   I                0
External E-field                           R   N=          35
  0.00000000E+00  0.00000000E+00  0.00000000E+00  0.00000000E+00  0.00000000E+00
  0.00000000E+00  0.00000000E+00  0.00000000E+00  0.00000000E+00  0.00000000E+00
  0.00000000E+00  0.00000000E+00  0.00000000E+00  0.00000000E+00  0.00000000E+00
  0.00000000E+00  0.00000000E+00  0.00000000E+00  0.00000000E+00  0.00000000E+00
  0.00000000E+00  0.00000000E+00  0.00000000E+00  0.00000000E+00  0.00000000E+00
  0.00000000E+00  0.00000000E+00  0.00000000E+00  0.00000000E+00  0.00000000E+00
  0.00000000E+00  0.00000000E+00  0.00000000E+00  0.00000000E+00  0.00000000E+00
IOpCl                                      I                0
IROHF                                      I                0
Alpha Orbital Energies                     R   N=         147
 -2.03943231E+01 -7.47503896E+00 -5.30086175E+00 -5.30020827E+00 -5.30015486E+00
 -2.02841858E+00 -2.02804286E+00 -2.02798195E+00 -2.02728184E+00 -2.02728101E+00
 -1.13909529E+00 -6.37800129E-01 -4.91797860E-01 -3.96876774E-01 -3.25308764E-01
 -1.55848221E-01 -1.49665676E-01 -1.49252292E-01  1.35497852E-01  1.70290945E-01
  2.32042205E-01  2.44640382E-01  2.49906761E-01  2.73267967E-01  2.94794578E-01
  2.95640212E-01  3.12861804E-01  3.39900479E-01  3.65781204E-01  3.69928138E-01
  3.73741010E-01  3.94581994E-01  4.05777492E-01  4.24844614E-01  4.41101741E-01
  4.77272409E-01  5.17584908E-01  5.47690647E-01  5.73672458E-01  5.97684365E-01
  6.70098942E-01  7.17384588E-01  7.71388410E-01  7.71980894E-01  7.81972042E-01
  7.92452824E-01  7.93756061E-01  7.97196521E-01  8.26429338E-01  8.28490114E-01
  8.54703725E-01  8.56820578E-01  8.63592129E-01  8.75800796E-01  8.78629348E-01
  8.93250303E-01  9.01318139E-01  9.29129520E-01  9.33409767E-01  9.70337492E-01
  1.02257814E+00  1.05232367E+00  1.07384959E+00  1.10634862E+00  1.11656130E+00
  1.11927185E+00  1.15182799E+00  1.16838376E+00  1.18842063E+00  1.19518743E+00
  1.31001240E+00  1.36293711E+00  1.37799188E+00  1.44313020E+00  1.48868133E+00
  1.51651148E+00  1.58405297E+00  1.65038140E+00  1.71099796E+00  1.73396590E+00
  1.74494183E+00  1.74574263E+00  1.76102957E+00  1.76923946E+00  1.80674409E+00
  1.85019323E+00  1.86625030E+00  1.89679098E+00  2.02234774E+00  2.04993688E+00
  2.04995841E+00  2.05730588E+00  2.09773439E+00  2.10980045E+00  2.14647716E+00
  2.32347281E+00  2.45541282E+00  2.45875982E+00  2.55235691E+00  2.57675883E+00
  2.59939849E+00  2.62944141E+00  2.69839680E+00  2.79153137E+00  2.91085863E+00
  2.93557271E+00  2.97807093E+00  3.03785466E+00  3.13283077E+00  3.30429324E+00
  3.30940050E+00  3.58901771E+00  3.86899142E+00  4.16019788E+00  4.23968721E+00
  4.24828107E+00  4.27664331E+00  4.37972052E+00  4.41249469E+00  4.51883953E+00
  4.54757216E+00  4.58488851E+00  4.69096898E+00  4.85045957E+00  4.94871193E+00
  4.97544097E+00  5.08654414E+00  5.28067068E+00  5.42048023E+00  5.55709603E+00
  5.68348996E+00  6.33161986E+00  6.71242112E+00  6.88125082E+00  6.99322112E+00
  7.11227617E+00  7.36577612E+00  7.40617928E+00  7.45062068E+00  7.52907996E+00
  7.57170348E+00  7.70179114E+00  7.93606932E+00  8.13468085E+00  8.42306270E+00
  1.45622879E+01  5.92143183E+01
Alpha MO coefficients                      R   N=       28077
  9.76774385E-01 -9.15289041E-03  4.35191327E-02 -4.08596601E-04  2.08854875E-04
  1.24922777E-03 -1.15403281E-03 -2.34841259E-16 -9.77183884E-04  1.42548732E-03
 -1.73565016E-17 -1.34308629E-04  6.59243453E-04 -3.53304401E-16  6.71375988E-06
 -1.59844204E-04 -5.05451947E-16 -3.42027548E-05 -1.07489221E-15 -2.05085574E-15
  5.95077002E-05  6.51960558E-06  6.09793655E-04  8.22092083E-16  1.79436757E-15
  2.31737098E-05 -2.99855813E-04  1.49186922E-04 -1.07035353E-15 -4.82554509E-16
  1.87642598E-04 -2.37335185E-04 -2.39584054E-16 -1.75148136E-06 -3.28676603E-05
 -1.27656148E-16  5.74858528E-18 -1.38817792E-05 -2.61441545E-05  4.72135848E-16
  6.49508653E-05 -8.62120933E-05 -6.02266773E-18 -6.47673907E-17 -2.16356068E-04
 -1.45347206E-04  5.16009609E-04  7.76306126E-04  1.38783793E-04 -2.84845934E-05
  7.76306126E-04  1.38783793E-04 -2.84845934E-05 -1.09250537E-04 -2.54451429E-06
  3.29376631E-16 -4.97904608E-04  1.04153520E-04  1.99194754E-16 -1.16305144E-04
  1.02380214E-04  4.66764610E-16 -1.09250537E-04 -2.54451429E-06 -4.05768955E-16
 -4.97904608E-04  1.04153520E-04  2.59331573E-16 -1.16305144E-04  1.02380214E-04
  9.50302250E-17  2.72750357E-05 -2.42034160E-16  7.13305843E-16 -5.58499147E-05
 -1.74792962E-06 -9.73562188E-05 -8.80156237E-17  3.75945616E-16  1.94300546E-04
 -7.06654368E-05  2.72750357E-05  8.69724342E-17 -8.98841562E-16 -5.58499147E-05
 -1.74792963E-06 -9.73562188E-05  1.88229343E-16 -4.55604851E-17  1.94300546E-04
 -7.06654368E-05 -1.54273768E-06  1.03905068E-05  1.72977944E-04  8.15171530E-04
 -2.84280552E-03 -8.50371117E-04 -1.82910152E-05 -9.51743745E-05  5.68482325E-18
 -9.45130125E-05 -5.13040186E-04 -2.25955196E-16  5.33671174E-05  2.67196047E-04
  8.54522148E-17 -4.60229146E-04 -1.94320041E-03  1.43816731E-16 -3.94027795E-05
 -2.18263803E-04  4.73646661E-17  3.90678717E-06  6.43225387E-17  6.07200724E-17
  4.19218565E-06 -3.61259415E-06 -3.81198637E-05 -1.59086407E-16  4.22388273E-17
 -4.98655489E-05  3.22265251E-05  3.54837956E-04  1.62754159E-16 -1.49040966E-16
  5.33296905E-04 -2.65265311E-04  2.73594172E-04 -1.50739877E-16  2.86763289E-17
  4.53200411E-04 -2.18340953E-04 -1.42370522E-16  5.85314781E-06  2.53142281E-05
 -1.41749650E-16 -7.40444386E-17  1.10162557E-05  2.12302140E-05  1.94214053E-16
  3.00541597E-05  1.27192730E-04  1.58522189E-16 -3.84642226E-17  1.25450457E-04
  1.36933254E-04  2.66142347E-05  9.84558550E-04  1.39449986E-03  1.71105160E-04
  9.84558550E-04  1.39449986E-03  1.71105160E-04  2.48308348E-05  1.31707837E-04
  3.45636339E-17  1.43691478E-04  8.29717488E-04  1.82007389E-16 -1.99722480E-04
 -1.27152719E-03  1.17228096E-16  2.48308348E-05  1.31707837E-04  3.45636339E-17
  1.43691478E-04  8.29717488E-04  1.82007389E-16 -1.99722480E-04 -1.27152719E-03
 -2.11744334E-18 -6.48478025E-05 -2.52931518E-17  1.91983401E-16 -1.05654845E-04
  4.78469586E-05 -3.07920630E-04  1.14764079E-16 -7.00373301E-16 -4.79225622E-04
  1.88539301E-04 -6.48478025E-05 -2.52804579E-17  1.93942799E-16 -1.05654845E-04
  4.78469586E-05 -3.07920630E-04  1.13176045E-16  6.29800933E-16 -4.79225622E-04
  1.88539301E-04  5.94585709E-06  2.09371996E-05 -7.59503464E-07 -1.75278152E-05
  2.48909528E-05  2.27806851E-06  6.39634673E-06  3.37676371E-16 -1.16775085E-05
 -1.01044157E-05  9.35516749E-17  7.38231967E-05  1.28564351E-04  8.24698243E-15
  6.10804122E-05 -2.88603145E-05 -1.11717339E-15 -1.37967151E-06 -2.54770086E-16
  4.78427455E-16 -1.81574146E-06  5.67103487E-07  9.41981552E-06  1.21007203E-15
 -1.47776149E-15  9.94006309E-06 -3.19244564E-06  2.15167420E-05  1.78244433E-15
 -5.68836670E-16  6.86268135E-05 -2.83394930E-05  8.35656265E-16  1.04953257E-06
  1.38580406E-06 -6.88694495E-16 -3.99491354E-16  3.69196550E-08  2.69267279E-07
 -1.64785111E-15 -4.94872625E-06 -1.22655665E-05  8.92479470E-16  7.95766173E-16
 -5.60872647E-06 -7.55615415E-06 -2.15381765E-07 -1.25064043E-05 -4.05295854E-05
 -6.53208805E-05 -1.25064043E-05 -4.05295854E-05 -6.53208805E-05 -2.37878022E-07
  5.25486861E-07 -7.42911296E-16 -5.19209560E-06 -5.15028136E-06 -2.32331506E-15
  3.59587711E-06  1.67485609E-06 -6.91875717E-16 -2.37878019E-07  5.25486861E-07
  1.34021733E-15 -5.19209560E-06 -5.15028136E-06 -2.34668955E-15  3.59587711E-06
  1.67485609E-06 -5.63129437E-16 -4.31509058E-07  5.01828452E-16  5.10263013E-18
  4.67564601E-07  3.01755220E-07 -3.49793944E-06  7.71534062E-16 -2.36031742E-16
  4.26367664E-06 -1.96011357E-06 -4.31509058E-07 -1.96915899E-16  3.72725347E-17
  4.67564603E-07  3.01755220E-07 -3.49793944E-06  1.19369330E-15 -1.58322559E-16
  4.26367664E-06 -1.96011357E-06  9.83171274E-01 -2.61992052E-03  2.28925704E-02
 -5.95928564E-03  1.81116430E-03 -8.16041553E-04  1.19118492E-04  2.85726308E-04
  9.37158934E-16 -1.29423475E-05 -3.86571611E-05  3.89712279E-15  2.68873266E-05
  8.72673124E-05 -2.29215815E-15  2.39297127E-05  1.13313201E-04 -3.74805069E-15
 -1.55621382E-05 -1.31480360E-04  8.97818624E-16 -6.60294364E-05 -1.32607373E-17
 -6.07220282E-16 -8.26946633E-05  5.27467798E-05 -7.09595181E-06 -1.76192978E-17
  8.94584628E-16 -9.09975449E-06  5.96706703E-06 -9.32270667E-06 -2.26914770E-16
 -1.75351219E-15 -2.14283176E-05  3.17126269E-06  2.37457946E-06  5.83011652E-17
  5.86972421E-16  1.26501021E-05  2.79496283E-06  8.20795898E-17 -8.07988261E-08
 -2.33944869E-06 -6.66883873E-17  1.13076946E-16 -1.94812953E-06 -4.78755836E-06
  4.45393429E-16 -1.52160773E-06 -5.27178663E-06  4.65075992E-16 -2.65129428E-16
 -2.89932752E-06 -2.41124387E-06  5.34220863E-06  9.24398689E-05 -5.93162676E-05
  1.76182999E-04  9.24398689E-05 -5.93162676E-05  1.76182999E-04 -1.92731485E-07
 -1.40138675E-06  2.49352937E-16 -1.76309301E-06 -7.59808768E-07 -1.28556167E-15
 -1.05257601E-05  1.44672597E-05  1.38788916E-16 -1.92731485E-07 -1.40138675E-06
  2.49352937E-16 -1.76309301E-06 -7.59808768E-07 -1.28556167E-15 -1.05257600E-05
  1.44672597E-05  2.28505948E-16 -2.20402524E-06  1.87348512E-17 -7.93144431E-17
 -2.75227071E-06  1.55361731E-06  1.60311960E-05 -2.00096563E-16 -1.49542700E-15
  2.13794716E-05 -1.53086631E-05 -2.20402524E-06  1.97109531E-17 -7.71210024E-17
 -2.75227071E-06  1.55361731E-06  1.60311960E-05 -2.05994616E-16 -1.08934942E-15
  2.13794716E-05 -1.53086631E-05  7.14399889E-06  6.91673185E-06 -5.39757533E-06
  6.52315889E-05  8.43061770E-05  3.61620262E-06  1.63022390E-05 -5.37233536E-16
 -9.87507555E-06 -7.70909753E-06  2.32206774E-16  2.92389777E-05  1.84953480E-05
  3.39261066E-14  5.10508932E-06 -2.35199995E-05  4.90911546E-15  2.35457631E-07
 -1.76137651E-16  2.17714189E-16 -7.47898911E-09 -7.79151890E-10 -7.46598368E-07
  1.96059801E-15 -1.68027430E-15 -2.35896964E-06  2.92630851E-06 -3.30542280E-06
  5.39240494E-15 -1.13232108E-14  1.72880863E-05  6.82120030E-06  2.34226316E-16
  9.21523515E-07  7.92835519E-07 -1.74517753E-17 -3.73361213E-16 -1.58804556E-07
  4.83944624E-07 -3.54731313E-15 -2.71127652E-06 -2.11471999E-06 -9.45040834E-16
  1.02667942E-15  2.03183273E-06  2.74892992E-06  3.14071463E-09 -7.77176948E-06
 -3.26134163E-05 -5.69899644E-06 -7.77176948E-06 -3.26134163E-05 -5.69899644E-06
 -2.10348941E-07 -2.48443865E-07  6.23100564E-16 -3.78850165E-06 -4.91106783E-06
 -8.96710727E-15  7.56389345E-06  2.29875090E-08 -3.93145719E-15 -2.10348938E-07
 -2.48443861E-07  6.85024043E-16 -3.78850166E-06 -4.91106783E-06 -3.02243237E-15