title                                                                   
SP        RMP2-FC                                                     Gen                 
Number of atoms                            I                4
Info1-9                                    I   N=           9
         144         135           0           0           0         110
           1           2           1
Charge                                     I               -1
Multiplicity                               I                1
Number of electrons                        I               36
Number of alpha electrons                  I               18
Number of beta electrons                   I               18
Number of basis functions                  I              191
Number of independent functions            I              147
Number of point charges in /Mol/           I                0
Number of translation vectors              I                0
Atomic numbers                             I   N=           4
           8           1          53           1
Nuclear charges                            R   N=           4
  8.00000000E+00  1.00000000E+00  2.50000000E+01  1.00000000E+00
Current cartesian coordinates              R   N=          12
  0.00000000E+00  0.00000000E+00  0.00000000E+00  1.81585239E+00  0.00000000E+00
  0.00000000E+00 -1.36243524E+00 -6.48861632E+00  0.00000000E+00 -4.27156111E-01
 -2.03433678E+00  0.00000000E+00
Force Field                                I                0
Int Atom Types                             I   N=           4
           0           0           0           0
MM charges                                 R   N=           4
  0.00000000E+00  0.00000000E+00  0.00000000E+00  0.00000000E+00
Integer atomic weights                     I   N=           4
          16           2         127           1
Real atomic weights                        R   N=           4
  1.59949146E+01  2.01410179E+00  1.26900400E+02  1.00782504E+00
Atom fragment info                         I   N=           4
           0           0           0           0
Atom residue num                           I   N=           4
           0           0           0           0
Nuclear spins                              I   N=           4
           0           2           5           1
Nuclear ZEff                               R   N=           4
 -5.60000000E+00 -1.00000000E+00 -5.83000000E+03 -1.00000000E+00
Nuclear ZNuc                               R   N=           4
  8.00000000E+00  1.00000000E+00  5.30000000E+01  1.00000000E+00
Nuclear QMom                               R   N=           4
  0.00000000E+00  2.86000000E-01 -7.10000000E+01  0.00000000E+00
Nuclear GFac                               R   N=           4
  0.00000000E+00  8.57438000E-01  2.81328000E+00  2.79284600E+00
MicOpt                                     I   N=           4
          -1          -1          -1          -1
Number of contracted shells                I               65
Number of primitive shells                 I              119
Pure/Cartesian d shells                    I                0
Pure/Cartesian f shells                    I                0
Highest angular momentum                   I                3
Largest degree of contraction              I                9
Shell types                                I   N=          65
           0           0           0           0           0           1
           1           1           1          -2          -2          -2
          -3          -3           0           0           0           0
           0           0           0           1           1           1
           1           1           1          -2          -2          -2
          -2           0           0           0           0           0
           0           1           1           1           1           1
          -2          -2          -2          -2          -3          -3
           0           0           0           0           0           0
           0           1           1           1           1           1
           1          -2          -2          -2          -2
Number of primitives per shell             I   N=          65
           7           6           1           1           1           3
           1           1           1           1           1           1
           1           1           3           1           1           1
           1           1           1           1           1           1
           1           1           1           1           1           1
           1           9           8           1           1           1
           1           8           8           1           1           1
           9           1           1           1           1           1
           3           1           1           1           1           1
           1           1           1           1           1           1
           1           1           1           1           1
Shell to atom map                          I   N=          65
           1           1           1           1           1           1
           1           1           1           1           1           1
           1           1           2           2           2           2
           2           2           2           2           2           2
           2           2           2           2           2           2
           2           3           3           3           3           3
           3           3           3           3           3           3
           3           3           3           3           3           3
           4           4           4           4           4           4
           4           4           4           4           4           4
           4           4           4           4           4
Primitive exponents                        R   N=         119
  1.53300000E+04  2.29900000E+03  5.22400000E+02  1.47300000E+02  4.75500000E+01
  1.67600000E+01  6.20700000E+00  5.22400000E+02  1.47300000E+02  4.75500000E+01
  1.67600000E+01  6.20700000E+00  6.88200000E-01  1.75200000E+00  2.38400000E-01
  7.37600000E-02  3.44600000E+01  7.74900000E+00  2.28000000E+00  7.15600000E-01
  2.14000000E-01  5.97400000E-02  2.31400000E+00  6.45000000E-01  2.14000000E-01
  1.42800000E+00  5.00000000E-01  3.38700000E+01  5.09500000E+00  1.15900000E+00
  3.25800000E-01  1.02700000E-01  2.52600000E-02  3.25800000E-01  1.02700000E-01
  2.52600000E-02  1.40700000E+00  3.88000000E-01  1.02000000E-01  1.40700000E+00
  3.88000000E-01  1.02000000E-01  1.05700000E+00  2.47000000E-01  1.05700000E+00
  2.47000000E-01  5.54650000E+03  8.38214000E+02  1.82187000E+02  3.12123000E+01
  1.95314000E+01  8.24099000E+00  2.19455000E+00  1.10911000E+00  8.10610000E-02
  5.54650000E+03  8.38214000E+02  3.12123000E+01  1.95314000E+01  8.24099000E+00
  2.19455000E+00  1.10911000E+00  8.10610000E-02  3.74641000E-01  1.77080000E-01
  1.00100000E-01  4.12000000E-02  1.88988000E+02  2.12868000E+01  1.00396000E+01
  3.45180000E+00  1.97456000E+00  1.02420000E+00  4.49437000E-01  7.34810000E-02
  1.88988000E+02  1.00396000E+01  3.45180000E+00  1.97456000E+00  1.02420000E+00
  4.49437000E-01  1.86648000E-01  7.34810000E-02  5.98100000E-01  9.61800000E-02
  3.59000000E-02  1.32662000E+02  3.76054000E+01  1.03891000E+01  6.49017000E+00
  3.45451000E+00  1.84413000E+00  9.62478000E-01  4.72853000E-01  1.93200000E-01
  4.72853000E-01  1.93200000E-01  7.82000000E-02  4.06400000E-01  1.84800000E-01
  3.38700000E+01  5.09500000E+00  1.15900000E+00  3.25800000E-01  1.02700000E-01
  2.52600000E-02  3.25800000E-01  1.02700000E-01  2.52600000E-02  1.40700000E+00
  3.88000000E-01  1.02000000E-01  1.40700000E+00  3.88000000E-01  1.02000000E-01
  1.05700000E+00  2.47000000E-01  1.05700000E+00  2.47000000E-01
Contraction coefficients                   R   N=         119
  5.19808943E-04  4.02025621E-03  2.07128267E-02  8.10105536E-02  2.35962985E-01
  4.42653446E-01  3.57064423E-01 -4.42115008E-05 -1.22591041E-03 -1.05517725E-02
 -6.74452633E-02 -1.71198607E-01  1.07329856E+00  1.00000000E+00  1.00000000E+00
  1.00000000E+00  4.11634896E-02  2.57762836E-01  8.02419274E-01  1.00000000E+00
  1.00000000E+00  1.00000000E+00  1.00000000E+00  1.00000000E+00  1.00000000E+00
  1.00000000E+00  1.00000000E+00  2.54948632E-02  1.90362766E-01  8.52162022E-01
  1.00000000E+00  1.00000000E+00  1.00000000E+00  1.00000000E+00  1.00000000E+00
  1.00000000E+00  1.00000000E+00  1.00000000E+00  1.00000000E+00  1.00000000E+00
  1.00000000E+00  1.00000000E+00  1.00000000E+00  1.00000000E+00  1.00000000E+00
  1.00000000E+00  1.58603022E-04  1.00211458E-03  2.83966410E-03 -4.40310212E-02
  2.38198152E-01 -7.63568980E-01  8.96516870E-01  4.68371203E-01  2.16251781E-03
 -2.17177846E-05 -2.59237305E-04 -1.50376554E-02  2.42214079E-02  6.99888661E-02
 -5.50491335E-01 -5.69654432E-01  3.76065139E-01  1.00000000E+00  1.00000000E+00
  1.00000000E+00  1.00000000E+00  5.85232173E-04  3.69335916E-02 -2.35399435E-01
  3.41625365E-01  5.34991615E-01  2.65244797E-01  2.54463150E-02  3.82802808E-04
 -6.76097015E-05  8.33123161E-03 -4.66496478E-02 -5.27406452E-02 -2.91398344E-02
  3.65650039E-01  5.48502805E-01  2.34644635E-01  1.00000000E+00  1.00000000E+00
  1.00000000E+00  5.72000072E-04  4.40200055E-03 -4.09220051E-02  9.96610125E-02
  3.22663040E-01  4.00343050E-01  2.68306034E-01  8.48470106E-02  7.63200096E-03
  1.00000000E+00  1.00000000E+00  1.00000000E+00  1.00000000E+00  1.00000000E+00
  2.54948632E-02  1.90362766E-01  8.52162022E-01  1.00000000E+00  1.00000000E+00
  1.00000000E+00  1.00000000E+00  1.00000000E+00  1.00000000E+00  1.00000000E+00
  1.00000000E+00  1.00000000E+00  1.00000000E+00  1.00000000E+00  1.00000000E+00
  1.00000000E+00  1.00000000E+00  1.00000000E+00  1.00000000E+00
Coordinates of each shell                  R   N=         195
  0.00000000E+00  0.00000000E+00  0.00000000E+00  0.00000000E+00  0.00000000E+00
  0.00000000E+00  0.00000000E+00  0.00000000E+00  0.00000000E+00  0.00000000E+00
  0.00000000E+00  0.00000000E+00  0.00000000E+00  0.00000000E+00  0.00000000E+00
  0.00000000E+00  0.00000000E+00  0.00000000E+00  0.00000000E+00  0.00000000E+00
  0.00000000E+00  0.00000000E+00  0.00000000E+00  0.00000000E+00  0.00000000E+00
  0.00000000E+00  0.00000000E+00  0.00000000E+00  0.00000000E+00  0.00000000E+00
  0.00000000E+00  0.00000000E+00  0.00000000E+00  0.00000000E+00  0.00000000E+00
  0.00000000E+00  0.00000000E+00  0.00000000E+00  0.00000000E+00  0.00000000E+00
  0.00000000E+00  0.00000000E+00  1.81585239E+00  0.00000000E+00  0.00000000E+00
  1.81585239E+00  0.00000000E+00  0.00000000E+00  1.81585239E+00  0.00000000E+00
  0.00000000E+00  1.81585239E+00  0.00000000E+00  0.00000000E+00  1.81585239E+00
  0.00000000E+00  0.00000000E+00  1.81585239E+00  0.00000000E+00  0.00000000E+00
  1.81585239E+00  0.00000000E+00  0.00000000E+00  1.81585239E+00  0.00000000E+00
  0.00000000E+00  1.81585239E+00  0.00000000E+00  0.00000000E+00  1.81585239E+00
  0.00000000E+00  0.00000000E+00  1.81585239E+00  0.00000000E+00  0.00000000E+00
  1.81585239E+00  0.00000000E+00  0.00000000E+00  1.81585239E+00  0.00000000E+00
  0.00000000E+00  1.81585239E+00  0.00000000E+00  0.00000000E+00  1.81585239E+00
  0.00000000E+00  0.00000000E+00  1.81585239E+00  0.00000000E+00  0.00000000E+00
  1.81585239E+00  0.00000000E+00  0.00000000E+00 -1.36243524E+00 -6.48861632E+00
  0.00000000E+00 -1.36243524E+00 -6.48861632E+00  0.00000000E+00 -1.36243524E+00
 -6.48861632E+00  0.00000000E+00 -1.36243524E+00 -6.48861632E+00  0.00000000E+00
 -1.36243524E+00 -6.48861632E+00  0.00000000E+00 -1.36243524E+00 -6.48861632E+00
  0.00000000E+00 -1.36243524E+00 -6.48861632E+00  0.00000000E+00 -1.36243524E+00
 -6.48861632E+00  0.00000000E+00 -1.36243524E+00 -6.48861632E+00  0.00000000E+00
 -1.36243524E+00 -6.48861632E+00  0.00000000E+00 -1.36243524E+00 -6.48861632E+00
  0.00000000E+00 -1.36243524E+00 -6.48861632E+00  0.00000000E+00 -1.36243524E+00
 -6.48861632E+00  0.00000000E+00 -1.36243524E+00 -6.48861632E+00  0.00000000E+00
 -1.36243524E+00 -6.48861632E+00  0.00000000E+00 -1.36243524E+00 -6.48861632E+00
  0.00000000E+00 -1.36243524E+00 -6.48861632E+00  0.00000000E+00 -4.27156111E-01
 -2.03433678E+00  0.00000000E+00 -4.27156111E-01 -2.03433678E+00  0.00000000E+00
 -4.27156111E-01 -2.03433678E+00  0.00000000E+00 -4.27156111E-01 -2.03433678E+00
  0.00000000E+00 -4.27156111E-01 -2.03433678E+00  0.00000000E+00 -4.27156111E-01
 -2.03433678E+00  0.00000000E+00 -4.27156111E-01 -2.03433678E+00  0.00000000E+00
 -4.27156111E-01 -2.03433678E+00  0.00000000E+00 -4.27156111E-01 -2.03433678E+00
  0.00000000E+00 -4.27156111E-01 -2.03433678E+00  0.00000000E+00 -4.27156111E-01
 -2.03433678E+00  0.00000000E+00 -4.27156111E-01 -2.03433678E+00  0.00000000E+00
 -4.27156111E-01 -2.03433678E+00  0.00000000E+00 -4.27156111E-01 -2.03433678E+00
  0.00000000E+00 -4.27156111E-01 -2.03433678E+00  0.00000000E+00 -4.27156111E-01
 -2.03433678E+00  0.00000000E+00 -4.27156111E-01 -2.03433678E+00  0.00000000E+00
Constraint Structure                       R   N=          12
  0.00000000E+00  0.00000000E+00  0.00000000E+00  1.81585239E+00  0.00000000E+00
  0.00000000E+00 -1.36243524E+00 -6.48861632E+00  0.00000000E+00 -4.27156111E-01
 -2.03433678E+00  0.00000000E+00
Num ILSW                                   I              100
ILSW                                       I   N=         100
           0           0           0           0           2           0
           0           0           0           0           0          -1
           0           0           0           0           0           0
           0           0           0           0           0           0
           1           1           0           0           0           0
           0           0      100000           0          -1           0
           0           0           0           0           0           0
           0           0           0           1           0           0
           0           0           1           0           0           0
           0           0           4          41           0           0
           0           0           0           0           0           0
           0           0           0           4           0           0
           0           0           0           0           0           0
           0           0           0           0           0           0
           0           0           0           0           0           0
           0           0           0           0           0           0
           0           0           0           0
Num RLSW                                   I               41
RLSW                                       R   N=          41
  1.00000000E+00  1.00000000E+00  1.00000000E+00  1.00000000E+00  1.00000000E+00
  0.00000000E+00  0.00000000E+00  1.00000000E+00  0.00000000E+00  0.00000000E+00
  0.00000000E+00  0.00000000E+00  1.00000000E+00  0.00000000E+00  0.00000000E+00
  0.00000000E+00  0.00000000E+00  1.00000000E+00  0.00000000E+00  0.00000000E+00
  0.00000000E+00  0.00000000E+00  1.00000000E+00  0.00000000E+00  0.00000000E+00
  0.00000000E+00  0.00000000E+00  1.00000000E+00  0.00000000E+00  0.00000000E+00
  0.00000000E+00  0.00000000E+00  1.00000000E+00  0.00000000E+00  0.00000000E+00
  0.00000000E+00  0.00000000E+00  0.00000000E+00  1.00000000E+00  1.00000000E+00
  0.00000000E+00
ECP-MxAtEC                                 I           250000
ECP-MaxLECP                                I               10
ECP-MaxAtL                                 I          2250000
ECP-MxTECP                                 I         11250000
ECP-LenNCZ                                 I               16
ECP-KFirst                                 I   N=          40
           0           0           1           0           0           0
           2           0           0           0           5           0
           0           0           9           0           0           0
          13           0           0           0           0           0
           0           0           0           0           0           0
           0           0           0           0           0           0
           0           0           0           0
ECP-KLast                                  I   N=          40
           0           0           1           0           0           0
           4           0           0           0           8           0
           0           0          12           0           0           0
          16           0           0           0           0           0
           0           0           0           0           0           0
           0           0           0           0           0           0
           0           0           0           0
ECP-LMax                                   I   N=           4
           0           0           4           0
ECP-LPSkip                                 I   N=           4
           1           1           0           1
ECP-RNFroz                                 R   N=           4
  0.00000000E+00  0.00000000E+00  2.80000000E+01  0.00000000E+00
ECP-NLP                                    I   N=          16
           2           2           2           2           2           2
           2           2           2           2           2           2
           2           2           2           2
ECP-CLP1                                   R   N=          16
  0.00000000E+00  4.99896490E+01  2.81006556E+02  6.14167390E+01  6.74162390E+01
  1.34807696E+02  1.45665480E+01  2.89684220E+01  3.55387560E+01  5.33397590E+01
  9.71646600E+00  1.49775000E+01 -2.01766180E+01 -2.60880770E+01 -2.20434000E-01
 -2.21646000E-01
ECP-CLP2                                   R   N=          16
  0.00000000E+00  0.00000000E+00  0.00000000E+00  0.00000000E+00  0.00000000E+00
  0.00000000E+00  0.00000000E+00  0.00000000E+00  0.00000000E+00  0.00000000E+00
  0.00000000E+00  0.00000000E+00  0.00000000E+00  0.00000000E+00  0.00000000E+00
  0.00000000E+00
ECP-ZLP                                    R   N=          16
  1.00000000E+00  4.00333760E+01  1.73005760E+01  8.85172000E+00  1.57201410E+01
  1.52082220E+01  8.29418600E+00  7.75394900E+00  1.38177510E+01  1.35878050E+01
  6.94763000E+00  6.96009900E+00  1.85229500E+01  1.82510350E+01  7.55790100E+00
  7.59740400E+00
MxBond                                     I                2
NBond                                      I   N=           4
           2           1           0           1
IBond                                      I   N=           8
           2           4           1           0           0           0
           1           0
RBond                                      R   N=           8
  1.00000000E+00  1.00000000E+00  1.00000000E+00  0.00000000E+00  0.00000000E+00
  0.00000000E+00  1.00000000E+00  0.00000000E+00
Virial Ratio                               R      2.986273694473870E+00
SCF Energy                                 R     -3.708022663975769E+02
MP2 Energy                                 R     -3.713057407864181E+02
Total Energy                               R     -3.713057407864181E+02
Post-SCF wavefunction norm                 R      1.077630021098025E+00
RMS Density                                R      2.906099940935574E-09
Job Status                                 I                1
Nuclear derivative order                   I                0
External E-field                           R   N=          35
  0.00000000E+00  0.00000000E+00  0.00000000E+00  0.00000000E+00  0.00000000E+00
  0.00000000E+00  0.00000000E+00  0.00000000E+00  0.00000000E+00  0.00000000E+00
  0.00000000E+00  0.00000000E+00  0.00000000E+00  0.00000000E+00  0.00000000E+00
  0.00000000E+00  0.00000000E+00  0.00000000E+00  0.00000000E+00  0.00000000E+00
  0.00000000E+00  0.00000000E+00  0.00000000E+00  0.00000000E+00  0.00000000E+00
  0.00000000E+00  0.00000000E+00  0.00000000E+00  0.00000000E+00  0.00000000E+00
  0.00000000E+00  0.00000000E+00  0.00000000E+00  0.00000000E+00  0.00000000E+00
IOpCl                                      I                0
IROHF                                      I                0
Alpha Orbital Energies                     R   N=         147
 -2.03984529E+01 -7.47215486E+00 -5.29787450E+00 -5.29737418E+00 -5.29732236E+00
 -2.02539780E+00 -2.02510045E+00 -2.02504039E+00 -2.02450802E+00 -2.02450706E+00
 -1.15190085E+00 -6.34582007E-01 -5.05794325E-01 -4.07372846E-01 -3.32520545E-01
 -1.53139846E-01 -1.47109449E-01 -1.46708662E-01  1.34343385E-01  1.70237383E-01
  2.32496161E-01  2.45021528E-01  2.50814836E-01  2.72123224E-01  2.92631814E-01
  2.94761111E-01  3.12631887E-01  3.38912212E-01  3.66103679E-01  3.70748721E-01
  3.74674663E-01  3.95008798E-01  4.07709460E-01  4.23186976E-01  4.41553780E-01
  4.76849459E-01  5.25541458E-01  5.46161383E-01  5.72745191E-01  5.96641734E-01
  6.69732098E-01  7.17138771E-01  7.73783883E-01  7.74215814E-01  7.83891610E-01
  7.94520774E-01  7.95977991E-01  7.98325640E-01  8.28121968E-01  8.32147075E-01
  8.55122357E-01  8.55895503E-01  8.63925527E-01  8.76883111E-01  8.80504591E-01
  8.90993039E-01  8.99999206E-01  9.20433753E-01  9.34074581E-01  9.70738669E-01
  1.01755219E+00  1.05181589E+00  1.07182100E+00  1.10220706E+00  1.11290536E+00
  1.11887964E+00  1.14827966E+00  1.16612272E+00  1.17819913E+00  1.19264769E+00
  1.31620501E+00  1.36224366E+00  1.37921646E+00  1.43713130E+00  1.48788816E+00
  1.51874490E+00  1.57047901E+00  1.66347755E+00  1.71054358E+00  1.73385176E+00
  1.74734740E+00  1.74805289E+00  1.76396482E+00  1.77264972E+00  1.80894013E+00
  1.85072772E+00  1.87710006E+00  1.89340448E+00  2.03017402E+00  2.04642404E+00
  2.05216098E+00  2.06132583E+00  2.10142075E+00  2.10827898E+00  2.14766786E+00
  2.31852337E+00  2.45021463E+00  2.48359433E+00  2.55331474E+00  2.57832121E+00
  2.59974778E+00  2.63204010E+00  2.68500500E+00  2.80018730E+00  2.90516936E+00
  2.94410148E+00  2.98095606E+00  3.04911066E+00  3.05924420E+00  3.29077675E+00
  3.29888764E+00  3.64440853E+00  3.86870955E+00  4.17124334E+00  4.24900750E+00
  4.26700589E+00  4.28465551E+00  4.39361888E+00  4.41822898E+00  4.52443280E+00
  4.56096064E+00  4.57638895E+00  4.70997340E+00  4.89981720E+00  4.98095464E+00
  5.07198181E+00  5.15478431E+00  5.33633834E+00  5.43101689E+00  5.57015517E+00
  5.72098583E+00  6.33697900E+00  6.72560116E+00  6.87828943E+00  7.01177129E+00
  7.15587173E+00  7.37697174E+00  7.40555031E+00  7.44822824E+00  7.52808093E+00
  7.57730272E+00  7.72322486E+00  7.98351090E+00  8.08840025E+00  8.57889025E+00
  1.48109512E+01  5.92173272E+01
Alpha MO coefficients                      R   N=       28077
  9.76734453E-01 -9.24828960E-03  4.35609170E-02 -6.01189449E-04  1.33114015E-04
  1.23129822E-03 -1.19839205E-03 -5.16981061E-16 -9.28942430E-04  1.50370419E-03
  5.55603292E-16 -2.29081111E-04  6.20976134E-04  2.10711982E-15 -9.23577061E-06
 -1.43495907E-04  5.66429725E-16 -3.64801511E-05  1.32842263E-16 -6.21129489E-17
  5.77612505E-05  4.41315664E-06  6.02152384E-04  4.43900043E-16 -1.03694404E-16
  1.98313710E-05 -2.84850241E-04  1.50486002E-04 -3.30425028E-16 -1.63205456E-15
  1.27971205E-04 -2.18664240E-04 -4.01902742E-17 -4.09470995E-06 -2.98073867E-05
  8.99657576E-17 -1.77143604E-16 -7.63116870E-06 -2.15104330E-05 -4.45912075E-16
  7.50823514E-05 -8.18935241E-05 -1.45750223E-16  8.69588147E-17 -2.14156794E-04
 -1.39305193E-04  5.14405256E-04  7.98474721E-04  1.88613243E-04 -2.24644648E-05
  7.98474721E-04  1.88613243E-04 -2.24644648E-05 -1.07401667E-04 -3.15949690E-06
  3.66119751E-16 -4.82088609E-04  9.95709477E-05 -4.12794119E-16 -1.23693202E-04
  9.67861386E-05  6.39088267E-17 -1.07401667E-04 -3.15949690E-06 -5.32391717E-16
 -4.82088609E-04  9.95709477E-05  3.32766732E-17 -1.23693202E-04  9.67861386E-05
  2.31089163E-16  2.88739900E-05 -5.11121375E-17  7.25004257E-17 -5.88790771E-05
  6.46001129E-07 -9.21665401E-05  8.05803836E-17  1.95216963E-16  1.80921653E-04
 -6.79590341E-05  2.88739900E-05  6.14886941E-16 -4.40684541E-17 -5.88790771E-05
  6.46001128E-07 -9.21665401E-05 -1.73221422E-16 -3.44559643E-17  1.80921653E-04
 -6.79590341E-05 -2.41815076E-06  1.25954928E-05  1.76809672E-04  8.17666476E-04
 -2.67232023E-03 -7.79719900E-04 -1.76516227E-05 -9.03635179E-05 -7.58027708E-16
 -8.70382047E-05 -4.64576381E-04 -3.08947254E-15  5.28783312E-05  2.61594610E-04
  1.85280591E-15 -4.29903654E-04 -1.84966597E-03  2.43750351E-15 -3.49054384E-05
 -2.01165750E-04 -1.95748476E-16  3.91643135E-06 -1.08176774E-17 -4.89354889E-17
  4.44873807E-06 -3.45570279E-06 -4.13963957E-05  3.31338005E-17  2.46697688E-16
 -5.63091098E-05  3.35398576E-05  3.52888133E-04 -8.37549967E-17 -5.11163326E-16
  5.33648105E-04 -2.60528897E-04  2.63155106E-04  1.06357231E-16  4.97190787E-16
  4.37349294E-04 -2.04661154E-04 -6.88403512E-17  5.89023252E-06  2.47441302E-05
 -9.18409906E-17  1.03967541E-16  1.16790587E-05  2.02465512E-05  1.28231929E-16
  3.08783781E-05  1.36466472E-04  1.78632726E-16 -1.22947419E-16  1.28126414E-04
  1.49516984E-04  1.23102220E-04  1.03590731E-03  1.29459191E-03  1.52088297E-04
  1.03590731E-03  1.29459191E-03  1.52088297E-04  2.72879071E-05  1.41773203E-04
  5.93894917E-17  1.56832797E-04  8.68339411E-04 -7.61143668E-16 -1.94388615E-04
 -1.19614283E-03 -1.05073664E-15  2.72879071E-05  1.41773203E-04  5.93894917E-17
  1.56832797E-04  8.68339411E-04 -7.61143668E-16 -1.94388615E-04 -1.19614283E-03
 -8.71830799E-16 -5.01953410E-05 -5.82950956E-17 -9.50520855E-17 -7.92106567E-05
  4.09141182E-05 -3.19804437E-04 -1.36698268E-16 -4.90362391E-16 -4.97764272E-04
  2.00462473E-04 -5.01953410E-05 -6.46110263E-17 -8.61059914E-17 -7.92106567E-05
  4.09141182E-05 -3.19804437E-04 -1.31534309E-16 -8.68449651E-16 -4.97764272E-04
  2.00462473E-04  5.64562150E-06  2.03509381E-05  5.97379814E-07 -5.05928957E-05
  8.20326674E-06  1.89534058E-06  4.88484983E-06 -2.01493754E-16 -9.55372317E-06
 -2.36327433E-06  1.41332882E-15  7.83028567E-05  1.43627990E-04 -8.07383517E-15
  6.23461570E-05 -2.80576519E-05 -2.06703889E-15 -1.43365323E-06 -6.02844194E-17
 -2.09599266E-16 -1.79245367E-06  7.23080922E-07  1.19523103E-05  9.91710722E-16
  6.89961715E-16  1.38606463E-05 -6.04964311E-06  2.24620953E-05  8.59742282E-16
  4.27697257E-15  6.78953909E-05 -3.10481037E-05 -3.66597589E-16  8.34511928E-07
  5.67214993E-07 -2.39071538E-17  7.71017984E-17 -3.80817168E-07 -6.56923385E-07
  8.59439255E-16 -4.89254716E-06 -1.16594240E-05  1.87390863E-15 -7.03929055E-16
 -6.10015651E-06 -7.56176877E-06 -1.53011601E-07 -1.12922368E-05 -4.01260058E-05
 -6.63251471E-05 -1.12922368E-05 -4.01260058E-05 -6.63251471E-05 -1.19781153E-07
  4.86571476E-07  1.85045238E-16 -5.22517549E-06 -4.00899375E-06 -9.36446387E-16
  3.87466493E-06  1.95109362E-06  2.17799204E-15 -1.19781152E-07  4.86571476E-07
 -2.76739775E-16 -5.22517549E-06 -4.00899374E-06 -1.74432579E-16  3.87466493E-06
  1.95109363E-06 -3.95739876E-16 -3.63304815E-07 -1.28126301E-16  1.53697507E-16
  4.10687550E-07  1.54640283E-08 -3.23515349E-06 -6.34157883E-16  9.93613273E-17
  4.30644010E-06 -2.33319503E-06 -3.63304814E-07  9.26241195E-16 -1.24476773E-16
  4.10687549E-07  1.54640281E-08 -3.23515349E-06  2.53070508E-17 -1.83400639E-16
  4.30644010E-06 -2.33319503E-06  9.83171925E-01 -2.62068288E-03  2.28914815E-02
 -5.95831461E-03  1.79935055E-03 -8.10277721E-04  1.10569784E-04  2.30536887E-04
 -1.15761738E-16 -1.31522817E-05 -3.85323996E-05 -4.66438413E-16  2.54643280E-05
  7.90863479E-05  2.96349855E-16  2.23936624E-05  1.05282889E-04  2.78324928E-16
 -1.52681174E-05 -1.31648157E-04 -6.50830556E-16 -5.20593910E-05 -2.71802333E-17
  7.14247991E-17 -5.99433919E-05  4.40747513E-05 -5.92674120E-06 -4.00988363E-17
 -1.59036016E-16 -7.18056504E-06  5.22843556E-06 -9.71097976E-06  3.22008914E-16
  6.75735202E-16 -2.22324546E-05  3.27160782E-06  4.15450708E-06 -3.27660012E-16
 -1.14742123E-15  1.56949231E-05  1.91312456E-06 -3.00154484E-16 -2.26012870E-07
 -3.18680013E-06 -2.30253593E-16  4.17485656E-17 -2.51044293E-06 -5.77150135E-06
  1.30724469E-16 -1.26955051E-06 -3.82031118E-06 -4.50496830E-17  6.69674264E-17
 -1.96406904E-06 -7.78528892E-07  2.74370261E-06  1.02300749E-04 -3.99222376E-05
  1.75581462E-04  1.02300749E-04 -3.99222376E-05  1.75581462E-04  1.94501491E-07
  1.36656566E-07 -6.25333169E-17 -2.26998687E-06  2.02049202E-06  2.42880862E-15
 -1.15565425E-05  1.59912706E-05  2.65096146E-15  1.94501491E-07  1.36656566E-07
 -6.25333169E-17 -2.26998687E-06  2.02049202E-06  2.42880862E-15 -1.15565425E-05
  1.59912706E-05  3.01678279E-15 -3.05380585E-06  2.12310460E-17  1.77397176E-16
 -4.17586579E-06  2.06222018E-06  1.43593419E-05  2.70448536E-16  2.14065399E-15
  1.85900234E-05 -1.46573589E-05 -3.05380585E-06  4.81018626E-17  1.62285744E-16
 -4.17586579E-06  2.06222018E-06  1.43593419E-05  2.86479699E-16  1.83442003E-15
  1.85900234E-05 -1.46573589E-05  7.32238249E-06  1.05644208E-05 -3.95642536E-06
  4.14034601E-05  7.23291565E-05  3.34921331E-06  1.45198343E-05 -2.68129753E-16
 -1.03326432E-05 -5.56487102E-06  3.03242553E-16  3.13414135E-05  4.13540506E-05
  1.82393007E-16  3.55923866E-06 -1.92108802E-05  1.85378897E-15 -7.29894764E-08
 -3.19081934E-16 -1.67803445E-16 -4.13721827E-07  3.05126851E-07  1.94101718E-06
  6.38822893E-16  3.80836707E-16  8.02311574E-07  3.87015249E-07  2.52599087E-06
  3.89489923E-16  6.93911503E-16  2.44959394E-05  2.78165011E-06 -2.63788156E-16
  9.02327618E-07  6.32656772E-07 -1.96097679E-16 -1.44657053E-16 -3.27949773E-07
  1.30946069E-07  2.93227050E-16 -2.99631730E-06 -3.54847258E-06  4.54030460E-17
 -7.22809097E-17  8.19485342E-07  1.09839953E-06 -1.09754242E-07 -4.60902434E-06
 -2.97966108E-05 -4.22585027E-06 -4.60902434E-06 -2.97966108E-05 -4.22585027E-06
 -1.88763761E-07 -2.00106727E-07  7.20855561E-16 -5.43882680E-06 -4.51810242E-06
 -1.96568164E-15  7.11595908E-06  9.58503997E-07  6.64531785E-16 -1.88763763E-07