 Entering Gaussian System, Link 0=g16
 Input=ihod_rOH_090_sp.gjf
 Output=ihod_rOH_090_sp.log
 Initial command:
 /sw/contrib/gaussian/g16/B01/g16/l1.exe "/scr/Gau-25151.inp" -scrdir="/scr/"
 Entering Link 1 = /sw/contrib/gaussian/g16/B01/g16/l1.exe PID=     25152.
  
 Copyright (c) 1988-2017, Gaussian, Inc.  All Rights Reserved.
  
 This is part of the Gaussian(R) 16 program.  It is based on
 the Gaussian(R) 09 system (copyright 2009, Gaussian, Inc.),
 the Gaussian(R) 03 system (copyright 2003, Gaussian, Inc.),
 the Gaussian(R) 98 system (copyright 1998, Gaussian, Inc.),
 the Gaussian(R) 94 system (copyright 1995, Gaussian, Inc.),
 the Gaussian 92(TM) system (copyright 1992, Gaussian, Inc.),
 the Gaussian 90(TM) system (copyright 1990, Gaussian, Inc.),
 the Gaussian 88(TM) system (copyright 1988, Gaussian, Inc.),
 the Gaussian 86(TM) system (copyright 1986, Carnegie Mellon
 University), and the Gaussian 82(TM) system (copyright 1983,
 Carnegie Mellon University). Gaussian is a federally registered
 trademark of Gaussian, Inc.
  
 This software contains proprietary and confidential information,
 including trade secrets, belonging to Gaussian, Inc.
  
 This software is provided under written license and may be
 used, copied, transmitted, or stored only in accord with that
 written license.
  
 The following legend is applicable only to US Government
 contracts under FAR:
  
                    RESTRICTED RIGHTS LEGEND
  
 Use, reproduction and disclosure by the US Government is
 subject to restrictions as set forth in subparagraphs (a)
 and (c) of the Commercial Computer Software - Restricted
 Rights clause in FAR 52.227-19.
  
 Gaussian, Inc.
 340 Quinnipiac St., Bldg. 40, Wallingford CT 06492
  
  
 ---------------------------------------------------------------
 Warning -- This program may not be used in any manner that
 competes with the business of Gaussian, Inc. or will provide
 assistance to any competitor of Gaussian, Inc.  The licensee
 of this program is prohibited from giving any competitor of
 Gaussian, Inc. access to this program.  By using this program,
 the user acknowledges that Gaussian, Inc. is engaged in the
 business of creating and licensing software in the field of
 computational chemistry and represents and warrants to the
 licensee that it is not a competitor of Gaussian, Inc. and that
 it will not use this program in any manner prohibited above.
 ---------------------------------------------------------------
  

 Cite this work as:
 Gaussian 16, Revision B.01,
 M. J. Frisch, G. W. Trucks, H. B. Schlegel, G. E. Scuseria, 
 M. A. Robb, J. R. Cheeseman, G. Scalmani, V. Barone, 
 G. A. Petersson, H. Nakatsuji, X. Li, M. Caricato, A. V. Marenich, 
 J. Bloino, B. G. Janesko, R. Gomperts, B. Mennucci, H. P. Hratchian, 
 J. V. Ortiz, A. F. Izmaylov, J. L. Sonnenberg, D. Williams-Young, 
 F. Ding, F. Lipparini, F. Egidi, J. Goings, B. Peng, A. Petrone, 
 T. Henderson, D. Ranasinghe, V. G. Zakrzewski, J. Gao, N. Rega, 
 G. Zheng, W. Liang, M. Hada, M. Ehara, K. Toyota, R. Fukuda, 
 J. Hasegawa, M. Ishida, T. Nakajima, Y. Honda, O. Kitao, H. Nakai, 
 T. Vreven, K. Throssell, J. A. Montgomery, Jr., J. E. Peralta, 
 F. Ogliaro, M. J. Bearpark, J. J. Heyd, E. N. Brothers, K. N. Kudin, 
 V. N. Staroverov, T. A. Keith, R. Kobayashi, J. Normand, 
 K. Raghavachari, A. P. Rendell, J. C. Burant, S. S. Iyengar, 
 J. Tomasi, M. Cossi, J. M. Millam, M. Klene, C. Adamo, R. Cammi, 
 J. W. Ochterski, R. L. Martin, K. Morokuma, O. Farkas, 
 J. B. Foresman, and D. J. Fox, Gaussian, Inc., Wallingford CT, 2016.
 
 ******************************************
 Gaussian 16:  ES64L-G16RevB.01 20-Dec-2017
                26-Oct-2021 
 ******************************************
 %nproc=28
 Will use up to   28 processors via shared memory.
 %mem=120GB
 %chk=/gscratch/ilahie/mccoygrp/coire_hocl/rOH_s_oop_0/ihod/ihod_rOH_090.chk
 --------------------------------------------------------
 #p pop=NBO SP NoSymm mp2/gen Pseudo=read density=current
 --------------------------------------------------------
 1/30=1,38=1,172=1/1;
 2/12=2,15=1,17=6,18=5,40=1/2;
 3/5=7,11=9,16=1,17=8,25=1,30=1,71=1/1,2,3;
 4//1;
 5/5=2,38=5/2;
 8/6=4,10=1/1;
 9/15=1,16=-3/6;
 10/5=1,13=10,31=1/2;
 6/7=2,8=2,9=2,10=2,22=-1,40=1/1,7;
 99/5=1,9=1/99;
 Leave Link    1 at Tue Oct 26 13:20:30 2021, MaxMem= 16106127360 cpu:               2.4 elap:               0.1
 (Enter /sw/contrib/gaussian/g16/B01/g16/l101.exe)
 -----
 title
 -----
 Symbolic Z-matrix:
 Charge = -1 Multiplicity = 1
 O
 X                    1     10. 
 H(iso=2)             1    r1       2     90. 
 I                    1    r2       2     90.      3    a1       0
 H                    1    r3       2    oop      3    a1       0
       Variables:
  r1                    0.96091                  
  r2                    3.5085                   
  r3                    0.9                      
  a1                  101.85832                  
  OOP                  90.                       
 
 ITRead=  0  0  0  0
 MicOpt= -1 -1 -1 -1
 NAtoms=      4 NQM=        4 NQMF=       0 NMMI=      0 NMMIF=      0
                NMic=       0 NMicF=      0.
                    Isotopes and Nuclear Properties:
 (Nuclear quadrupole moments (NQMom) in fm**2, nuclear magnetic moments (NMagM)
  in nuclear magnetons)

  Atom         1           2           3           4
 IAtWgt=          16           2         127           1
 AtmWgt=  15.9949146   2.0141018 126.9004000   1.0078250
 NucSpn=           0           2           5           1
 AtZEff=  -0.0000000  -0.0000000  -0.0000000  -0.0000000
 NQMom=    0.0000000   0.2860000 -71.0000000   0.0000000
 NMagM=    0.0000000   0.8574380   2.8132800   2.7928460
 AtZNuc=   8.0000000   1.0000000  53.0000000   1.0000000
 Leave Link  101 at Tue Oct 26 13:20:30 2021, MaxMem= 16106127360 cpu:               2.3 elap:               0.1
 (Enter /sw/contrib/gaussian/g16/B01/g16/l202.exe)
                          Input orientation:                          
 ---------------------------------------------------------------------
 Center     Atomic      Atomic             Coordinates (Angstroms)
 Number     Number       Type             X           Y           Z
 ---------------------------------------------------------------------
      1          8           0        0.000000    0.000000    0.000000
      2          1           0        0.960908    0.000000    0.000000
      3         53           0       -0.720970   -3.433626    0.000000
      4          1           0       -0.184943   -0.880793    0.000000
 ---------------------------------------------------------------------
                    Distance matrix (angstroms):
                    1          2          3          4
     1  O    0.000000
     2  H    0.960908   0.000000
     3  I    3.508501   3.823414   0.000000
     4  H    0.900000   1.445258   2.608501   0.000000
 Symmetry turned off by external request.
 Stoichiometry    H2IO(1-)
 Framework group  CS[SG(H2IO)]
 Deg. of freedom     5
 Full point group                 CS      NOp   2
 Rotational constants (GHZ):         322.5792192           2.5073858           2.4880464
 Leave Link  202 at Tue Oct 26 13:20:30 2021, MaxMem= 16106127360 cpu:               0.2 elap:               0.0
 (Enter /sw/contrib/gaussian/g16/B01/g16/l301.exe)
 General basis read from cards:  (5D, 7F)
 Centers:       1      2      4
 aug-cc-pVTZ
 ****
 Centers:       3
 S 11 1.00
     Exponent=  5.5465000000D+03 Coefficients=  1.5600000000D-04
     Exponent=  8.3821400000D+02 Coefficients=  9.8600000000D-04
     Exponent=  1.8218700000D+02 Coefficients=  2.7920000000D-03
     Exponent=  3.1212300000D+01 Coefficients= -4.3251000000D-02
     Exponent=  1.9531400000D+01 Coefficients=  2.3413400000D-01
     Exponent=  8.2409900000D+00 Coefficients= -7.5094300000D-01
     Exponent=  2.1945500000D+00 Coefficients=  8.8296800000D-01
     Exponent=  1.1091100000D+00 Coefficients=  4.6206100000D-01
     Exponent=  3.7464100000D-01 Coefficients=  2.2286000000D-02
     Exponent=  1.7708000000D-01 Coefficients= -4.3530000000D-03
     Exponent=  8.1061000000D-02 Coefficients=  1.1020000000D-03
 S 11 1.00
     Exponent=  5.5465000000D+03 Coefficients= -7.3000000000D-05
     Exponent=  8.3821400000D+02 Coefficients= -5.0800000000D-04
     Exponent=  1.8218700000D+02 Coefficients= -1.1580000000D-03
     Exponent=  3.1212300000D+01 Coefficients=  1.2193000000D-02
     Exponent=  1.9531400000D+01 Coefficients= -8.7854000000D-02
     Exponent=  8.2409900000D+00 Coefficients=  3.3820000000D-01
     Exponent=  2.1945500000D+00 Coefficients= -5.7655000000D-01
     Exponent=  1.1091100000D+00 Coefficients= -4.0929800000D-01
     Exponent=  3.7464100000D-01 Coefficients=  5.6745900000D-01
     Exponent=  1.7708000000D-01 Coefficients=  6.1248900000D-01
     Exponent=  8.1061000000D-02 Coefficients=  1.4323100000D-01
 S 1 1.00
     Exponent=  3.7464100000D-01 Coefficients=  1.0000000000D+00
 S 1 1.00
     Exponent=  1.7708000000D-01 Coefficients=  1.0000000000D+00
 S 1 1.00
     Exponent=  1.0010000000D-01 Coefficients=  1.0000000000D+00
 S 1 1.00
     Exponent=  4.1200000000D-02 Coefficients=  1.0000000000D+00
 P 9 1.00
     Exponent=  1.8898800000D+02 Coefficients=  5.8500000000D-04
     Exponent=  2.1286800000D+01 Coefficients=  3.6923000000D-02
     Exponent=  1.0039600000D+01 Coefficients= -2.3532400000D-01
     Exponent=  3.4518000000D+00 Coefficients=  3.4148300000D-01
     Exponent=  1.9745600000D+00 Coefficients=  5.3478800000D-01
     Exponent=  1.0242000000D+00 Coefficients=  2.6514100000D-01
     Exponent=  4.4943700000D-01 Coefficients=  2.5787000000D-02
     Exponent=  1.8664800000D-01 Coefficients=  5.2200000000D-04
     Exponent=  7.3481000000D-02 Coefficients=  6.0600000000D-04
 P 9 1.00
     Exponent=  1.8898800000D+02 Coefficients= -2.5600000000D-04
     Exponent=  2.1286800000D+01 Coefficients= -1.1682000000D-02
     Exponent=  1.0039600000D+01 Coefficients=  8.3192000000D-02
     Exponent=  3.4518000000D+00 Coefficients= -1.5697000000D-01
     Exponent=  1.9745600000D+00 Coefficients= -2.2451800000D-01
     Exponent=  1.0242000000D+00 Coefficients= -1.1445100000D-01
     Exponent=  4.4943700000D-01 Coefficients=  3.7535600000D-01
     Exponent=  1.8664800000D-01 Coefficients=  5.7513600000D-01
     Exponent=  7.3481000000D-02 Coefficients=  2.4591700000D-01
 P 1 1.00
     Exponent=  5.9810000000D-01 Coefficients=  1.0000000000D+00
 P 1 1.00
     Exponent=  9.6180000000D-02 Coefficients=  1.0000000000D+00
 P 1 1.00
     Exponent=  3.5900000000D-02 Coefficients=  1.0000000000D+00
 D 9 1.00
     Exponent=  1.3266200000D+02 Coefficients=  5.7200000000D-04
     Exponent=  3.7605400000D+01 Coefficients=  4.4020000000D-03
     Exponent=  1.0389100000D+01 Coefficients= -4.0922000000D-02
     Exponent=  6.4901700000D+00 Coefficients=  9.9661000000D-02
     Exponent=  3.4545100000D+00 Coefficients=  3.2266300000D-01
     Exponent=  1.8441300000D+00 Coefficients=  4.0034300000D-01
     Exponent=  9.6247800000D-01 Coefficients=  2.6830600000D-01
     Exponent=  4.7285300000D-01 Coefficients=  8.4847000000D-02
     Exponent=  1.9320000000D-01 Coefficients=  7.6320000000D-03
 D 1 1.00
     Exponent=  4.7285300000D-01 Coefficients=  1.0000000000D+00
 D 1 1.00
     Exponent=  1.9320000000D-01 Coefficients=  1.0000000000D+00
 D 1 1.00
     Exponent=  7.8200000000D-02 Coefficients=  1.0000000000D+00
 F 1 1.00
     Exponent=  4.0640000000D-01 Coefficients=  1.0000000000D+00
 F 1 1.00
     Exponent=  1.8480000000D-01 Coefficients=  1.0000000000D+00
 ****
 ======================================================================================================
                                       Pseudopotential Parameters
 ======================================================================================================
  Center     Atomic      Valence      Angular      Power
  Number     Number     Electrons     Momentum     of R      Exponent        Coefficient   SO-Coeffient
 ======================================================================================================
    1          8
                                   No pseudopotential on this center.
    2          1
                                   No pseudopotential on this center.
    3         53           25
                                      G and up 
                                                     2        1.0000000        0.00000000    0.00000000
                                      S - G
                                                     2       40.0333760       49.98964900    0.00000000
                                                     2       17.3005760      281.00655600    0.00000000
                                                     2        8.8517200       61.41673900    0.00000000
                                      P - G
                                                     2       15.7201410       67.41623900    0.00000000
                                                     2       15.2082220      134.80769600    0.00000000
                                                     2        8.2941860       14.56654800    0.00000000
                                                     2        7.7539490       28.96842200    0.00000000
                                      D - G
                                                     2       13.8177510       35.53875600    0.00000000
                                                     2       13.5878050       53.33975900    0.00000000
                                                     2        6.9476300        9.71646600    0.00000000
                                                     2        6.9600990       14.97750000    0.00000000
                                      F - G
                                                     2       18.5229500      -20.17661800    0.00000000
                                                     2       18.2510350      -26.08807700    0.00000000
                                                     2        7.5579010       -0.22043400    0.00000000
                                                     2        7.5974040       -0.22164600    0.00000000
    4          1
                                   No pseudopotential on this center.
 ======================================================================================================
 Ernie: Thresh=  0.10000D-02 Tol=  0.10000D-05 Strict=F.
 Ernie:  10 primitive shells out of 113 were deleted.
   147 basis functions,   296 primitive gaussians,   170 cartesian basis functions
    18 alpha electrons       18 beta electrons
       nuclear repulsion energy        48.1727842522 Hartrees.
 IExCor=    0 DFT=F Ex=HF Corr=None ExCW=0 ScaHFX=  1.000000
 ScaDFX=  1.000000  1.000000  1.000000  1.000000 ScalE2=  1.000000  1.000000
 IRadAn=      5 IRanWt=     -1 IRanGd=            0 ICorTp=0 IEmpDi=  4
 NAtoms=    4 NActive=    4 NUniq=    4 SFac= 1.00D+00 NAtFMM=   60 NAOKFM=F Big=F
 Integral buffers will be    131072 words long.
 Raffenetti 1 integral format.
 Two-electron integral symmetry is turned off.
 Leave Link  301 at Tue Oct 26 13:20:30 2021, MaxMem= 16106127360 cpu:               3.1 elap:               0.1
 (Enter /sw/contrib/gaussian/g16/B01/g16/l302.exe)
 NPDir=0 NMtPBC=     1 NCelOv=     1 NCel=       1 NClECP=     1 NCelD=      1
         NCelK=      1 NCelE2=     1 NClLst=     1 CellRange=     0.0.
 One-electron integrals computed using PRISM.
   1 Symmetry operations used in ECPInt.
 ECPInt:  NShTT=    1225 NPrTT=    5557 LenC2=    1226 LenP2D=    4932.
 LDataN:  DoStor=T MaxTD1= 7 Len=  274
 NBasis=   147 RedAO= T EigKep=  2.39D-04  NBF=   147
 NBsUse=   147 1.00D-06 EigRej= -1.00D+00 NBFU=   147
 Leave Link  302 at Tue Oct 26 13:20:30 2021, MaxMem= 16106127360 cpu:               7.4 elap:               0.3
 (Enter /sw/contrib/gaussian/g16/B01/g16/l303.exe)
 DipDrv:  MaxL=1.
 Leave Link  303 at Tue Oct 26 13:20:30 2021, MaxMem= 16106127360 cpu:               0.6 elap:               0.0
 (Enter /sw/contrib/gaussian/g16/B01/g16/l401.exe)
 ExpMin= 2.53D-02 ExpMax= 1.53D+04 ExpMxC= 5.22D+02 IAcc=3 IRadAn=         5 AccDes= 0.00D+00
 Harris functional with IExCor=  205 and IRadAn=       5 diagonalized for initial guess.
 HarFok:  IExCor=  205 AccDes= 0.00D+00 IRadAn=         5 IDoV= 1 UseB2=F ITyADJ=14
 ICtDFT=  3500011 ScaDFX=  1.000000  1.000000  1.000000  1.000000
 Defaulting to unpruned grid for atomic number  53.
 FoFCou: FMM=F IPFlag=           0 FMFlag=      100000 FMFlg1=           0
         NFxFlg=           0 DoJE=T BraDBF=F KetDBF=T FulRan=T
         wScrn=  0.000000 ICntrl=       500 IOpCl=  0 I1Cent=   200000004 NGrid=           0
         NMat0=    1 NMatS0=      1 NMatT0=    0 NMatD0=    1 NMtDS0=    0 NMtDT0=    0
 Symmetry not used in FoFCou.
 Harris En= -372.679920293473    
 JPrj=0 DoOrth=F DoCkMO=F.
 Leave Link  401 at Tue Oct 26 13:20:31 2021, MaxMem= 16106127360 cpu:               8.5 elap:               0.4
 (Enter /sw/contrib/gaussian/g16/B01/g16/l502.exe)
 Keep R1 ints in memory in canonical form, NReq=117069295.
 FoFCou: FMM=F IPFlag=           0 FMFlag=           0 FMFlg1=           0
         NFxFlg=           0 DoJE=F BraDBF=F KetDBF=F FulRan=T
         wScrn=  0.000000 ICntrl=       600 IOpCl=  0 I1Cent=           0 NGrid=           0
         NMat0=    1 NMatS0=  10878 NMatT0=    0 NMatD0=    1 NMtDS0=    0 NMtDT0=    0
 Symmetry not used in FoFCou.
 Two-electron integral symmetry not used.
 Closed shell SCF:
 Using DIIS extrapolation, IDIIS=  1040.
 NGot= 16106127360 LenX= 16046892795 LenY= 16046863454
 Requested convergence on RMS density matrix=1.00D-08 within 128 cycles.
 Requested convergence on MAX density matrix=1.00D-06.
 Requested convergence on             energy=1.00D-06.
 No special actions if energy rises.

 Cycle   1  Pass 1  IDiag  1:
 E= -370.648339121039    
 DIIS: error= 4.14D-02 at cycle   1 NSaved=   1.
 NSaved= 1 IEnMin= 1 EnMin= -370.648339121039     IErMin= 1 ErrMin= 4.14D-02
 ErrMax= 4.14D-02  0.00D+00 EMaxC= 1.00D-01 BMatC= 3.81D-01 BMatP= 3.81D-01
 IDIUse=3 WtCom= 5.86D-01 WtEn= 4.14D-01
 Coeff-Com:  0.100D+01
 Coeff-En:   0.100D+01
 Coeff:      0.100D+01
 Gap=     0.385 Goal=   None    Shift=    0.000
 GapD=    0.385 DampG=1.000 DampE=0.500 DampFc=0.5000 IDamp=-1.
 Damping current iteration by 5.00D-01
 RMSDP=3.63D-03 MaxDP=1.02D-01              OVMax= 1.31D-01

 Cycle   2  Pass 1  IDiag  1:
 E= -370.735347981203     Delta-E=       -0.087008860164 Rises=F Damp=T
 DIIS: error= 1.56D-02 at cycle   2 NSaved=   2.
 NSaved= 2 IEnMin= 2 EnMin= -370.735347981203     IErMin= 2 ErrMin= 1.56D-02
 ErrMax= 1.56D-02  0.00D+00 EMaxC= 1.00D-01 BMatC= 5.83D-02 BMatP= 3.81D-01
 IDIUse=3 WtCom= 8.44D-01 WtEn= 1.56D-01
 Coeff-Com: -0.455D+00 0.146D+01
 Coeff-En:   0.000D+00 0.100D+01
 Coeff:     -0.384D+00 0.138D+01
 Gap=     0.259 Goal=   None    Shift=    0.000
 RMSDP=1.64D-03 MaxDP=8.00D-02 DE=-8.70D-02 OVMax= 6.41D-02

 Cycle   3  Pass 1  IDiag  1:
 E= -370.813201065829     Delta-E=       -0.077853084626 Rises=F Damp=F
 DIIS: error= 4.15D-03 at cycle   3 NSaved=   3.
 NSaved= 3 IEnMin= 3 EnMin= -370.813201065829     IErMin= 3 ErrMin= 4.15D-03
 ErrMax= 4.15D-03  0.00D+00 EMaxC= 1.00D-01 BMatC= 1.79D-03 BMatP= 5.83D-02
 IDIUse=3 WtCom= 9.59D-01 WtEn= 4.15D-02
 Coeff-Com: -0.120D+00 0.240D+00 0.880D+00
 Coeff-En:   0.000D+00 0.000D+00 0.100D+01
 Coeff:     -0.115D+00 0.230D+00 0.885D+00
 Gap=     0.269 Goal=   None    Shift=    0.000
 RMSDP=3.92D-04 MaxDP=1.67D-02 DE=-7.79D-02 OVMax= 9.79D-03

 Cycle   4  Pass 1  IDiag  1:
 E= -370.814417986959     Delta-E=       -0.001216921130 Rises=F Damp=F
 DIIS: error= 5.46D-04 at cycle   4 NSaved=   4.
 NSaved= 4 IEnMin= 4 EnMin= -370.814417986959     IErMin= 4 ErrMin= 5.46D-04
 ErrMax= 5.46D-04  0.00D+00 EMaxC= 1.00D-01 BMatC= 4.57D-05 BMatP= 1.79D-03
 IDIUse=3 WtCom= 9.95D-01 WtEn= 5.46D-03
 Coeff-Com:  0.414D-02-0.216D-01 0.755D-01 0.942D+00
 Coeff-En:   0.000D+00 0.000D+00 0.000D+00 0.100D+01
 Coeff:      0.411D-02-0.215D-01 0.751D-01 0.942D+00
 Gap=     0.271 Goal=   None    Shift=    0.000
 RMSDP=1.01D-04 MaxDP=5.81D-03 DE=-1.22D-03 OVMax= 2.94D-03

 Cycle   5  Pass 1  IDiag  1:
 E= -370.814469646752     Delta-E=       -0.000051659793 Rises=F Damp=F
 DIIS: error= 1.61D-04 at cycle   5 NSaved=   5.
 NSaved= 5 IEnMin= 5 EnMin= -370.814469646752     IErMin= 5 ErrMin= 1.61D-04
 ErrMax= 1.61D-04  0.00D+00 EMaxC= 1.00D-01 BMatC= 3.77D-06 BMatP= 4.57D-05
 IDIUse=3 WtCom= 9.98D-01 WtEn= 1.61D-03
 Coeff-Com:  0.844D-02-0.147D-01-0.620D-01 0.162D-01 0.105D+01
 Coeff-En:   0.000D+00 0.000D+00 0.000D+00 0.000D+00 0.100D+01
 Coeff:      0.843D-02-0.146D-01-0.619D-01 0.162D-01 0.105D+01
 Gap=     0.270 Goal=   None    Shift=    0.000
 RMSDP=4.42D-05 MaxDP=1.58D-03 DE=-5.17D-05 OVMax= 1.16D-03

 Cycle   6  Pass 1  IDiag  1:
 E= -370.814477126309     Delta-E=       -0.000007479557 Rises=F Damp=F
 DIIS: error= 5.05D-05 at cycle   6 NSaved=   6.
 NSaved= 6 IEnMin= 6 EnMin= -370.814477126309     IErMin= 6 ErrMin= 5.05D-05
 ErrMax= 5.05D-05  0.00D+00 EMaxC= 1.00D-01 BMatC= 2.91D-07 BMatP= 3.77D-06
 IDIUse=1 WtCom= 1.00D+00 WtEn= 0.00D+00
 Coeff-Com: -0.310D-02 0.634D-02 0.117D-01-0.917D-01-0.202D+00 0.128D+01
 Coeff:     -0.310D-02 0.634D-02 0.117D-01-0.917D-01-0.202D+00 0.128D+01
 Gap=     0.270 Goal=   None    Shift=    0.000
 RMSDP=1.16D-05 MaxDP=6.86D-04 DE=-7.48D-06 OVMax= 6.11D-04

 Cycle   7  Pass 1  IDiag  1:
 E= -370.814477991874     Delta-E=       -0.000000865565 Rises=F Damp=F
 DIIS: error= 9.94D-06 at cycle   7 NSaved=   7.
 NSaved= 7 IEnMin= 7 EnMin= -370.814477991874     IErMin= 7 ErrMin= 9.94D-06
 ErrMax= 9.94D-06  0.00D+00 EMaxC= 1.00D-01 BMatC= 9.64D-09 BMatP= 2.91D-07
 IDIUse=1 WtCom= 1.00D+00 WtEn= 0.00D+00
 Coeff-Com:  0.307D-03-0.727D-03 0.221D-03 0.211D-01-0.166D-01-0.264D+00
 Coeff-Com:  0.126D+01
 Coeff:      0.307D-03-0.727D-03 0.221D-03 0.211D-01-0.166D-01-0.264D+00
 Coeff:      0.126D+01
 Gap=     0.270 Goal=   None    Shift=    0.000
 RMSDP=2.35D-06 MaxDP=1.08D-04 DE=-8.66D-07 OVMax= 1.18D-04

 Cycle   8  Pass 1  IDiag  1:
 E= -370.814478025217     Delta-E=       -0.000000033343 Rises=F Damp=F
 DIIS: error= 1.90D-06 at cycle   8 NSaved=   8.
 NSaved= 8 IEnMin= 8 EnMin= -370.814478025217     IErMin= 8 ErrMin= 1.90D-06
 ErrMax= 1.90D-06  0.00D+00 EMaxC= 1.00D-01 BMatC= 3.42D-10 BMatP= 9.64D-09
 IDIUse=1 WtCom= 1.00D+00 WtEn= 0.00D+00
 Coeff-Com:  0.105D-03-0.210D-03-0.454D-03 0.271D-02 0.845D-02-0.375D-01
 Coeff-Com: -0.664D-01 0.109D+01
 Coeff:      0.105D-03-0.210D-03-0.454D-03 0.271D-02 0.845D-02-0.375D-01
 Coeff:     -0.664D-01 0.109D+01
 Gap=     0.270 Goal=   None    Shift=    0.000
 RMSDP=5.10D-07 MaxDP=2.58D-05 DE=-3.33D-08 OVMax= 1.46D-05

 Cycle   9  Pass 1  IDiag  1:
 E= -370.814478026132     Delta-E=       -0.000000000915 Rises=F Damp=F
 DIIS: error= 4.91D-07 at cycle   9 NSaved=   9.
 NSaved= 9 IEnMin= 9 EnMin= -370.814478026132     IErMin= 9 ErrMin= 4.91D-07
 ErrMax= 4.91D-07  0.00D+00 EMaxC= 1.00D-01 BMatC= 2.73D-11 BMatP= 3.42D-10
 IDIUse=1 WtCom= 1.00D+00 WtEn= 0.00D+00
 Coeff-Com: -0.313D-04 0.711D-04 0.989D-05-0.173D-02 0.777D-03 0.210D-01
 Coeff-Com: -0.739D-01-0.140D+00 0.119D+01
 Coeff:     -0.313D-04 0.711D-04 0.989D-05-0.173D-02 0.777D-03 0.210D-01
 Coeff:     -0.739D-01-0.140D+00 0.119D+01
 Gap=     0.270 Goal=   None    Shift=    0.000
 RMSDP=1.11D-07 MaxDP=4.89D-06 DE=-9.15D-10 OVMax= 4.28D-06

 Cycle  10  Pass 1  IDiag  1:
 E= -370.814478026206     Delta-E=       -0.000000000074 Rises=F Damp=F
 DIIS: error= 1.02D-07 at cycle  10 NSaved=  10.
 NSaved=10 IEnMin=10 EnMin= -370.814478026206     IErMin=10 ErrMin= 1.02D-07
 ErrMax= 1.02D-07  0.00D+00 EMaxC= 1.00D-01 BMatC= 1.81D-12 BMatP= 2.73D-11
 IDIUse=1 WtCom= 1.00D+00 WtEn= 0.00D+00
 Coeff-Com: -0.904D-05 0.179D-04 0.317D-04-0.277D-03-0.566D-03 0.383D-02
 Coeff-Com: -0.290D-03-0.757D-01 0.789D-01 0.994D+00
 Coeff:     -0.904D-05 0.179D-04 0.317D-04-0.277D-03-0.566D-03 0.383D-02
 Coeff:     -0.290D-03-0.757D-01 0.789D-01 0.994D+00
 Gap=     0.270 Goal=   None    Shift=    0.000
 RMSDP=2.43D-08 MaxDP=1.15D-06 DE=-7.44D-11 OVMax= 8.32D-07

 Cycle  11  Pass 1  IDiag  1:
 E= -370.814478026210     Delta-E=       -0.000000000003 Rises=F Damp=F
 DIIS: error= 2.56D-08 at cycle  11 NSaved=  11.
 NSaved=11 IEnMin=11 EnMin= -370.814478026210     IErMin=11 ErrMin= 2.56D-08
 ErrMax= 2.56D-08  0.00D+00 EMaxC= 1.00D-01 BMatC= 1.18D-13 BMatP= 1.81D-12
 IDIUse=1 WtCom= 1.00D+00 WtEn= 0.00D+00
 Coeff-Com:  0.303D-05-0.681D-05-0.136D-05 0.158D-03-0.612D-04-0.182D-02
 Coeff-Com:  0.539D-02 0.171D-01-0.106D+00-0.786D-01 0.116D+01
 Coeff:      0.303D-05-0.681D-05-0.136D-05 0.158D-03-0.612D-04-0.182D-02
 Coeff:      0.539D-02 0.171D-01-0.106D+00-0.786D-01 0.116D+01
 Gap=     0.270 Goal=   None    Shift=    0.000
 RMSDP=1.51D-08 MaxDP=9.67D-07 DE=-3.47D-12 OVMax= 4.31D-07

 Cycle  12  Pass 1  IDiag  1:
 E= -370.814478026211     Delta-E=       -0.000000000001 Rises=F Damp=F
 DIIS: error= 4.61D-09 at cycle  12 NSaved=  12.
 NSaved=12 IEnMin=12 EnMin= -370.814478026211     IErMin=12 ErrMin= 4.61D-09
 ErrMax= 4.61D-09  0.00D+00 EMaxC= 1.00D-01 BMatC= 3.30D-15 BMatP= 1.18D-13
 IDIUse=1 WtCom= 1.00D+00 WtEn= 0.00D+00
 Coeff-Com: -0.550D-06 0.134D-05-0.530D-06-0.360D-04 0.414D-04 0.375D-03
 Coeff-Com: -0.145D-02-0.211D-02 0.269D-01-0.157D-01-0.298D+00 0.129D+01
 Coeff:     -0.550D-06 0.134D-05-0.530D-06-0.360D-04 0.414D-04 0.375D-03
 Coeff:     -0.145D-02-0.211D-02 0.269D-01-0.157D-01-0.298D+00 0.129D+01
 Gap=     0.270 Goal=   None    Shift=    0.000
 RMSDP=3.19D-09 MaxDP=2.01D-07 DE=-8.53D-13 OVMax= 8.24D-08

 SCF Done:  E(RHF) =  -370.814478026     A.U. after   12 cycles
            NFock= 12  Conv=0.32D-08     -V/T= 2.9829
 KE= 1.870065023052D+02 PE=-9.100891626078D+02 EE= 3.040953980242D+02
 Leave Link  502 at Tue Oct 26 13:20:33 2021, MaxMem= 16106127360 cpu:              31.1 elap:               2.1
 (Enter /sw/contrib/gaussian/g16/B01/g16/l801.exe)
 ExpMin= 2.53D-02 ExpMax= 1.53D+04 ExpMxC= 5.22D+02 IAcc=3 IRadAn=         5 AccDes= 0.00D+00
 HarFok:  IExCor=  205 AccDes= 0.00D+00 IRadAn=         5 IDoV=-2 UseB2=F ITyADJ=14
 ICtDFT= 12500011 ScaDFX=  1.000000  1.000000  1.000000  1.000000
 Defaulting to unpruned grid for atomic number  53.
 Largest valence mixing into a core orbital is  1.30D-04
 Largest core mixing into a valence orbital is  2.00D-05
 Range of M.O.s used for correlation:     6   147
 NBasis=   147 NAE=    18 NBE=    18 NFC=     5 NFV=     0
 NROrb=    142 NOA=    13 NOB=    13 NVA=   129 NVB=   129

 **** Warning!!: The largest alpha MO coefficient is  0.17264811D+02

 Leave Link  801 at Tue Oct 26 13:20:33 2021, MaxMem= 16106127360 cpu:               2.0 elap:               0.1
 (Enter /sw/contrib/gaussian/g16/B01/g16/l906.exe)
 Frozen-core derivative calculation, NFC=   5 NFV=   0.
 FulOut=F Deriv=T AODrv=F NAtomX=     4
   MMem=         225  MDisk=          13 MDiskD=          13
  W3Min=      449820 MinDsk=      818995 NBas6D=         170
 NBas2D=       14925    NTT=       14535    LW2=    26219120
    MDV= 16105851715 MDiskM=      473642 NBas2p=       14925
 Fully in-core method, ICMem=   303093605.
 IMap=   1   2   3   4   5   6   7   8   9  10  11  12  13  14  15  16  17  18
 JobTyp=1 Pass  1 fully in-core, NPsUse= 28.
 Compute canonical integrals.
 FoFCou: FMM=F IPFlag=           0 FMFlag=           0 FMFlg1=           0
         NFxFlg=           0 DoJE=F BraDBF=F KetDBF=F FulRan=T
         wScrn=  0.000000 ICntrl=       600 IOpCl=  1 I1Cent=           0 NGrid=           0
         NMat0=    1 NMatS0=  14925 NMatT0=    0 NMatD0=    1 NMtDS0=    0 NMtDT0=    0
 Symmetry not used in FoFCou.
 Spin components of T(2) and E(2):
     alpha-alpha T2 =       0.2119523453D-01 E2=     -0.6677620145D-01
     alpha-beta  T2 =       0.1109575542D+00 E2=     -0.3591849142D+00
     beta-beta   T2 =       0.2119523453D-01 E2=     -0.6677620145D-01
 The integrals were generated   1 times.
 ANorm=    0.1073940419D+01
 E2 =    -0.4927373171D+00 EUMP2 =    -0.37130721534332D+03
 Leave Link  906 at Tue Oct 26 13:20:36 2021, MaxMem= 16106127360 cpu:              82.7 elap:               3.0
 (Enter /sw/contrib/gaussian/g16/B01/g16/l1002.exe)
 Minotr:  Closed shell wavefunction.
          Computing MP2/KS-MP2 derivatives.
          Using Z-Vector for PSCF gradient.
          Skipping F1 and S1 gradient terms here.
          Frozen-core window.
          Direct CPHF calculation.
          Differentiating once with respect to electric field.
                with respect to dipole field.
          Electric field/nuclear overlap derivatives assumed to be zero.
          Requested convergence is 1.0D-10 RMS, and 1.0D-09 maximum.
          NewPWx=F KeepS1=T KeepF1=T KeepIn=T MapXYZ=F SortEE=F KeepMc=T.
 Keep R1 ints in memory in canonical form, NReq=117071983.
 FoFCou: FMM=F IPFlag=           0 FMFlag=           0 FMFlg1=           0
         NFxFlg=           0 DoJE=F BraDBF=F KetDBF=F FulRan=T
         wScrn=  0.000000 ICntrl=       600 IOpCl=  0 I1Cent=           0 NGrid=           0
         NMat0=    1 NMatS0=  10878 NMatT0=    0 NMatD0=    1 NMtDS0=    0 NMtDT0=    0
 Symmetry not used in FoFCou.
 Two-electron integral symmetry not used.
          MDV=   16106127360 using IRadAn=       5.
          Solving linear equations separately, MaxMat=       0.
          There are     1 degrees of freedom in the 1st order CPHF.  IDoFFX=0 NUNeed=     1.
 LinEq1:  Iter=  0 NonCon=     1 RMS=2.52D-03 Max=4.17D-02 NDo=     1
 AX will form     1 AO Fock derivatives at one time.
 LinEq1:  Iter=  1 NonCon=     1 RMS=3.99D-04 Max=4.24D-03 NDo=     1
 LinEq1:  Iter=  2 NonCon=     1 RMS=1.82D-04 Max=2.58D-03 NDo=     1
 LinEq1:  Iter=  3 NonCon=     1 RMS=3.95D-05 Max=5.82D-04 NDo=     1
 LinEq1:  Iter=  4 NonCon=     1 RMS=1.10D-05 Max=1.17D-04 NDo=     1
 LinEq1:  Iter=  5 NonCon=     1 RMS=2.95D-06 Max=3.78D-05 NDo=     1
 LinEq1:  Iter=  6 NonCon=     1 RMS=6.06D-07 Max=8.80D-06 NDo=     1
 LinEq1:  Iter=  7 NonCon=     1 RMS=1.35D-07 Max=2.03D-06 NDo=     1
 LinEq1:  Iter=  8 NonCon=     1 RMS=3.85D-08 Max=5.07D-07 NDo=     1
 LinEq1:  Iter=  9 NonCon=     1 RMS=7.50D-09 Max=1.14D-07 NDo=     1
 LinEq1:  Iter= 10 NonCon=     1 RMS=1.23D-09 Max=1.54D-08 NDo=     1
 LinEq1:  Iter= 11 NonCon=     1 RMS=2.01D-10 Max=3.38D-09 NDo=     1
 LinEq1:  Iter= 12 NonCon=     0 RMS=5.23D-11 Max=8.51D-10 NDo=     1
 Linear equations converged to 1.000D-10 1.000D-09 after    12 iterations.
 End of Minotr F.D. properties file   721 does not exist.
 End of Minotr F.D. properties file   722 does not exist.
 End of Minotr F.D. properties file   788 does not exist.
 Leave Link 1002 at Tue Oct 26 13:20:38 2021, MaxMem= 16106127360 cpu:              34.1 elap:               2.4
 (Enter /sw/contrib/gaussian/g16/B01/g16/l601.exe)
 Copying SCF densities to generalized density rwf, IOpCl= 0 IROHF=0.

 **********************************************************************

            Population analysis using the MP2 Density.

 **********************************************************************

 Alpha  occ. eigenvalues --  -20.40211  -7.46423  -5.28972  -5.28954  -5.28952
 Alpha  occ. eigenvalues --   -2.01713  -2.01704  -2.01699  -2.01681  -2.01681
 Alpha  occ. eigenvalues --   -1.21163  -0.62574  -0.56801  -0.44073  -0.35603
 Alpha  occ. eigenvalues --   -0.14473  -0.13977  -0.13941
 Alpha virt. eigenvalues --    0.13102   0.16925   0.23388   0.24546   0.25327
 Alpha virt. eigenvalues --    0.26842   0.28485   0.28978   0.31299   0.33449
 Alpha virt. eigenvalues --    0.36732   0.37277   0.37610   0.39593   0.40915
 Alpha virt. eigenvalues --    0.41858   0.44856   0.47524   0.54071   0.54661
 Alpha virt. eigenvalues --    0.56934   0.60153   0.66637   0.71269   0.77754
 Alpha virt. eigenvalues --    0.78191   0.78509   0.79869   0.80215   0.80268
 Alpha virt. eigenvalues --    0.82720   0.84483   0.85473   0.85823   0.87070
 Alpha virt. eigenvalues --    0.87531   0.88615   0.88850   0.89418   0.90054
 Alpha virt. eigenvalues --    0.92614   0.97320   1.00007   1.06806   1.06949
 Alpha virt. eigenvalues --    1.09011   1.09941   1.12902   1.14440   1.14553
 Alpha virt. eigenvalues --    1.16909   1.19528   1.33298   1.37083   1.38508
 Alpha virt. eigenvalues --    1.40539   1.47907   1.53137   1.54230   1.67552
 Alpha virt. eigenvalues --    1.73314   1.75365   1.75417   1.76286   1.77197
 Alpha virt. eigenvalues --    1.78283   1.81321   1.85031   1.88066   1.89493
 Alpha virt. eigenvalues --    2.01585   2.05198   2.05816   2.08835   2.10890
 Alpha virt. eigenvalues --    2.11034   2.16321   2.27137   2.43651   2.51684
 Alpha virt. eigenvalues --    2.57274   2.58619   2.61297   2.63867   2.72969
 Alpha virt. eigenvalues --    2.83625   2.85656   2.87787   2.98170   3.05360
 Alpha virt. eigenvalues --    3.07679   3.24697   3.26984   3.85377   3.88536
 Alpha virt. eigenvalues --    4.22337   4.23086   4.33681   4.37018   4.43570
 Alpha virt. eigenvalues --    4.49840   4.56959   4.57088   4.63248   4.76292
 Alpha virt. eigenvalues --    4.96976   5.20682   5.37339   5.38459   5.49791
 Alpha virt. eigenvalues --    5.73948   5.81242   5.94465   6.45334   6.68008
 Alpha virt. eigenvalues --    6.89379   7.19785   7.30542   7.43033   7.48773
 Alpha virt. eigenvalues --    7.52567   7.58160   7.65549   7.95282   8.09136
 Alpha virt. eigenvalues --    8.33371   9.14051  17.92974  59.22203
          Condensed to atoms (all electrons):
               1          2          3          4
     1  O    8.172051   0.236057  -0.050553   0.106300
     2  H    0.236057   0.603100   0.008484  -0.017090
     3  I   -0.050553   0.008484  25.946570   0.033152
     4  H    0.106300  -0.017090   0.033152   0.645581
 Mulliken charges:
               1
     1  O   -0.463854
     2  H    0.169450
     3  I   -0.937653
     4  H    0.232058
 Sum of Mulliken charges =  -1.00000
 Mulliken charges with hydrogens summed into heavy atoms:
               1
     1  O   -0.062347
     3  I   -0.937653
 Electronic spatial extent (au):  <R**2>=           1236.2199
 Charge=             -1.0000 electrons
 Dipole moment (field-independent basis, Debye):
    X=              4.2532    Y=             14.0037    Z=              0.0000  Tot=             14.6354
 Quadrupole moment (field-independent basis, Debye-Ang):
   XX=            -41.4272   YY=            -92.9865   ZZ=            -41.8828
   XY=            -10.1348   XZ=              0.0000   YZ=             -0.0000
 Traceless Quadrupole moment (field-independent basis, Debye-Ang):
   XX=             17.3383   YY=            -34.2209   ZZ=             16.8827
   XY=            -10.1348   XZ=              0.0000   YZ=             -0.0000
 Octapole moment (field-independent basis, Debye-Ang**2):
  XXX=             74.6494  YYY=            529.2350  ZZZ=              0.0000  XYY=             59.8071
  XXY=            124.2472  XXZ=             -0.0000  XZZ=             23.7251  YZZ=            116.8536
  YYZ=              0.0000  XYZ=              0.0000
 Hexadecapole moment (field-independent basis, Debye-Ang**3):
 XXXX=           -181.3818 YYYY=          -3080.8675 ZZZZ=            -76.9156 XXXY=           -255.0393
 XXXZ=              0.0000 YYYX=           -372.2895 YYYZ=             -0.0000 ZZZX=              0.0000
 ZZZY=             -0.0000 XXYY=           -467.9953 XXZZ=            -43.2501 YYZZ=           -425.5831
 XXYZ=             -0.0000 YYXZ=             -0.0000 ZZXY=            -83.3584
 N-N= 4.817278425218D+01 E-N=-9.095163346208D+02  KE= 1.871855552636D+02
 No NMR shielding tensors so no spin-rotation constants.
 Leave Link  601 at Tue Oct 26 13:20:39 2021, MaxMem= 16106127360 cpu:               4.8 elap:               0.2
 (Enter /sw/contrib/gaussian/g16/B01/g16/l607.exe)
 ******************************Gaussian NBO Version 3.1******************************
             N A T U R A L   A T O M I C   O R B I T A L   A N D
          N A T U R A L   B O N D   O R B I T A L   A N A L Y S I S
 ******************************Gaussian NBO Version 3.1******************************
       /RESON  / : Allow strongly delocalized NBO set

 Analyzing the MP2 density

 Job title: title                                                           

 Storage needed:     65577 in NPA,     86948 in NBO (********** available)
 GSVD:  LWork=         -15 too small for GESVD, short by       42345 words or       42345 for optimal perf.


 NATURAL POPULATIONS:  Natural atomic orbital occupancies 
                                                          
   NAO  Atom  No  lang   Type(AO)    Occupancy
 --------------------------------------------
     1    O    1  S      Cor( 1S)     1.99964
     2    O    1  S      Val( 2S)     1.71632
     3    O    1  S      Ryd( 3S)     0.00565
     4    O    1  S      Ryd( 4S)     0.00052
     5    O    1  S      Ryd( 5S)     0.00020
     6    O    1  px     Val( 2p)     1.52429
     7    O    1  px     Ryd( 3p)     0.00918
     8    O    1  px     Ryd( 4p)     0.00051
     9    O    1  px     Ryd( 5p)     0.00007
    10    O    1  py     Val( 2p)     1.65087
    11    O    1  py     Ryd( 3p)     0.01129
    12    O    1  py     Ryd( 4p)     0.00060
    13    O    1  py     Ryd( 5p)     0.00009
    14    O    1  pz     Val( 2p)     1.95419
    15    O    1  pz     Ryd( 3p)     0.02012
    16    O    1  pz     Ryd( 4p)     0.00060
    17    O    1  pz     Ryd( 5p)     0.00002
    18    O    1  dxy    Ryd( 3d)     0.00830
    19    O    1  dxy    Ryd( 4d)     0.00040
    20    O    1  dxy    Ryd( 5d)     0.00007
    21    O    1  dxz    Ryd( 3d)     0.00792
    22    O    1  dxz    Ryd( 4d)     0.00042
    23    O    1  dxz    Ryd( 5d)     0.00006
    24    O    1  dyz    Ryd( 3d)     0.00801
    25    O    1  dyz    Ryd( 4d)     0.00045
    26    O    1  dyz    Ryd( 5d)     0.00009
    27    O    1  dx2y2  Ryd( 3d)     0.01183
    28    O    1  dx2y2  Ryd( 4d)     0.00025
    29    O    1  dx2y2  Ryd( 5d)     0.00008
    30    O    1  dz2    Ryd( 3d)     0.00905
    31    O    1  dz2    Ryd( 4d)     0.00040
    32    O    1  dz2    Ryd( 5d)     0.00009
    33    O    1  f(0)   Ryd( 4f)     0.00065
    34    O    1  f(0)   Ryd( 5f)     0.00010
    35    O    1  f(C1)  Ryd( 4f)     0.00056
    36    O    1  f(C1)  Ryd( 5f)     0.00008
    37    O    1  f(S1)  Ryd( 4f)     0.00053
    38    O    1  f(S1)  Ryd( 5f)     0.00008
    39    O    1  f(C2)  Ryd( 4f)     0.00045
    40    O    1  f(C2)  Ryd( 5f)     0.00008
    41    O    1  f(S2)  Ryd( 4f)     0.00046
    42    O    1  f(S2)  Ryd( 5f)     0.00007
    43    O    1  f(C3)  Ryd( 4f)     0.00040
    44    O    1  f(C3)  Ryd( 5f)     0.00011
    45    O    1  f(S3)  Ryd( 4f)     0.00038
    46    O    1  f(S3)  Ryd( 5f)     0.00010

    47    H    2  S      Val( 1S)     0.54642
    48    H    2  S      Ryd( 2S)     0.00152
    49    H    2  S      Ryd( 3S)     0.00022
    50    H    2  S      Ryd( 4S)     0.00008
    51    H    2  px     Ryd( 2p)     0.00134
    52    H    2  px     Ryd( 3p)     0.00048
    53    H    2  px     Ryd( 4p)     0.00014
    54    H    2  py     Ryd( 2p)     0.00185
    55    H    2  py     Ryd( 3p)     0.00022
    56    H    2  py     Ryd( 4p)     0.00009
    57    H    2  pz     Ryd( 2p)     0.00486
    58    H    2  pz     Ryd( 3p)     0.00018
    59    H    2  pz     Ryd( 4p)     0.00005
    60    H    2  dxy    Ryd( 3d)     0.00006
    61    H    2  dxy    Ryd( 4d)     0.00005
    62    H    2  dxz    Ryd( 3d)     0.00008
    63    H    2  dxz    Ryd( 4d)     0.00006
    64    H    2  dyz    Ryd( 3d)     0.00011
    65    H    2  dyz    Ryd( 4d)     0.00003
    66    H    2  dx2y2  Ryd( 3d)     0.00009
    67    H    2  dx2y2  Ryd( 4d)     0.00004
    68    H    2  dz2    Ryd( 3d)     0.00011
    69    H    2  dz2    Ryd( 4d)     0.00006

    70    I    3  S      Cor( 4S)     2.00003
    71    I    3  S      Val( 5S)     1.97951
    72    I    3  S      Ryd( 6S)     0.00317
    73    I    3  S      Ryd( 7S)     0.00055
    74    I    3  S      Ryd( 8S)     0.00008
    75    I    3  S      Ryd( 9S)     0.00000
    76    I    3  px     Cor( 4p)     2.00007
    77    I    3  px     Val( 5p)     1.95046
    78    I    3  px     Ryd( 6p)     0.01107
    79    I    3  px     Ryd( 7p)     0.00075
    80    I    3  px     Ryd( 8p)     0.00008
    81    I    3  py     Cor( 4p)     2.00004
    82    I    3  py     Val( 5p)     1.93276
    83    I    3  py     Ryd( 6p)     0.01006
    84    I    3  py     Ryd( 7p)     0.00067
    85    I    3  py     Ryd( 8p)     0.00016
    86    I    3  pz     Cor( 4p)     2.00007
    87    I    3  pz     Val( 5p)     1.95165
    88    I    3  pz     Ryd( 6p)     0.01107
    89    I    3  pz     Ryd( 7p)     0.00075
    90    I    3  pz     Ryd( 8p)     0.00008
    91    I    3  dxy    Cor( 4d)     1.99675
    92    I    3  dxy    Ryd( 5d)     0.02031
    93    I    3  dxy    Ryd( 6d)     0.00144
    94    I    3  dxy    Ryd( 7d)     0.00018
    95    I    3  dxz    Cor( 4d)     1.99678
    96    I    3  dxz    Ryd( 5d)     0.02020
    97    I    3  dxz    Ryd( 6d)     0.00167
    98    I    3  dxz    Ryd( 7d)     0.00017
    99    I    3  dyz    Cor( 4d)     1.99676
   100    I    3  dyz    Ryd( 5d)     0.02027
   101    I    3  dyz    Ryd( 6d)     0.00143
   102    I    3  dyz    Ryd( 7d)     0.00017
   103    I    3  dx2y2  Cor( 4d)     1.99672
   104    I    3  dx2y2  Ryd( 5d)     0.02006
   105    I    3  dx2y2  Ryd( 6d)     0.00161
   106    I    3  dx2y2  Ryd( 7d)     0.00020
   107    I    3  dz2    Cor( 4d)     1.99676
   108    I    3  dz2    Ryd( 5d)     0.02016
   109    I    3  dz2    Ryd( 6d)     0.00166
   110    I    3  dz2    Ryd( 7d)     0.00017
   111    I    3  f(0)   Ryd( 4f)     0.00274
   112    I    3  f(0)   Ryd( 5f)     0.00043
   113    I    3  f(C1)  Ryd( 4f)     0.00276
   114    I    3  f(C1)  Ryd( 5f)     0.00043
   115    I    3  f(S1)  Ryd( 4f)     0.00276
   116    I    3  f(S1)  Ryd( 5f)     0.00045
   117    I    3  f(C2)  Ryd( 4f)     0.00272
   118    I    3  f(C2)  Ryd( 5f)     0.00043
   119    I    3  f(S2)  Ryd( 4f)     0.00278
   120    I    3  f(S2)  Ryd( 5f)     0.00044
   121    I    3  f(C3)  Ryd( 4f)     0.00270
   122    I    3  f(C3)  Ryd( 5f)     0.00043
   123    I    3  f(S3)  Ryd( 4f)     0.00273
   124    I    3  f(S3)  Ryd( 5f)     0.00045

   125    H    4  S      Val( 1S)     0.50674
   126    H    4  S      Ryd( 2S)     0.00592
   127    H    4  S      Ryd( 3S)     0.00035
   128    H    4  S      Ryd( 4S)     0.00016
   129    H    4  px     Ryd( 2p)     0.00332
   130    H    4  px     Ryd( 3p)     0.00039
   131    H    4  px     Ryd( 4p)     0.00009
   132    H    4  py     Ryd( 2p)     0.00400
   133    H    4  py     Ryd( 3p)     0.00051
   134    H    4  py     Ryd( 4p)     0.00025
   135    H    4  pz     Ryd( 2p)     0.00394
   136    H    4  pz     Ryd( 3p)     0.00045
   137    H    4  pz     Ryd( 4p)     0.00009
   138    H    4  dxy    Ryd( 3d)     0.00019
   139    H    4  dxy    Ryd( 4d)     0.00008
   140    H    4  dxz    Ryd( 3d)     0.00013
   141    H    4  dxz    Ryd( 4d)     0.00007
   142    H    4  dyz    Ryd( 3d)     0.00019
   143    H    4  dyz    Ryd( 4d)     0.00008
   144    H    4  dx2y2  Ryd( 3d)     0.00018
   145    H    4  dx2y2  Ryd( 4d)     0.00010
   146    H    4  dz2    Ryd( 3d)     0.00016
   147    H    4  dz2    Ryd( 4d)     0.00009

 [ 28 electrons found in the effective core potential]

 WARNING:  5 low occupancy (<1.9990e) core orbitals found on  I    3


 Summary of Natural Population Analysis:                  
                                                          
                                       Natural Population 
                Natural  -----------------------------------------------
    Atom  No    Charge         Core      Valence    Rydberg      Total
 -----------------------------------------------------------------------
      O    1   -0.94562      1.99964     6.84567    0.10031     8.94562
      H    2    0.44187      0.00000     0.54642    0.01171     0.55813
      I    3   -0.96876     45.98398     7.81437    0.17041    53.96876
      H    4    0.47251      0.00000     0.50674    0.02075     0.52749
 =======================================================================
   * Total *   -1.00000     47.98362    15.71321    0.30317    64.00000

                                 Natural Population      
 --------------------------------------------------------
   Effective Core            28.00000
   Core                      19.98362 ( 99.9181% of  20)
   Valence                   15.71321 ( 98.2075% of  16)
   Natural Minimal Basis     63.69683 ( 99.5263% of  64)
   Natural Rydberg Basis      0.30317 (  0.4737% of  64)
 --------------------------------------------------------

    Atom  No          Natural Electron Configuration
 ----------------------------------------------------------------------------
      O    1      [core]2S( 1.72)2p( 5.13)3S( 0.01)3p( 0.04)3d( 0.05)
      H    2            1S( 0.55)2p( 0.01)
      I    3      [core]5S( 1.98)5p( 5.83)4f( 0.02)5d( 0.10)6p( 0.03)6d( 0.01)
      H    4            1S( 0.51)2S( 0.01)2p( 0.01)


 NATURAL BOND ORBITAL ANALYSIS:
 Warning:  a bond orbital has occupanc of -0.00001

                       Occupancies       Lewis Structure    Low   High
           Occ.    -------------------  -----------------   occ   occ
  Cycle   Thresh.   Lewis   Non-Lewis     CR  BD  3C  LP    (L)   (NL)   Dev
 =============================================================================
   1(1)    1.90    63.66789   0.33211     10   2   0   6     0      0    0.03
 -----------------------------------------------------------------------------

 Structure accepted: No low occupancy Lewis orbitals

 WARNING:  5 low occupancy (<1.9990e) core orbitals found on  I    3

 --------------------------------------------------------
   Effective Core           28.00000
   Core                     19.98362 ( 99.918% of  20)
   Valence Lewis            15.68427 ( 98.027% of  16)
  ==================       ============================
   Total Lewis              63.66789 ( 99.481% of  64)
  -----------------------------------------------------
   Valence non-Lewis         0.05615 (  0.088% of  64)
   Rydberg non-Lewis         0.27595 (  0.431% of  64)
  ==================       ============================
   Total non-Lewis           0.33211 (  0.519% of  64)
 --------------------------------------------------------


       (Occupancy)   Bond orbital/ Coefficients/ Hybrids
 ---------------------------------------------------------------------------------
     1. (1.96683) BD ( 1) O   1 - H   2  
                ( 72.97%)   0.8542* O   1 s( 20.98%)p 3.75( 78.57%)d 0.02(  0.44%)
                                                  f 0.00(  0.01%)
                                            0.0002  0.4580 -0.0026 -0.0009 -0.0021
                                            0.8835 -0.0284  0.0092 -0.0023  0.0633
                                           -0.0165  0.0011 -0.0025  0.0000  0.0000
                                            0.0000  0.0000 -0.0216  0.0032  0.0006
                                            0.0000  0.0000  0.0000  0.0000  0.0000
                                            0.0000  0.0513 -0.0033 -0.0034 -0.0351
                                            0.0026  0.0001  0.0000  0.0000 -0.0099
                                            0.0002  0.0000 -0.0002  0.0000  0.0000
                                            0.0000  0.0000  0.0030  0.0035  0.0024
                                           -0.0007
                ( 27.03%)   0.5199* H   2 s( 99.90%)p 0.00(  0.10%)d 0.00(  0.00%)
                                            0.9995  0.0031 -0.0002  0.0002  0.0139
                                            0.0256 -0.0051 -0.0100 -0.0046 -0.0026
                                            0.0000  0.0000  0.0000 -0.0005 -0.0023
                                            0.0000  0.0000  0.0000  0.0000 -0.0023
                                           -0.0010 -0.0009  0.0012
     2. (1.97149) BD ( 1) O   1 - H   4  
                ( 75.63%)   0.8696* O   1 s( 29.38%)p 2.39( 70.20%)d 0.01(  0.41%)
                                                  f 0.00(  0.01%)
                                           -0.0003 -0.5419  0.0078  0.0013  0.0027
                                            0.2203 -0.0207  0.0016 -0.0011  0.8077
                                           -0.0248  0.0064 -0.0012  0.0000  0.0000
                                            0.0000  0.0000  0.0005 -0.0032 -0.0013
                                            0.0000  0.0000  0.0000  0.0000  0.0000
                                            0.0000  0.0530 -0.0020 -0.0013  0.0363
                                           -0.0010  0.0013  0.0000  0.0000 -0.0019
                                           -0.0002 -0.0084 -0.0004  0.0000  0.0000
                                            0.0000  0.0000 -0.0028 -0.0022 -0.0016
                                           -0.0029
                ( 24.37%)   0.4937* H   4 s( 99.91%)p 0.00(  0.08%)d 0.00(  0.00%)
                                           -0.9994 -0.0163 -0.0001 -0.0004 -0.0148
                                           -0.0022 -0.0013 -0.0025 -0.0220 -0.0104
                                            0.0000  0.0000  0.0000  0.0017  0.0009
                                            0.0000  0.0000  0.0000  0.0000 -0.0039
                                            0.0022 -0.0009  0.0028
     3. (1.99964) CR ( 1) O   1           s(100.00%)
                                            1.0000 -0.0004  0.0000  0.0000  0.0000
                                           -0.0001  0.0000 -0.0000  0.0000  0.0001
                                           -0.0000  0.0000  0.0000  0.0000  0.0000
                                            0.0000  0.0000 -0.0000 -0.0000 -0.0000
                                            0.0000  0.0000  0.0000  0.0000  0.0000
                                            0.0000  0.0000  0.0000  0.0000  0.0000
                                           -0.0000  0.0000  0.0000  0.0000  0.0000
                                            0.0000 -0.0000 -0.0000  0.0000  0.0000
                                            0.0000  0.0000 -0.0000 -0.0000 -0.0000
                                           -0.0000
     4. (2.00003) CR ( 1) I   3           s(100.00%)
                                            1.0000 -0.0000 -0.0000 -0.0000  0.0000
                                            0.0000 -0.0000  0.0000  0.0000 -0.0000
                                           -0.0000 -0.0000  0.0000 -0.0000 -0.0000
                                            0.0000  0.0000  0.0000  0.0000  0.0000
                                            0.0000 -0.0000  0.0000 -0.0000  0.0000
                                            0.0000  0.0000  0.0000  0.0000  0.0000
                                            0.0000  0.0000  0.0000  0.0000 -0.0000
                                            0.0000  0.0000  0.0000 -0.0000  0.0000
                                           -0.0000  0.0000  0.0000 -0.0000 -0.0000
                                           -0.0000 -0.0000  0.0000  0.0000  0.0000
                                            0.0000 -0.0000 -0.0000 -0.0000 -0.0000
     5. (2.00007) CR ( 2) I   3           s(  0.00%)p 1.00(100.00%)
                                           -0.0000  0.0000  0.0000 -0.0000  0.0000
                                           -0.0000  1.0000 -0.0001 -0.0000 -0.0000
                                            0.0000 -0.0000  0.0000 -0.0000 -0.0000
                                            0.0000  0.0000  0.0000  0.0000  0.0000
                                            0.0000 -0.0000 -0.0000  0.0000  0.0000
                                            0.0000  0.0000  0.0000  0.0000  0.0000
                                            0.0000  0.0000  0.0000  0.0000 -0.0000
                                            0.0000 -0.0000  0.0000 -0.0000  0.0000
                                            0.0000  0.0000  0.0000  0.0000  0.0000
                                           -0.0000 -0.0000  0.0000  0.0000  0.0000
                                            0.0000  0.0000  0.0000 -0.0000 -0.0000
     6. (2.00004) CR ( 3) I   3           s(  0.00%)p 1.00(100.00%)
                                           -0.0000  0.0000 -0.0000 -0.0000  0.0000
                                            0.0000 -0.0000  0.0000  0.0000 -0.0000
                                           -0.0000  1.0000  0.0001 -0.0000 -0.0000
                                            0.0000  0.0000  0.0000  0.0000  0.0000
                                            0.0000 -0.0000  0.0000 -0.0000  0.0000
                                            0.0000  0.0000  0.0000  0.0000  0.0000
                                            0.0000  0.0000  0.0000  0.0000 -0.0000
                                            0.0000  0.0000  0.0000 -0.0000  0.0000
                                           -0.0000  0.0000  0.0000 -0.0000 -0.0000
                                           -0.0000 -0.0000  0.0000  0.0000  0.0000
                                            0.0000 -0.0000 -0.0000 -0.0000 -0.0000
     7. (2.00007) CR ( 4) I   3           s(  0.00%)p 1.00(100.00%)
                                            0.0000  0.0000  0.0000  0.0000  0.0000
                                            0.0000  0.0000  0.0000  0.0000  0.0000
                                            0.0000  0.0000  0.0000  0.0000  0.0000
                                            0.0000  1.0000 -0.0001 -0.0000 -0.0000
                                            0.0000  0.0000  0.0000  0.0000  0.0000
                                            0.0000 -0.0000  0.0000 -0.0000  0.0000
                                           -0.0000  0.0000  0.0000  0.0000  0.0000
                                            0.0000  0.0000  0.0000  0.0000  0.0000
                                            0.0000  0.0000  0.0000  0.0000  0.0000
                                            0.0000  0.0000  0.0000  0.0000 -0.0000
                                           -0.0000  0.0000  0.0000  0.0000  0.0000
     8. (1.99675) CR ( 5) I   3           s(  0.00%)p 0.00(  0.00%)d 1.00(100.00%)
                                           -0.0000  0.0000 -0.0000 -0.0000  0.0000
                                            0.0000 -0.0000  0.0000  0.0000  0.0000
                                           -0.0000 -0.0000  0.0000 -0.0000 -0.0000
                                            0.0000  0.0000  0.0000  0.0000  0.0000
                                            0.0000  1.0000  0.0000 -0.0000  0.0000
                                            0.0000  0.0000  0.0000  0.0000  0.0000
                                            0.0000  0.0000  0.0000  0.0000 -0.0000
                                            0.0000  0.0000  0.0000 -0.0000  0.0000
                                           -0.0000  0.0000  0.0000 -0.0000 -0.0000
                                           -0.0000 -0.0000  0.0000  0.0000  0.0000
                                            0.0000 -0.0000 -0.0000 -0.0000 -0.0000
     9. (1.99678) CR ( 6) I   3           s(  0.00%)p 0.00(  0.00%)d 1.00(100.00%)
                                            0.0000  0.0000  0.0000  0.0000  0.0000
                                            0.0000  0.0000  0.0000  0.0000  0.0000
                                            0.0000  0.0000  0.0000  0.0000  0.0000
                                            0.0000  0.0000  0.0000  0.0000  0.0000
                                           -0.0000  0.0000  0.0000  0.0000  0.0000
                                            1.0000  0.0000 -0.0000  0.0000 -0.0000
                                            0.0000 -0.0000 -0.0000  0.0000  0.0000
                                            0.0000  0.0000  0.0000  0.0000  0.0000
                                            0.0000 -0.0000 -0.0000  0.0000  0.0000
                                            0.0000  0.0000 -0.0000 -0.0000  0.0000
                                            0.0000  0.0000  0.0000  0.0000  0.0000
    10. (1.99676) CR ( 7) I   3           s(  0.00%)p 0.00(  0.00%)d 1.00(100.00%)
                                            0.0000  0.0000  0.0000  0.0000  0.0000
                                            0.0000  0.0000  0.0000  0.0000  0.0000
                                            0.0000  0.0000  0.0000  0.0000  0.0000
                                            0.0000  0.0000  0.0000  0.0000  0.0000
                                           -0.0000  0.0000  0.0000  0.0000  0.0000
                                           -0.0000  0.0000 -0.0000  0.0000  1.0000
                                            0.0000 -0.0000 -0.0000  0.0000  0.0000
                                            0.0000  0.0000  0.0000  0.0000  0.0000
                                            0.0000 -0.0000 -0.0000  0.0000  0.0000
                                            0.0000  0.0000 -0.0000 -0.0000  0.0000
                                            0.0000  0.0000  0.0000  0.0000  0.0000
    11. (1.99672) CR ( 8) I   3           s(  0.00%)p 0.00(  0.00%)d 1.00(100.00%)
                                            0.0000 -0.0000  0.0000  0.0000 -0.0000
                                           -0.0000  0.0000 -0.0000 -0.0000  0.0000
                                            0.0000  0.0000 -0.0001  0.0000  0.0000
                                           -0.0000  0.0000  0.0000  0.0000  0.0000
                                            0.0000  0.0000 -0.0000  0.0000 -0.0000
                                            0.0000  0.0000  0.0000  0.0000  0.0000
                                            0.0000  0.0000  0.0000  1.0000  0.0000
                                           -0.0000 -0.0000 -0.0000  0.0000 -0.0000
                                            0.0000  0.0000  0.0000  0.0000  0.0000
                                            0.0000  0.0000  0.0000  0.0000  0.0000
                                            0.0000  0.0000  0.0000  0.0000  0.0000
    12. (1.99676) CR ( 9) I   3           s(  0.00%)p 0.00(  0.00%)d 1.00(100.00%)
                                            0.0000 -0.0000  0.0000  0.0000 -0.0000
                                           -0.0000  0.0000 -0.0000 -0.0000  0.0000
                                            0.0000  0.0000 -0.0001  0.0000  0.0000
                                           -0.0000  0.0000  0.0000  0.0000  0.0000
                                            0.0000  0.0000 -0.0000  0.0000 -0.0000
                                            0.0000  0.0000  0.0000  0.0000  0.0000
                                            0.0000  0.0000  0.0000 -0.0000  0.0000
                                           -0.0000 -0.0000  1.0000  0.0000 -0.0000
                                            0.0000  0.0000  0.0000  0.0000  0.0000
                                            0.0000  0.0000  0.0000  0.0000  0.0000
                                            0.0000  0.0000  0.0000  0.0000  0.0000
    13. (1.97024) LP ( 1) O   1           s( 49.55%)p 1.02( 50.32%)d 0.00(  0.13%)
                                                  f 0.00(  0.00%)
                                            0.0002  0.7039  0.0056  0.0013  0.0023
                                           -0.4057 -0.0068  0.0021 -0.0002  0.5818
                                            0.0099 -0.0043  0.0005  0.0000  0.0000
                                            0.0000  0.0000  0.0304 -0.0043  0.0011
                                            0.0000  0.0000  0.0000  0.0000  0.0000
                                            0.0000  0.0085 -0.0003  0.0015  0.0154
                                           -0.0019 -0.0010  0.0000  0.0000  0.0027
                                           -0.0006 -0.0034  0.0011  0.0000  0.0000
                                            0.0000  0.0000  0.0013 -0.0014  0.0007
                                           -0.0007
    14. (1.96058) LP ( 2) O   1           s(  0.00%)p 1.00( 99.78%)d 0.00(  0.21%)
                                                  f 0.00(  0.01%)
                                            0.0000  0.0000  0.0000  0.0000  0.0000
                                            0.0000  0.0000  0.0000  0.0000  0.0000
                                            0.0000  0.0000  0.0000  0.9984  0.0322
                                           -0.0068  0.0021  0.0000  0.0000  0.0000
                                            0.0315 -0.0040  0.0001 -0.0322  0.0031
                                           -0.0037  0.0000  0.0000  0.0000  0.0000
                                            0.0000  0.0000 -0.0100  0.0026  0.0000
                                            0.0000  0.0000  0.0000 -0.0013  0.0011
                                            0.0024 -0.0004  0.0000  0.0000  0.0000
                                            0.0000
    15. (1.98005) LP ( 1) I   3           s( 98.95%)p 0.01(  1.05%)d 0.00(  0.00%)
                                                  f 0.00(  0.00%)
                                            0.0000  0.9948  0.0001  0.0001 -0.0001
                                           -0.0000 -0.0000 -0.0189  0.0003 -0.0001
                                            0.0001 -0.0000 -0.1005  0.0005 -0.0006
                                            0.0001  0.0000  0.0000  0.0000  0.0000
                                            0.0000 -0.0000  0.0009 -0.0003 -0.0001
                                            0.0000  0.0000  0.0000  0.0000  0.0000
                                            0.0000  0.0000  0.0000  0.0000 -0.0015
                                            0.0004  0.0001  0.0000 -0.0012  0.0004
                                            0.0000  0.0000  0.0000 -0.0001 -0.0001
                                           -0.0006 -0.0004  0.0000  0.0000  0.0000
                                            0.0000 -0.0004 -0.0002 -0.0005 -0.0003
    16. (1.95172) LP ( 2) I   3           s(  0.00%)p 1.00(100.00%)d 0.00(  0.00%)
                                                  f 0.00(  0.00%)
                                            0.0000  0.0000  0.0000  0.0000  0.0000
                                            0.0000  0.0000  0.0000  0.0000  0.0000
                                            0.0000  0.0000  0.0000  0.0000  0.0000
                                            0.0000  0.0001  1.0000  0.0001  0.0007
                                           -0.0000  0.0000  0.0000  0.0000  0.0000
                                           -0.0000  0.0025 -0.0013  0.0011 -0.0000
                                            0.0043 -0.0009 -0.0012  0.0000  0.0000
                                            0.0000  0.0000  0.0000  0.0000  0.0000
                                            0.0000 -0.0015 -0.0011  0.0000  0.0000
                                            0.0000  0.0000 -0.0013 -0.0007  0.0010
                                            0.0009  0.0000  0.0000  0.0000  0.0000
    17. (1.95152) LP ( 3) I   3           s(  0.00%)p 1.00( 99.99%)d 0.00(  0.00%)
                                                  f 0.00(  0.00%)
                                           -0.0000  0.0035  0.0011 -0.0023  0.0020
                                           -0.0001 -0.0001 -0.9760 -0.0014 -0.0012
                                            0.0007  0.0000  0.2177 -0.0010 -0.0004
                                            0.0007 -0.0000 -0.0000 -0.0000 -0.0000
                                           -0.0000  0.0000 -0.0049  0.0009  0.0009
                                           -0.0000 -0.0000 -0.0000 -0.0000 -0.0000
                                           -0.0000 -0.0000 -0.0000  0.0000 -0.0038
                                            0.0016 -0.0007 -0.0000  0.0010 -0.0007
                                            0.0009 -0.0000 -0.0000  0.0007  0.0006
                                           -0.0001  0.0000 -0.0000 -0.0000 -0.0000
                                           -0.0000  0.0013  0.0005 -0.0017 -0.0013
    18. (1.93185) LP ( 4) I   3           s(  1.04%)p94.77( 98.93%)d 0.02(  0.02%)
                                                  f 0.00(  0.00%)
                                           -0.0000  0.1022 -0.0012 -0.0009  0.0009
                                            0.0002 -0.0000  0.2169  0.0009 -0.0001
                                           -0.0002 -0.0001  0.9707 -0.0014 -0.0020
                                            0.0006  0.0000  0.0000  0.0000  0.0000
                                            0.0000 -0.0001  0.0072 -0.0016  0.0005
                                            0.0000  0.0000  0.0000  0.0000  0.0000
                                            0.0000  0.0000  0.0000  0.0001 -0.0108
                                            0.0014  0.0013  0.0001 -0.0082  0.0016
                                           -0.0001  0.0000  0.0000 -0.0008 -0.0005
                                           -0.0031 -0.0019  0.0000  0.0000  0.0000
                                            0.0000 -0.0023 -0.0010 -0.0027 -0.0012
    19. (0.01833) RY*( 1) O   1           s(  0.00%)p 1.00( 98.49%)d 0.02(  1.49%)
                                                  f 0.00(  0.01%)
                                            0.0000  0.0000  0.0000  0.0000  0.0000
                                            0.0000  0.0000  0.0000  0.0000  0.0000
                                            0.0000  0.0000  0.0000 -0.0372  0.9911
                                            0.0331 -0.0135  0.0000  0.0000  0.0000
                                            0.1020 -0.0144 -0.0058 -0.0641  0.0129
                                            0.0018  0.0000  0.0000  0.0000  0.0000
                                            0.0000  0.0000 -0.0066  0.0087  0.0000
                                            0.0000  0.0000  0.0000 -0.0022  0.0023
                                           -0.0026 -0.0004  0.0000  0.0000  0.0000
                                            0.0000
    20. (0.01435) RY*( 2) O   1           s( 21.54%)p 3.52( 75.86%)d 0.12(  2.52%)
                                                  f 0.00(  0.08%)
                                            0.0000 -0.0129  0.4640 -0.0011  0.0026
                                            0.0121 -0.4740 -0.0164  0.0013 -0.0073
                                            0.7302  0.0135 -0.0104  0.0000  0.0000
                                            0.0000  0.0000  0.1553 -0.0154  0.0011
                                            0.0000  0.0000  0.0000  0.0000  0.0000
                                            0.0000 -0.0020  0.0018  0.0053  0.0256
                                           -0.0107 -0.0015  0.0000  0.0000  0.0023
                                           -0.0011  0.0047  0.0012  0.0000  0.0000
                                            0.0000  0.0000  0.0210 -0.0124  0.0130
                                           -0.0039
    21. (0.00650) RY*( 3) O   1           s(  0.64%)p99.99( 68.39%)d47.31( 30.39%)
                                                  f 0.90(  0.58%)
                                            0.0000  0.0028  0.0660 -0.0451  0.0057
                                           -0.0637 -0.6914 -0.0468  0.0208 -0.0446
                                           -0.4432 -0.0279  0.0072 -0.0000 -0.0000
                                           -0.0000 -0.0000 -0.2118 -0.0078 -0.0012
                                           -0.0000 -0.0000 -0.0000 -0.0000 -0.0000
                                           -0.0000  0.5067  0.0357  0.0189 -0.0251
                                           -0.0017  0.0009 -0.0000 -0.0000 -0.0363
                                            0.0171 -0.0248  0.0088 -0.0000 -0.0000
                                           -0.0000 -0.0000  0.0168 -0.0138 -0.0505
                                            0.0216
    22. (0.00606) RY*( 4) O   1           s(  0.00%)p 1.00(  0.02%)d99.99( 98.96%)
                                                  f67.15(  1.02%)
                                            0.0000  0.0000  0.0000  0.0000  0.0000
                                            0.0000  0.0000  0.0000  0.0000  0.0000
                                            0.0000  0.0000  0.0000  0.0090 -0.0044
                                           -0.0072  0.0001  0.0000  0.0000  0.0000
                                            0.5657  0.0279  0.0091  0.8167  0.0420
                                            0.0051  0.0000  0.0000  0.0000  0.0000
                                            0.0000  0.0000  0.0215 -0.0097  0.0000
                                            0.0000  0.0000  0.0000  0.0882 -0.0426
                                           -0.0068  0.0026  0.0000  0.0000  0.0000
                                            0.0000
    23. (0.00601) RY*( 5) O   1           s( 11.13%)p 0.07(  0.82%)d 7.82( 87.04%)
                                                  f 0.09(  1.01%)
                                           -0.0000  0.0135  0.3333  0.0001  0.0046
                                           -0.0065  0.0813  0.0042 -0.0073  0.0243
                                            0.0291 -0.0088 -0.0042 -0.0000 -0.0000
                                           -0.0000 -0.0000 -0.8865 -0.0213  0.0030
                                           -0.0000 -0.0000 -0.0000 -0.0000 -0.0000
                                           -0.0000 -0.2705 -0.0072 -0.0004  0.1030
                                            0.0126  0.0106 -0.0000 -0.0000 -0.0121
                                            0.0112  0.0252 -0.0165 -0.0000 -0.0000
                                           -0.0000 -0.0000 -0.0835  0.0294 -0.0295
                                            0.0134
    24. (0.00584) RY*( 6) O   1           s(  0.00%)p 1.00(  1.63%)d60.01( 97.56%)
                                                  f 0.50(  0.81%)
                                            0.0000  0.0000  0.0000  0.0000  0.0000
                                            0.0000  0.0000  0.0000  0.0000  0.0000
                                            0.0000  0.0000  0.0000 -0.0402 -0.1206
                                           -0.0067 -0.0062  0.0000  0.0000  0.0000
                                            0.8099  0.0489  0.0117 -0.5621 -0.0338
                                            0.0004  0.0000  0.0000  0.0000  0.0000
                                            0.0000  0.0000 -0.0681  0.0346  0.0000
                                            0.0000  0.0000  0.0000  0.0182 -0.0112
                                           -0.0390  0.0182  0.0000  0.0000  0.0000
                                            0.0000
    25. (0.00562) RY*( 7) O   1           s(  8.92%)p 0.58(  5.14%)d 9.57( 85.37%)
                                                  f 0.06(  0.57%)
                                           -0.0000  0.0237  0.2975 -0.0106  0.0034
                                            0.0285  0.1062  0.0037 -0.0040 -0.0427
                                           -0.1920 -0.0234 -0.0093  0.0000  0.0000
                                            0.0000  0.0000  0.1976  0.0137  0.0032
                                            0.0000  0.0000  0.0000  0.0000  0.0000
                                            0.0000  0.0642  0.0063 -0.0038  0.8976
                                            0.0671  0.0042  0.0000  0.0000  0.0448
                                           -0.0207 -0.0517  0.0239  0.0000  0.0000
                                            0.0000  0.0000 -0.0026 -0.0004 -0.0043
                                            0.0018
    26. (0.00260) RY*( 8) O   1           s(  1.48%)p20.68( 30.54%)d45.58( 67.32%)
                                                  f 0.44(  0.66%)
                                           -0.0000 -0.0015  0.1210  0.0108  0.0037
                                            0.0275 -0.3926 -0.0293 -0.0208  0.0227
                                           -0.3804 -0.0466 -0.0434 -0.0000 -0.0000
                                           -0.0000 -0.0000  0.2267  0.0362 -0.0088
                                           -0.0000 -0.0000 -0.0000 -0.0000 -0.0000
                                           -0.0000 -0.7737 -0.1087  0.0708 -0.0689
                                           -0.0161  0.0001 -0.0000 -0.0000  0.0150
                                           -0.0208  0.0114 -0.0212 -0.0000 -0.0000
                                           -0.0000 -0.0000 -0.0299  0.0052  0.0618
                                           -0.0241
    27. (0.00217) RY*( 9) O   1           s( 54.68%)p 0.38( 20.57%)d 0.45( 24.37%)
                                                  f 0.01(  0.37%)
                                            0.0000 -0.0060  0.7364  0.0253 -0.0619
                                           -0.0104  0.3351  0.0321 -0.0234 -0.0014
                                           -0.2774 -0.1067 -0.0584  0.0000  0.0000
                                            0.0000  0.0000  0.1946  0.0502  0.0232
                                            0.0000  0.0000  0.0000  0.0000  0.0000
                                            0.0000  0.1771  0.0460 -0.0241 -0.3914
                                           -0.1220  0.0255  0.0000  0.0000 -0.0070
                                            0.0299  0.0099 -0.0166  0.0000  0.0000
                                            0.0000  0.0000  0.0235 -0.0416  0.0020
                                           -0.0117
    28. (0.00079) RY*(10) O   1           s( 53.36%)p 0.75( 40.11%)d 0.09(  5.05%)
                                                  f 0.03(  1.47%)
                                            0.0000 -0.0044 -0.0755  0.7250 -0.0485
                                            0.0006 -0.0428  0.0575 -0.1329 -0.0003
                                            0.0402 -0.6134 -0.0184  0.0000  0.0000
                                            0.0000  0.0000 -0.0294  0.0722  0.1380
                                            0.0000  0.0000  0.0000  0.0000  0.0000
                                            0.0000  0.0254 -0.0027 -0.0470  0.0368
                                           -0.0250 -0.1435  0.0000  0.0000  0.0155
                                           -0.0064  0.0473  0.0376  0.0000  0.0000
                                            0.0000  0.0000  0.0174  0.0599  0.0263
                                            0.0789
    29. (0.00055) RY*(11) O   1           s(  0.00%)p 1.00( 65.24%)d 0.49( 32.01%)
                                                  f 0.04(  2.76%)
                                            0.0000  0.0000  0.0000  0.0000  0.0000
                                            0.0000  0.0000  0.0000  0.0000  0.0000
                                            0.0000  0.0000  0.0000  0.0025 -0.0415
                                            0.8059 -0.0334  0.0000  0.0000  0.0000
                                            0.0142 -0.2309 -0.0707 -0.0107  0.4979
                                            0.1163  0.0000  0.0000  0.0000  0.0000
                                            0.0000  0.0000 -0.1491  0.0389  0.0000
                                            0.0000  0.0000  0.0000 -0.0515  0.0047
                                           -0.0330 -0.0069  0.0000  0.0000  0.0000
                                            0.0000
    30. (0.00046) RY*(12) O   1           s(  5.08%)p 4.33( 21.97%)d 9.29( 47.14%)
                                                  f 5.08( 25.81%)
                                           -0.0000  0.0041  0.0024  0.1959  0.1112
                                            0.0069  0.0200 -0.3937 -0.0234 -0.0030
                                           -0.0239  0.2509 -0.0155 -0.0000 -0.0000
                                           -0.0000 -0.0000 -0.0443 -0.3104  0.0332
                                           -0.0000 -0.0000 -0.0000 -0.0000 -0.0000
                                           -0.0000 -0.0032 -0.1174  0.0033  0.0471
                                           -0.5733 -0.1653 -0.0000 -0.0000  0.2481
                                           -0.0160 -0.0243  0.0154 -0.0000 -0.0000
                                           -0.0000 -0.0000  0.4343  0.0081  0.0797
                                            0.0209
    31. (0.00044) RY*(13) O   1           s(  0.00%)p 1.00(  5.76%)d 0.65(  3.76%)
                                                  f15.71( 90.48%)
                                            0.0000  0.0000  0.0000  0.0000  0.0000
                                            0.0000  0.0000  0.0000  0.0000  0.0000
                                            0.0000  0.0000  0.0000  0.0020 -0.0040
                                            0.2341  0.0527  0.0000  0.0000  0.0000
                                            0.0283  0.1055 -0.0038 -0.0373 -0.1548
                                            0.0172  0.0000  0.0000  0.0000  0.0000
                                            0.0000  0.0000  0.3327  0.0036  0.0000
                                            0.0000  0.0000  0.0000  0.2076 -0.0020
                                            0.8666 -0.0107  0.0000  0.0000  0.0000
                                            0.0000
    32. (0.00043) RY*(14) O   1           s(  0.53%)p 4.91(  2.59%)d17.55(  9.24%)
                                                  f99.99( 87.65%)
                                           -0.0000  0.0015 -0.0013  0.0672  0.0274
                                           -0.0013  0.0040 -0.1055 -0.0216 -0.0005
                                           -0.0140  0.1185 -0.0017  0.0000  0.0000
                                            0.0000  0.0000  0.0518 -0.0778 -0.0546
                                            0.0000  0.0000  0.0000  0.0000  0.0000
                                            0.0000  0.0234 -0.0333 -0.0258  0.0758
                                           -0.2559 -0.0841  0.0000  0.0000 -0.5547
                                            0.0007  0.7012  0.0116  0.0000  0.0000
                                            0.0000  0.0000 -0.2754  0.0089 -0.0319
                                            0.0098
    33. (0.00043) RY*(15) O   1           s(  0.00%)p 1.00(  1.37%)d11.59( 15.88%)
                                                  f60.38( 82.75%)
                                            0.0000  0.0000  0.0000  0.0000  0.0000
                                            0.0000  0.0000  0.0000  0.0000  0.0000
                                            0.0000  0.0000  0.0000  0.0041 -0.0048
                                           -0.1155 -0.0180  0.0000  0.0000  0.0000
                                            0.0123 -0.1974 -0.0264 -0.0809  0.3153
                                            0.1140  0.0000  0.0000  0.0000  0.0000
                                            0.0000  0.0000  0.7867  0.0000  0.0000
                                            0.0000  0.0000  0.0000  0.3594  0.0088
                                           -0.2817  0.0017  0.0000  0.0000  0.0000
                                            0.0000
    34. (0.00042) RY*(16) O   1           s(  0.00%)p 1.00(  3.50%)d 5.66( 19.84%)
                                                  f21.88( 76.66%)
                                            0.0000  0.0000  0.0000  0.0000  0.0000
                                            0.0000  0.0000  0.0000  0.0000  0.0000
[...]
                                           -0.0151  0.2363  0.1139 -0.0397  0.7545
                                            0.0107 -0.0050 -0.5888  0.0728 -0.0168
                                           -0.0000 -0.0000 -0.0000 -0.0655  0.0148
                                           -0.0000 -0.0000 -0.0000 -0.0000  0.0359
                                            0.0220 -0.0373 -0.0008
   127. (0.00249) RY*( 4) H   4           s( 27.68%)p 2.59( 71.57%)d 0.03(  0.76%)
                                           -0.0014  0.4683  0.2396  0.0090 -0.6198
                                            0.0452 -0.0205 -0.5400  0.1936 -0.0045
                                           -0.0000 -0.0000 -0.0000  0.0425 -0.0378
                                           -0.0000 -0.0000 -0.0000 -0.0000  0.0332
                                            0.0380  0.0354  0.0231
   128. (0.00046) RY*( 5) H   4           s( 12.32%)p 6.78( 83.52%)d 0.34(  4.16%)
                                           -0.0016 -0.0157  0.0395  0.3484  0.0148
                                           -0.8427  0.1022  0.0162  0.2690 -0.2044
                                           -0.0000 -0.0000 -0.0000 -0.0599 -0.0415
                                           -0.0000 -0.0000 -0.0000 -0.0000 -0.1541
                                            0.0967  0.0516  0.0222
   129. (0.00036) RY*( 6) H   4           s(  0.00%)p 1.00( 93.54%)d 0.07(  6.46%)
                                            0.0000  0.0000  0.0000  0.0000  0.0000
                                            0.0000  0.0000  0.0000  0.0000  0.0000
                                           -0.1563  0.9529 -0.0540  0.0000  0.0000
                                            0.0325 -0.0065  0.2519  0.0053  0.0000
                                            0.0000  0.0000  0.0000
   130. (0.00033) RY*( 7) H   4           s(  6.52%)p 8.44( 55.01%)d 5.90( 38.47%)
                                            0.0060 -0.0307  0.0138  0.2530  0.0172
                                            0.2330 -0.2032  0.0554 -0.0161 -0.6715
                                           -0.0000 -0.0000 -0.0000 -0.1700 -0.1540
                                           -0.0000 -0.0000 -0.0000 -0.0000  0.4156
                                            0.2691  0.2059  0.2112
   131. (0.00019) RY*( 8) H   4           s(  7.71%)p 4.94( 38.07%)d 7.03( 54.22%)
                                           -0.0097 -0.0141  0.0467  0.2732  0.0776
                                            0.3258 -0.0236  0.1358  0.4976 -0.0448
                                            0.0000  0.0000  0.0000  0.3319 -0.1277
                                            0.0000  0.0000  0.0000  0.0000 -0.3073
                                            0.2539 -0.5000  0.0823
   132. (0.00020) RY*( 9) H   4           s( 42.70%)p 0.41( 17.37%)d 0.94( 39.93%)
                                           -0.0070 -0.0899  0.6469 -0.0191  0.0350
                                            0.1197 -0.1576  0.2137  0.2377  0.1765
                                           -0.0000 -0.0000 -0.0000 -0.5791  0.1346
                                           -0.0000 -0.0000 -0.0000 -0.0000 -0.1710
                                            0.0259  0.1247  0.0184
   133. (0.00019) RY*(10) H   4           s(  0.00%)p 1.00(  6.52%)d14.34( 93.48%)
                                            0.0000  0.0000  0.0000  0.0000  0.0000
                                            0.0000  0.0000  0.0000  0.0000  0.0000
                                            0.0798 -0.2266  0.0864  0.0000  0.0000
                                           -0.0397 -0.0903  0.9330 -0.2335  0.0000
                                            0.0000  0.0000  0.0000
   134. (0.00014) RY*(11) H   4           s(  0.00%)p 1.00(  4.41%)d21.67( 95.59%)
                                            0.0000  0.0000  0.0000  0.0000  0.0000
                                            0.0000  0.0000  0.0000  0.0000  0.0000
                                           -0.0060 -0.0443 -0.2052  0.0000  0.0000
                                            0.8986  0.3022  0.0166 -0.2382  0.0000
                                            0.0000  0.0000  0.0000
   135. (0.00015) RY*(12) H   4           s( 17.75%)p 0.49(  8.69%)d 4.15( 73.56%)
                                           -0.0050 -0.0753  0.4059 -0.0840  0.1183
                                            0.0092  0.1563  0.1266  0.1770  0.0326
                                            0.0000  0.0000  0.0000  0.6400  0.0251
                                            0.0000  0.0000  0.0000  0.0000  0.1434
                                           -0.1004  0.5224  0.1480
   136. (0.00012) RY*(13) H   4           s( 24.32%)p 1.45( 35.19%)d 1.66( 40.48%)
                                            0.0069  0.0057  0.2320  0.4352 -0.0218
                                            0.1202  0.4811 -0.0201 -0.3143 -0.0797
                                            0.0000  0.0000  0.0000  0.0425  0.5441
                                            0.0000  0.0000  0.0000  0.0000  0.0909
                                            0.1285 -0.1421 -0.2490
   137. (0.00012) RY*(14) H   4           s(  5.85%)p 1.76( 10.32%)d14.34( 83.84%)
                                           -0.0081 -0.0693  0.2051 -0.1074 -0.0000
                                           -0.1769 -0.0716  0.0977  0.2015  0.1288
                                            0.0000  0.0000  0.0000  0.0377 -0.1383
                                            0.0000  0.0000  0.0000  0.0000  0.7170
                                           -0.0699 -0.4092 -0.3623
   138. (0.00012) RY*(15) H   4           s(  0.00%)p 1.00( 54.31%)d 0.84( 45.69%)
                                            0.0000  0.0000  0.0000  0.0000  0.0000
                                            0.0000  0.0000  0.0000  0.0000  0.0000
                                            0.0109  0.0064  0.7369  0.0000  0.0000
                                            0.2088  0.3101  0.1096  0.5524  0.0000
                                            0.0000  0.0000  0.0000
   139. (0.00009) RY*(16) H   4           s( 33.42%)p 1.29( 43.09%)d 0.70( 23.49%)
   140. (0.00006) RY*(17) H   4           s(  0.00%)p 1.00(  0.14%)d99.99( 99.86%)
   141. (0.00006) RY*(18) H   4           s( 32.27%)p 0.94( 30.43%)d 1.16( 37.30%)
   142. (0.00006) RY*(19) H   4           s(  1.50%)p 0.36(  0.54%)d65.47( 97.97%)
   143. (0.00003) RY*(20) H   4           s(  0.00%)p 1.00( 41.27%)d 1.42( 58.73%)
   144. (0.00002) RY*(21) H   4           s(  8.05%)p 5.03( 40.47%)d 6.40( 51.48%)
   145. (0.00003) RY*(22) H   4           s(  2.24%)p19.86( 44.54%)d23.72( 53.21%)
   146. (0.02111) BD*( 1) O   1 - H   2  
                ( 27.03%)   0.5199* O   1 s( 20.98%)p 3.75( 78.57%)d 0.02(  0.44%)
                                                  f 0.00(  0.01%)
                                           -0.0002 -0.4580  0.0026  0.0009  0.0021
                                           -0.8835  0.0284 -0.0092  0.0023 -0.0633
                                            0.0165 -0.0011  0.0025 -0.0000 -0.0000
                                           -0.0000 -0.0000  0.0216 -0.0032 -0.0006
                                           -0.0000 -0.0000 -0.0000 -0.0000 -0.0000
                                           -0.0000 -0.0513  0.0033  0.0034  0.0351
                                           -0.0026 -0.0001 -0.0000 -0.0000  0.0099
                                           -0.0002 -0.0000  0.0002 -0.0000 -0.0000
                                           -0.0000 -0.0000 -0.0030 -0.0035 -0.0024
                                            0.0007
                ( 72.97%)  -0.8542* H   2 s( 99.90%)p 0.00(  0.10%)d 0.00(  0.00%)
                                           -0.9995 -0.0031  0.0002 -0.0002 -0.0139
                                           -0.0256  0.0051  0.0100  0.0046  0.0026
                                           -0.0000 -0.0000 -0.0000  0.0005  0.0023
                                           -0.0000 -0.0000 -0.0000 -0.0000  0.0023
                                            0.0010  0.0009 -0.0012
   147. (0.03504) BD*( 1) O   1 - H   4  
                ( 24.37%)   0.4937* O   1 s( 29.38%)p 2.39( 70.20%)d 0.01(  0.41%)
                                                  f 0.00(  0.01%)
                                            0.0003  0.5419 -0.0078 -0.0013 -0.0027
                                           -0.2203  0.0207 -0.0016  0.0011 -0.8077
                                            0.0248 -0.0064  0.0012 -0.0000 -0.0000
                                           -0.0000 -0.0000 -0.0005  0.0032  0.0013
                                           -0.0000 -0.0000 -0.0000 -0.0000 -0.0000
                                           -0.0000 -0.0530  0.0020  0.0013 -0.0363
                                            0.0010 -0.0013 -0.0000 -0.0000  0.0019
                                            0.0002  0.0084  0.0004 -0.0000 -0.0000
                                           -0.0000 -0.0000  0.0028  0.0022  0.0016
                                            0.0029
                ( 75.63%)  -0.8696* H   4 s( 99.91%)p 0.00(  0.08%)d 0.00(  0.00%)
                                            0.9994  0.0163  0.0001  0.0004  0.0148
                                            0.0022  0.0013  0.0025  0.0220  0.0104
                                           -0.0000 -0.0000 -0.0000 -0.0017 -0.0009
                                           -0.0000 -0.0000 -0.0000 -0.0000  0.0039
                                           -0.0022  0.0009 -0.0028


 NHO Directionality and "Bond Bending" (deviations from line of nuclear centers)

         [Thresholds for printing:  angular deviation  >  1.0 degree]
                                    hybrid p-character > 25.0%
                                    orbital occupancy  >  0.10e

                                Line of Centers        Hybrid 1              Hybrid 2
                                ---------------  -------------------   ------------------
                NBO               Theta   Phi    Theta   Phi    Dev    Theta   Phi    Dev
 ========================================================================================
     1. BD (   1) O   1 - H   2    90.0    0.0    90.0    3.0   3.0      --     --    --
     2. BD (   1) O   1 - H   4    90.0  258.1    90.0  255.8   2.4      --     --    --
    13. LP (   1) O   1             --     --     90.0  124.9   --       --     --    --
    14. LP (   2) O   1             --     --      0.0    0.0   --       --     --    --
    16. LP (   2) I   3             --     --      0.0    0.0   --       --     --    --
    17. LP (   3) I   3             --     --     90.0  167.5   --       --     --    --
    18. LP (   4) I   3             --     --     90.0   77.3   --       --     --    --


 Natural Bond Orbitals (Summary):

           NBO                  Occupancy  
 -----------------------------------------------
 Molecular unit  1  (H2O)
     1. BD (   1) O   1 - H   2          1.96683
     2. BD (   1) O   1 - H   4          1.97149
     3. CR (   1) O   1                  1.99964
    13. LP (   1) O   1                  1.97024
    14. LP (   2) O   1                  1.96058
    19. RY*(   1) O   1                  0.01833
    20. RY*(   2) O   1                  0.01435
    21. RY*(   3) O   1                  0.00650
    22. RY*(   4) O   1                  0.00606
    23. RY*(   5) O   1                  0.00601
    24. RY*(   6) O   1                  0.00584
    25. RY*(   7) O   1                  0.00562
    26. RY*(   8) O   1                  0.00260
    27. RY*(   9) O   1                  0.00217
    28. RY*(  10) O   1                  0.00079
    29. RY*(  11) O   1                  0.00055
    30. RY*(  12) O   1                  0.00046
    31. RY*(  13) O   1                  0.00044
    32. RY*(  14) O   1                  0.00043
    33. RY*(  15) O   1                  0.00043
    34. RY*(  16) O   1                  0.00042
    35. RY*(  17) O   1                  0.00040
    36. RY*(  18) O   1                  0.00039
    37. RY*(  19) O   1                  0.00039
    38. RY*(  20) O   1                  0.00035
    39. RY*(  21) O   1                  0.00032
    40. RY*(  22) O   1                  0.00032
    41. RY*(  23) O   1                  0.00027
    42. RY*(  24) O   1                  0.00023
    43. RY*(  25) O   1                  0.00020
    44. RY*(  26) O   1                  0.00014
    45. RY*(  27) O   1                  0.00007
    46. RY*(  28) O   1                  0.00007
    47. RY*(  29) O   1                  0.00006
    48. RY*(  30) O   1                  0.00007
    49. RY*(  31) O   1                  0.00007
    50. RY*(  32) O   1                  0.00006
    51. RY*(  33) O   1                  0.00007
    52. RY*(  34) O   1                  0.00006
    53. RY*(  35) O   1                  0.00003
    54. RY*(  36) O   1                  0.00004
    55. RY*(  37) O   1                  0.00004
    56. RY*(  38) O   1                  0.00001
    57. RY*(  39) O   1                  0.00002
    58. RY*(  40) O   1                  0.00002
    59. RY*(  41) O   1                 -0.00001
    60. RY*(   1) H   2                  0.00491
    61. RY*(   2) H   2                  0.00226
    62. RY*(   3) H   2                  0.00175
    63. RY*(   4) H   2                  0.00074
    64. RY*(   5) H   2                  0.00032
    65. RY*(   6) H   2                  0.00020
    66. RY*(   7) H   2                  0.00018
    67. RY*(   8) H   2                  0.00010
    68. RY*(   9) H   2                  0.00011
    69. RY*(  10) H   2                  0.00010
    70. RY*(  11) H   2                  0.00008
    71. RY*(  12) H   2                  0.00008
    72. RY*(  13) H   2                  0.00007
    73. RY*(  14) H   2                  0.00005
    74. RY*(  15) H   2                  0.00003
    75. RY*(  16) H   2                  0.00003
    76. RY*(  17) H   2                  0.00003
    77. RY*(  18) H   2                  0.00003
    78. RY*(  19) H   2                  0.00002
    79. RY*(  20) H   2                  0.00002
    80. RY*(  21) H   2                  0.00002
    81. RY*(  22) H   2                  0.00001
   124. RY*(   1) H   4                  0.00753
   125. RY*(   2) H   4                  0.00406
   126. RY*(   3) H   4                  0.00367
   127. RY*(   4) H   4                  0.00249
   128. RY*(   5) H   4                  0.00046
   129. RY*(   6) H   4                  0.00036
   130. RY*(   7) H   4                  0.00033
   131. RY*(   8) H   4                  0.00019
   132. RY*(   9) H   4                  0.00020
   133. RY*(  10) H   4                  0.00019
   134. RY*(  11) H   4                  0.00014
   135. RY*(  12) H   4                  0.00015
   136. RY*(  13) H   4                  0.00012
   137. RY*(  14) H   4                  0.00012
   138. RY*(  15) H   4                  0.00012
   139. RY*(  16) H   4                  0.00009
   140. RY*(  17) H   4                  0.00006
   141. RY*(  18) H   4                  0.00006
   142. RY*(  19) H   4                  0.00006
   143. RY*(  20) H   4                  0.00003
   144. RY*(  21) H   4                  0.00002
   145. RY*(  22) H   4                  0.00003
   146. BD*(   1) O   1 - H   2          0.02111
   147. BD*(   1) O   1 - H   4          0.03504
       -------------------------------
              Total Lewis    9.86877  ( 98.3804%)
        Valence non-Lewis    0.05615  (  0.5598%)
        Rydberg non-Lewis    0.10631  (  1.0598%)
       -------------------------------
            Total unit  1   10.03124  (100.0000%)
           Charge unit  1   -0.03124

 Molecular unit  2  (I)
     4. CR (   1) I   3                  2.00003
     5. CR (   2) I   3                  2.00007
     6. CR (   3) I   3                  2.00004
     7. CR (   4) I   3                  2.00007
     8. CR (   5) I   3                  1.99675
     9. CR (   6) I   3                  1.99678
    10. CR (   7) I   3                  1.99676
    11. CR (   8) I   3                  1.99672
    12. CR (   9) I   3                  1.99676
    15. LP (   1) I   3                  1.98005
    16. LP (   2) I   3                  1.95172
    17. LP (   3) I   3                  1.95152
    18. LP (   4) I   3                  1.93185
    82. RY*(   1) I   3                  0.02025
    83. RY*(   2) I   3                  0.02026
    84. RY*(   3) I   3                  0.02016
    85. RY*(   4) I   3                  0.02016
    86. RY*(   5) I   3                  0.01972
    87. RY*(   6) I   3                  0.01110
    88. RY*(   7) I   3                  0.01107
    89. RY*(   8) I   3                  0.00996
    90. RY*(   9) I   3                  0.00369
    91. RY*(  10) I   3                  0.00278
    92. RY*(  11) I   3                  0.00279
    93. RY*(  12) I   3                  0.00277
    94. RY*(  13) I   3                  0.00277
    95. RY*(  14) I   3                  0.00272
    96. RY*(  15) I   3                  0.00271
    97. RY*(  16) I   3                  0.00270
    98. RY*(  17) I   3                  0.00168
    99. RY*(  18) I   3                  0.00168
   100. RY*(  19) I   3                  0.00143
   101. RY*(  20) I   3                  0.00141
   102. RY*(  21) I   3                  0.00127
   103. RY*(  22) I   3                  0.00074
   104. RY*(  23) I   3                  0.00075
   105. RY*(  24) I   3                  0.00070
   106. RY*(  25) I   3                  0.00047
   107. RY*(  26) I   3                  0.00043
   108. RY*(  27) I   3                  0.00044
   109. RY*(  28) I   3                  0.00044
   110. RY*(  29) I   3                  0.00043
   111. RY*(  30) I   3                  0.00039
   112. RY*(  31) I   3                  0.00040
   113. RY*(  32) I   3                  0.00036
   114. RY*(  33) I   3                  0.00016
   115. RY*(  34) I   3                  0.00016
   116. RY*(  35) I   3                  0.00014
   117. RY*(  36) I   3                  0.00014
   118. RY*(  37) I   3                  0.00014
   119. RY*(  38) I   3                  0.00007
   120. RY*(  39) I   3                  0.00008
   121. RY*(  40) I   3                  0.00008
   122. RY*(  41) I   3                  0.00006
   123. RY*(  42) I   3                  0.00000
       -------------------------------
              Total Lewis   53.79912  ( 99.6857%)
        Valence non-Lewis    0.00000  (  0.0000%)
        Rydberg non-Lewis    0.16964  (  0.3143%)
       -------------------------------
            Total unit  2   53.96876  (100.0000%)
           Charge unit  2   -0.96876
 Leave Link  607 at Tue Oct 26 13:20:41 2021, MaxMem= 16106127360 cpu:              68.3 elap:               2.5
 (Enter /sw/contrib/gaussian/g16/B01/g16/l9999.exe)
 1\1\GINC-N2097\SP\RMP2-FC\Gen\H2I1O1(1-)\CGAVINH\26-Oct-2021\0\\#p pop
 =NBO SP NoSymm mp2/gen Pseudo=read density=current\\title\\-1,1\O\X,1,
 10.\H,1,0.96090774,2,90.\I,1,3.50850138,2,90.,3,101.85832019,0\H,1,0.9
 ,2,90.,3,101.85832019,0\\Version=ES64L-G16RevB.01\HF=-370.814478\MP2=-
 371.3072153\RMSD=3.189e-09\Dipole=0.7420823,0.8272026,0.\Quadrupole=12
 .8905661,-25.4424362,12.5518701,-7.5350071,0.,0.\PG=CS [SG(H2I1O1)]\\@


 The arm of the moral universe is long, but it bends toward justice.
 -- Martin Luther King, Jr.
 Job cpu time:       0 days  0 hours  4 minutes  8.7 seconds.
 Elapsed time:       0 days  0 hours  0 minutes 11.4 seconds.
 File lengths (MBytes):  RWF=     11 Int=      0 D2E=      0 Chk=      8 Scr=      1
 Normal termination of Gaussian 16 at Tue Oct 26 13:20:41 2021.
