title                                                                   
SP        RMP2-FC                                                     Gen                 
Number of atoms                            I                4
Info1-9                                    I   N=           9
         144         135           0           0           0         110
           1           2           1
Charge                                     I               -1
Multiplicity                               I                1
Number of electrons                        I               36
Number of alpha electrons                  I               18
Number of beta electrons                   I               18
Number of basis functions                  I              191
Number of independent functions            I              147
Number of point charges in /Mol/           I                0
Number of translation vectors              I                0
Atomic numbers                             I   N=           4
           8           1          53           1
Nuclear charges                            R   N=           4
  8.00000000E+00  1.00000000E+00  2.50000000E+01  1.00000000E+00
Current cartesian coordinates              R   N=          12
  0.00000000E+00  0.00000000E+00  0.00000000E+00  1.81585239E+00  0.00000000E+00
  0.00000000E+00 -1.36243524E+00 -6.48861632E+00  0.00000000E+00 -4.07739924E-01
 -1.94186693E+00  0.00000000E+00
Force Field                                I                0
Int Atom Types                             I   N=           4
           0           0           0           0
MM charges                                 R   N=           4
  0.00000000E+00  0.00000000E+00  0.00000000E+00  0.00000000E+00
Integer atomic weights                     I   N=           4
          16           2         127           1
Real atomic weights                        R   N=           4
  1.59949146E+01  2.01410179E+00  1.26900400E+02  1.00782504E+00
Atom fragment info                         I   N=           4
           0           0           0           0
Atom residue num                           I   N=           4
           0           0           0           0
Nuclear spins                              I   N=           4
           0           2           5           1
Nuclear ZEff                               R   N=           4
 -5.60000000E+00 -1.00000000E+00 -5.83000000E+03 -1.00000000E+00
Nuclear ZNuc                               R   N=           4
  8.00000000E+00  1.00000000E+00  5.30000000E+01  1.00000000E+00
Nuclear QMom                               R   N=           4
  0.00000000E+00  2.86000000E-01 -7.10000000E+01  0.00000000E+00
Nuclear GFac                               R   N=           4
  0.00000000E+00  8.57438000E-01  2.81328000E+00  2.79284600E+00
MicOpt                                     I   N=           4
          -1          -1          -1          -1
Number of contracted shells                I               65
Number of primitive shells                 I              119
Pure/Cartesian d shells                    I                0
Pure/Cartesian f shells                    I                0
Highest angular momentum                   I                3
Largest degree of contraction              I                9
Shell types                                I   N=          65
           0           0           0           0           0           1
           1           1           1          -2          -2          -2
          -3          -3           0           0           0           0
           0           0           0           1           1           1
           1           1           1          -2          -2          -2
          -2           0           0           0           0           0
           0           1           1           1           1           1
          -2          -2          -2          -2          -3          -3
           0           0           0           0           0           0
           0           1           1           1           1           1
           1          -2          -2          -2          -2
Number of primitives per shell             I   N=          65
           7           6           1           1           1           3
           1           1           1           1           1           1
           1           1           3           1           1           1
           1           1           1           1           1           1
           1           1           1           1           1           1
           1           9           8           1           1           1
           1           8           8           1           1           1
           9           1           1           1           1           1
           3           1           1           1           1           1
           1           1           1           1           1           1
           1           1           1           1           1
Shell to atom map                          I   N=          65
           1           1           1           1           1           1
           1           1           1           1           1           1
           1           1           2           2           2           2
           2           2           2           2           2           2
           2           2           2           2           2           2
           2           3           3           3           3           3
           3           3           3           3           3           3
           3           3           3           3           3           3
           4           4           4           4           4           4
           4           4           4           4           4           4
           4           4           4           4           4
Primitive exponents                        R   N=         119
  1.53300000E+04  2.29900000E+03  5.22400000E+02  1.47300000E+02  4.75500000E+01
  1.67600000E+01  6.20700000E+00  5.22400000E+02  1.47300000E+02  4.75500000E+01
  1.67600000E+01  6.20700000E+00  6.88200000E-01  1.75200000E+00  2.38400000E-01
  7.37600000E-02  3.44600000E+01  7.74900000E+00  2.28000000E+00  7.15600000E-01
  2.14000000E-01  5.97400000E-02  2.31400000E+00  6.45000000E-01  2.14000000E-01
  1.42800000E+00  5.00000000E-01  3.38700000E+01  5.09500000E+00  1.15900000E+00
  3.25800000E-01  1.02700000E-01  2.52600000E-02  3.25800000E-01  1.02700000E-01
  2.52600000E-02  1.40700000E+00  3.88000000E-01  1.02000000E-01  1.40700000E+00
  3.88000000E-01  1.02000000E-01  1.05700000E+00  2.47000000E-01  1.05700000E+00
  2.47000000E-01  5.54650000E+03  8.38214000E+02  1.82187000E+02  3.12123000E+01
  1.95314000E+01  8.24099000E+00  2.19455000E+00  1.10911000E+00  8.10610000E-02
  5.54650000E+03  8.38214000E+02  3.12123000E+01  1.95314000E+01  8.24099000E+00
  2.19455000E+00  1.10911000E+00  8.10610000E-02  3.74641000E-01  1.77080000E-01
  1.00100000E-01  4.12000000E-02  1.88988000E+02  2.12868000E+01  1.00396000E+01
  3.45180000E+00  1.97456000E+00  1.02420000E+00  4.49437000E-01  7.34810000E-02
  1.88988000E+02  1.00396000E+01  3.45180000E+00  1.97456000E+00  1.02420000E+00
  4.49437000E-01  1.86648000E-01  7.34810000E-02  5.98100000E-01  9.61800000E-02
  3.59000000E-02  1.32662000E+02  3.76054000E+01  1.03891000E+01  6.49017000E+00
  3.45451000E+00  1.84413000E+00  9.62478000E-01  4.72853000E-01  1.93200000E-01
  4.72853000E-01  1.93200000E-01  7.82000000E-02  4.06400000E-01  1.84800000E-01
  3.38700000E+01  5.09500000E+00  1.15900000E+00  3.25800000E-01  1.02700000E-01
  2.52600000E-02  3.25800000E-01  1.02700000E-01  2.52600000E-02  1.40700000E+00
  3.88000000E-01  1.02000000E-01  1.40700000E+00  3.88000000E-01  1.02000000E-01
  1.05700000E+00  2.47000000E-01  1.05700000E+00  2.47000000E-01
Contraction coefficients                   R   N=         119
  5.19808943E-04  4.02025621E-03  2.07128267E-02  8.10105536E-02  2.35962985E-01
  4.42653446E-01  3.57064423E-01 -4.42115008E-05 -1.22591041E-03 -1.05517725E-02
 -6.74452633E-02 -1.71198607E-01  1.07329856E+00  1.00000000E+00  1.00000000E+00
  1.00000000E+00  4.11634896E-02  2.57762836E-01  8.02419274E-01  1.00000000E+00
  1.00000000E+00  1.00000000E+00  1.00000000E+00  1.00000000E+00  1.00000000E+00
  1.00000000E+00  1.00000000E+00  2.54948632E-02  1.90362766E-01  8.52162022E-01
  1.00000000E+00  1.00000000E+00  1.00000000E+00  1.00000000E+00  1.00000000E+00
  1.00000000E+00  1.00000000E+00  1.00000000E+00  1.00000000E+00  1.00000000E+00
  1.00000000E+00  1.00000000E+00  1.00000000E+00  1.00000000E+00  1.00000000E+00
  1.00000000E+00  1.58603022E-04  1.00211458E-03  2.83966410E-03 -4.40310212E-02
  2.38198152E-01 -7.63568980E-01  8.96516870E-01  4.68371203E-01  2.16251781E-03
 -2.17177846E-05 -2.59237305E-04 -1.50376554E-02  2.42214079E-02  6.99888661E-02
 -5.50491335E-01 -5.69654432E-01  3.76065139E-01  1.00000000E+00  1.00000000E+00
  1.00000000E+00  1.00000000E+00  5.85232173E-04  3.69335916E-02 -2.35399435E-01
  3.41625365E-01  5.34991615E-01  2.65244797E-01  2.54463150E-02  3.82802808E-04
 -6.76097015E-05  8.33123161E-03 -4.66496478E-02 -5.27406452E-02 -2.91398344E-02
  3.65650039E-01  5.48502805E-01  2.34644635E-01  1.00000000E+00  1.00000000E+00
  1.00000000E+00  5.72000072E-04  4.40200055E-03 -4.09220051E-02  9.96610125E-02
  3.22663040E-01  4.00343050E-01  2.68306034E-01  8.48470106E-02  7.63200096E-03
  1.00000000E+00  1.00000000E+00  1.00000000E+00  1.00000000E+00  1.00000000E+00
  2.54948632E-02  1.90362766E-01  8.52162022E-01  1.00000000E+00  1.00000000E+00
  1.00000000E+00  1.00000000E+00  1.00000000E+00  1.00000000E+00  1.00000000E+00
  1.00000000E+00  1.00000000E+00  1.00000000E+00  1.00000000E+00  1.00000000E+00
  1.00000000E+00  1.00000000E+00  1.00000000E+00  1.00000000E+00
Coordinates of each shell                  R   N=         195
  0.00000000E+00  0.00000000E+00  0.00000000E+00  0.00000000E+00  0.00000000E+00
  0.00000000E+00  0.00000000E+00  0.00000000E+00  0.00000000E+00  0.00000000E+00
  0.00000000E+00  0.00000000E+00  0.00000000E+00  0.00000000E+00  0.00000000E+00
  0.00000000E+00  0.00000000E+00  0.00000000E+00  0.00000000E+00  0.00000000E+00
  0.00000000E+00  0.00000000E+00  0.00000000E+00  0.00000000E+00  0.00000000E+00
  0.00000000E+00  0.00000000E+00  0.00000000E+00  0.00000000E+00  0.00000000E+00
  0.00000000E+00  0.00000000E+00  0.00000000E+00  0.00000000E+00  0.00000000E+00
  0.00000000E+00  0.00000000E+00  0.00000000E+00  0.00000000E+00  0.00000000E+00
  0.00000000E+00  0.00000000E+00  1.81585239E+00  0.00000000E+00  0.00000000E+00
  1.81585239E+00  0.00000000E+00  0.00000000E+00  1.81585239E+00  0.00000000E+00
  0.00000000E+00  1.81585239E+00  0.00000000E+00  0.00000000E+00  1.81585239E+00
  0.00000000E+00  0.00000000E+00  1.81585239E+00  0.00000000E+00  0.00000000E+00
  1.81585239E+00  0.00000000E+00  0.00000000E+00  1.81585239E+00  0.00000000E+00
  0.00000000E+00  1.81585239E+00  0.00000000E+00  0.00000000E+00  1.81585239E+00
  0.00000000E+00  0.00000000E+00  1.81585239E+00  0.00000000E+00  0.00000000E+00
  1.81585239E+00  0.00000000E+00  0.00000000E+00  1.81585239E+00  0.00000000E+00
  0.00000000E+00  1.81585239E+00  0.00000000E+00  0.00000000E+00  1.81585239E+00
  0.00000000E+00  0.00000000E+00  1.81585239E+00  0.00000000E+00  0.00000000E+00
  1.81585239E+00  0.00000000E+00  0.00000000E+00 -1.36243524E+00 -6.48861632E+00
  0.00000000E+00 -1.36243524E+00 -6.48861632E+00  0.00000000E+00 -1.36243524E+00
 -6.48861632E+00  0.00000000E+00 -1.36243524E+00 -6.48861632E+00  0.00000000E+00
 -1.36243524E+00 -6.48861632E+00  0.00000000E+00 -1.36243524E+00 -6.48861632E+00
  0.00000000E+00 -1.36243524E+00 -6.48861632E+00  0.00000000E+00 -1.36243524E+00
 -6.48861632E+00  0.00000000E+00 -1.36243524E+00 -6.48861632E+00  0.00000000E+00
 -1.36243524E+00 -6.48861632E+00  0.00000000E+00 -1.36243524E+00 -6.48861632E+00
  0.00000000E+00 -1.36243524E+00 -6.48861632E+00  0.00000000E+00 -1.36243524E+00
 -6.48861632E+00  0.00000000E+00 -1.36243524E+00 -6.48861632E+00  0.00000000E+00
 -1.36243524E+00 -6.48861632E+00  0.00000000E+00 -1.36243524E+00 -6.48861632E+00
  0.00000000E+00 -1.36243524E+00 -6.48861632E+00  0.00000000E+00 -4.07739924E-01
 -1.94186693E+00  0.00000000E+00 -4.07739924E-01 -1.94186693E+00  0.00000000E+00
 -4.07739924E-01 -1.94186693E+00  0.00000000E+00 -4.07739924E-01 -1.94186693E+00
  0.00000000E+00 -4.07739924E-01 -1.94186693E+00  0.00000000E+00 -4.07739924E-01
 -1.94186693E+00  0.00000000E+00 -4.07739924E-01 -1.94186693E+00  0.00000000E+00
 -4.07739924E-01 -1.94186693E+00  0.00000000E+00 -4.07739924E-01 -1.94186693E+00
  0.00000000E+00 -4.07739924E-01 -1.94186693E+00  0.00000000E+00 -4.07739924E-01
 -1.94186693E+00  0.00000000E+00 -4.07739924E-01 -1.94186693E+00  0.00000000E+00
 -4.07739924E-01 -1.94186693E+00  0.00000000E+00 -4.07739924E-01 -1.94186693E+00
  0.00000000E+00 -4.07739924E-01 -1.94186693E+00  0.00000000E+00 -4.07739924E-01
 -1.94186693E+00  0.00000000E+00 -4.07739924E-01 -1.94186693E+00  0.00000000E+00
Constraint Structure                       R   N=          12
  0.00000000E+00  0.00000000E+00  0.00000000E+00  1.81585239E+00  0.00000000E+00
  0.00000000E+00 -1.36243524E+00 -6.48861632E+00  0.00000000E+00 -4.07739924E-01
 -1.94186693E+00  0.00000000E+00
Num ILSW                                   I              100
ILSW                                       I   N=         100
           0           0           0           0           2           0
           0           0           0           0           0          -1
           0           0           0           0           0           0
           0           0           0           0           0           0
           1           1           0           0           0           0
           0           0      100000           0          -1           0
           0           0           0           0           0           0
           0           0           0           1           0           0
           0           0           1           0           0           0
           0           0           4          41           0           0
           0           0           0           0           0           0
           0           0           0           4           0           0
           0           0           0           0           0           0
           0           0           0           0           0           0
           0           0           0           0           0           0
           0           0           0           0           0           0
           0           0           0           0
Num RLSW                                   I               41
RLSW                                       R   N=          41
  1.00000000E+00  1.00000000E+00  1.00000000E+00  1.00000000E+00  1.00000000E+00
  0.00000000E+00  0.00000000E+00  1.00000000E+00  0.00000000E+00  0.00000000E+00
  0.00000000E+00  0.00000000E+00  1.00000000E+00  0.00000000E+00  0.00000000E+00
  0.00000000E+00  0.00000000E+00  1.00000000E+00  0.00000000E+00  0.00000000E+00
  0.00000000E+00  0.00000000E+00  1.00000000E+00  0.00000000E+00  0.00000000E+00
  0.00000000E+00  0.00000000E+00  1.00000000E+00  0.00000000E+00  0.00000000E+00
  0.00000000E+00  0.00000000E+00  1.00000000E+00  0.00000000E+00  0.00000000E+00
  0.00000000E+00  0.00000000E+00  0.00000000E+00  1.00000000E+00  1.00000000E+00
  0.00000000E+00
ECP-MxAtEC                                 I           250000
ECP-MaxLECP                                I               10
ECP-MaxAtL                                 I          2250000
ECP-MxTECP                                 I         11250000
ECP-LenNCZ                                 I               16
ECP-KFirst                                 I   N=          40
           0           0           1           0           0           0
           2           0           0           0           5           0
           0           0           9           0           0           0
          13           0           0           0           0           0
           0           0           0           0           0           0
           0           0           0           0           0           0
           0           0           0           0
ECP-KLast                                  I   N=          40
           0           0           1           0           0           0
           4           0           0           0           8           0
           0           0          12           0           0           0
          16           0           0           0           0           0
           0           0           0           0           0           0
           0           0           0           0           0           0
           0           0           0           0
ECP-LMax                                   I   N=           4
           0           0           4           0
ECP-LPSkip                                 I   N=           4
           1           1           0           1
ECP-RNFroz                                 R   N=           4
  0.00000000E+00  0.00000000E+00  2.80000000E+01  0.00000000E+00
ECP-NLP                                    I   N=          16
           2           2           2           2           2           2
           2           2           2           2           2           2
           2           2           2           2
ECP-CLP1                                   R   N=          16
  0.00000000E+00  4.99896490E+01  2.81006556E+02  6.14167390E+01  6.74162390E+01
  1.34807696E+02  1.45665480E+01  2.89684220E+01  3.55387560E+01  5.33397590E+01
  9.71646600E+00  1.49775000E+01 -2.01766180E+01 -2.60880770E+01 -2.20434000E-01
 -2.21646000E-01
ECP-CLP2                                   R   N=          16
  0.00000000E+00  0.00000000E+00  0.00000000E+00  0.00000000E+00  0.00000000E+00
  0.00000000E+00  0.00000000E+00  0.00000000E+00  0.00000000E+00  0.00000000E+00
  0.00000000E+00  0.00000000E+00  0.00000000E+00  0.00000000E+00  0.00000000E+00
  0.00000000E+00
ECP-ZLP                                    R   N=          16
  1.00000000E+00  4.00333760E+01  1.73005760E+01  8.85172000E+00  1.57201410E+01
  1.52082220E+01  8.29418600E+00  7.75394900E+00  1.38177510E+01  1.35878050E+01
  6.94763000E+00  6.96009900E+00  1.85229500E+01  1.82510350E+01  7.55790100E+00
  7.59740400E+00
MxBond                                     I                2
NBond                                      I   N=           4
           2           1           0           1
IBond                                      I   N=           8
           2           4           1           0           0           0
           1           0
RBond                                      R   N=           8
  1.00000000E+00  1.00000000E+00  1.00000000E+00  0.00000000E+00  0.00000000E+00
  0.00000000E+00  1.00000000E+00  0.00000000E+00
Virial Ratio                               R      2.985700872673516E+00
SCF Energy                                 R     -3.708100978948805E+02
MP2 Energy                                 R     -3.713107758001019E+02
Total Energy                               R     -3.713107758001019E+02
Post-SCF wavefunction norm                 R      1.076642381612544E+00
RMS Density                                R      3.061713542544394E-09
Job Status                                 I                1
Nuclear derivative order                   I                0
External E-field                           R   N=          35
  0.00000000E+00  0.00000000E+00  0.00000000E+00  0.00000000E+00  0.00000000E+00
  0.00000000E+00  0.00000000E+00  0.00000000E+00  0.00000000E+00  0.00000000E+00
  0.00000000E+00  0.00000000E+00  0.00000000E+00  0.00000000E+00  0.00000000E+00
  0.00000000E+00  0.00000000E+00  0.00000000E+00  0.00000000E+00  0.00000000E+00
  0.00000000E+00  0.00000000E+00  0.00000000E+00  0.00000000E+00  0.00000000E+00
  0.00000000E+00  0.00000000E+00  0.00000000E+00  0.00000000E+00  0.00000000E+00
  0.00000000E+00  0.00000000E+00  0.00000000E+00  0.00000000E+00  0.00000000E+00
IOpCl                                      I                0
IROHF                                      I                0
Alpha Orbital Energies                     R   N=         147
 -2.04012413E+01 -7.46968065E+00 -5.29531685E+00 -5.29493904E+00 -5.29488992E+00
 -2.02281066E+00 -2.02257833E+00 -2.02251980E+00 -2.02212092E+00 -2.02211995E+00
 -1.16524947E+00 -6.31795389E-01 -5.20425865E-01 -4.17033779E-01 -3.39102914E-01
 -1.50685934E-01 -1.44878148E-01 -1.44489446E-01  1.33331393E-01  1.70099467E-01
  2.32891441E-01  2.45278833E-01  2.51594360E-01  2.71085134E-01  2.90564720E-01
  2.93773893E-01  3.12532865E-01  3.37859240E-01  3.66391665E-01  3.71421770E-01
  3.75332982E-01  3.95333379E-01  4.08899754E-01  4.21761858E-01  4.42740890E-01
  4.76393136E-01  5.33028297E-01  5.44635490E-01  5.71735839E-01  5.96725419E-01
  6.69089257E-01  7.16427671E-01  7.76008016E-01  7.76111468E-01  7.84984587E-01
  7.96213283E-01  7.97946613E-01  7.99275016E-01  8.27959246E-01  8.37286750E-01
  8.54000412E-01  8.56874984E-01  8.64654559E-01  8.77315394E-01  8.82174930E-01
  8.89490868E-01  8.99415745E-01  9.12389655E-01  9.33844063E-01  9.71279720E-01
  1.01297857E+00  1.05379681E+00  1.07023189E+00  1.09830351E+00  1.10937391E+00
  1.11994136E+00  1.14606060E+00  1.16499448E+00  1.16855042E+00  1.19093679E+00
  1.32132720E+00  1.36215358E+00  1.38058314E+00  1.43059721E+00  1.48679660E+00
  1.52134074E+00  1.55909272E+00  1.67297567E+00  1.71512542E+00  1.73361960E+00
  1.74943839E+00  1.75010990E+00  1.76648912E+00  1.77569251E+00  1.81063509E+00
  1.85086535E+00  1.88667684E+00  1.88988661E+00  2.03767412E+00  2.04091277E+00
  2.05404207E+00  2.06646903E+00  2.10432036E+00  2.10715177E+00  2.14981455E+00
  2.31031905E+00  2.44578980E+00  2.51023539E+00  2.55588411E+00  2.58695452E+00
  2.60137039E+00  2.63581548E+00  2.66634896E+00  2.80955746E+00  2.89875697E+00
  2.93385736E+00  2.98006148E+00  3.01259464E+00  3.05942811E+00  3.27821539E+00
  3.29000344E+00  3.70301160E+00  3.86940185E+00  4.18453933E+00  4.25088354E+00
  4.29245055E+00  4.29831831E+00  4.40900007E+00  4.42312400E+00  4.53047791E+00
  4.57106031E+00  4.57641302E+00  4.72630394E+00  4.92559401E+00  5.04370842E+00
  5.16873377E+00  5.23840265E+00  5.39533693E+00  5.44924418E+00  5.59659836E+00
  5.75658780E+00  6.34521352E+00  6.71515870E+00  6.87736870E+00  7.04000494E+00
  7.20953727E+00  7.38754827E+00  7.41092366E+00  7.44707076E+00  7.52845116E+00
  7.57868942E+00  7.75334442E+00  8.01240643E+00  8.07397102E+00  8.74818372E+00
  1.52543224E+01  5.92196668E+01
Alpha MO coefficients                      R   N=       28077
  9.76694759E-01 -9.31698827E-03  4.35949096E-02 -5.04048487E-04  1.98561846E-04
  1.21774347E-03 -1.22614472E-03  1.29626139E-16 -9.14236930E-04  1.47614684E-03
  3.26553300E-16 -3.91167433E-04  4.14701852E-04  1.70222313E-14 -4.32785324E-05
 -1.63386916E-04  3.66199173E-15 -4.18883960E-05  5.67825465E-16  1.21437996E-15
  5.05717339E-05  3.77767065E-06  5.68123090E-04  3.78920875E-16 -1.95727556E-15
 -3.13775892E-05 -2.41903105E-04  1.40653293E-04  3.65665379E-15 -4.84871769E-15
  4.62579108E-05 -1.87224336E-04  5.91230871E-16 -3.68398358E-06 -1.78633212E-05
  9.80410422E-17 -2.16434498E-17  5.45921647E-06 -6.60044915E-06 -2.49554136E-15
  8.59838333E-05 -7.81578018E-05 -1.73579705E-16  4.25898270E-16 -2.09963508E-04
 -1.32599120E-04  5.12568200E-04  8.35732933E-04  2.88261464E-04 -7.95440289E-06
  8.35732933E-04  2.88261464E-04 -7.95440289E-06 -1.06917442E-04 -4.06511590E-06
  2.95156715E-16 -4.74927396E-04  9.16593831E-05 -2.76309497E-15 -1.49168947E-04
  8.50450657E-05 -3.10248582E-15 -1.06917442E-04 -4.06511590E-06  2.61333458E-16
 -4.74927396E-04  9.16593831E-05 -3.39641960E-15 -1.49168947E-04  8.50450657E-05
 -2.05928855E-15  2.95973597E-05  2.88237913E-16  1.34847075E-16 -6.07048615E-05
  4.74265569E-06 -8.88879397E-05  1.99725382E-15 -7.09160825E-17  1.69150353E-04
 -6.28537270E-05  2.95973597E-05  2.40273788E-16 -4.23003344E-17 -6.07048615E-05
  4.74265569E-06 -8.88879397E-05  1.44876941E-15  2.56810361E-17  1.69150353E-04
 -6.28537270E-05 -3.14826047E-06  1.41266382E-05  1.67643159E-04  8.36476377E-04
 -2.52381120E-03 -6.98936983E-04 -1.68638881E-05 -8.31860523E-05 -5.97471575E-16
 -7.82678400E-05 -4.00835478E-04 -2.33701577E-15  5.16707652E-05  2.48773152E-04
  1.42767656E-15 -3.96935872E-04 -1.75729675E-03  1.78721439E-15 -3.16321798E-05
 -1.84046655E-04  1.43987423E-16  3.91246599E-06 -1.23037755E-17 -9.92658702E-17
  4.77226749E-06 -3.23978708E-06 -4.46791125E-05  1.21140983E-16  3.27826925E-16
 -6.31843983E-05  3.46096708E-05  3.43771965E-04 -3.67348551E-16 -1.07243228E-15
  5.23555968E-04 -2.50409122E-04  2.51684260E-04  3.88142665E-16  1.00048856E-15
  4.18921563E-04 -1.89356578E-04  1.88272364E-16  5.94256782E-06  2.39036263E-05
  2.73038769E-16 -9.89377429E-17  1.25344736E-05  1.90424874E-05  9.71066979E-17
  3.06805867E-05  1.41791668E-04  7.66067295E-17 -2.82841916E-18  1.26803944E-04
  1.57846003E-04  2.37504569E-04  9.51348466E-04  1.03915057E-03  1.18309588E-04
  9.51348466E-04  1.03915057E-03  1.18309588E-04  2.66825459E-05  1.32737681E-04
  2.93849698E-16  1.57384369E-04  8.30090320E-04 -3.55699112E-15 -2.05640065E-04
 -1.17496573E-03 -2.89770599E-15  2.66825459E-05  1.32737681E-04  2.93849698E-16
  1.57384369E-04  8.30090320E-04 -3.55699112E-15 -2.05640065E-04 -1.17496573E-03
 -3.17024792E-15 -2.49982615E-05 -3.83459642E-17 -2.60079463E-16 -3.50283603E-05
  2.73908777E-05 -3.19088125E-04 -6.64019145E-16 -2.68454336E-15 -4.97198443E-04
  2.05099121E-04 -2.49982615E-05 -3.74146318E-17 -2.58048760E-16 -3.50283603E-05
  2.73908777E-05 -3.19088125E-04 -6.69846834E-16 -2.28722690E-15 -4.97198443E-04
  2.05099121E-04  5.02867771E-06  1.75785762E-05  1.67194579E-06 -8.43222916E-05
 -1.09470218E-05  1.51142549E-06  3.58149789E-06 -5.99182041E-16 -6.94095325E-06
  6.27341111E-06  1.56592457E-15  8.08934245E-05  1.53955749E-04  2.69880777E-14
  6.33902528E-05 -2.70431492E-05  3.64436420E-15 -1.29804973E-06 -5.26336210E-16
  8.46384172E-17 -1.45921666E-06  7.40053904E-07  1.40272617E-05  2.36957598E-15
 -2.13498760E-15  1.69735509E-05 -8.56073790E-06  2.23999265E-05  6.93480984E-15
 -6.71774948E-15  6.45368744E-05 -3.28013330E-05  7.93697891E-17  5.89263547E-07
 -3.20835281E-07 -2.99770147E-16  2.14718085E-16 -8.50577560E-07 -1.61268754E-06
 -3.62017530E-15 -4.66202471E-06 -1.05867875E-05  8.94457906E-16  4.85900836E-16
 -6.38254791E-06 -6.99505522E-06 -5.65328961E-08 -9.56328028E-06 -3.89641427E-05
 -6.70760033E-05 -9.56328028E-06 -3.89641427E-05 -6.70760033E-05 -3.43368949E-08
  4.30474314E-07  7.50865781E-17 -5.10197977E-06 -2.94148558E-06 -6.77868776E-15
  4.03521931E-06  2.04962844E-06 -4.00723898E-15 -3.43368953E-08  4.30474316E-07
  7.32917324E-16 -5.10197977E-06 -2.94148558E-06 -5.72945513E-15  4.03521931E-06
  2.04962844E-06 -3.35838954E-15 -2.83563832E-07  1.49773700E-15  1.87685850E-16
  3.51488495E-07 -2.25367257E-07 -2.87925236E-06  3.88523847E-15 -6.57740357E-16
  4.20591173E-06 -2.57678164E-06 -2.83563835E-07 -7.98535898E-17  3.02170765E-17
  3.51488495E-07 -2.25367258E-07 -2.87925236E-06  3.22639231E-15  5.26910937E-16
  4.20591173E-06 -2.57678164E-06  9.83172562E-01 -2.62137397E-03  2.28910382E-02
 -5.95763863E-03  1.78789595E-03 -8.02549864E-04  1.03926693E-04  1.85320024E-04
  3.18310186E-16 -1.37168592E-05 -4.00193344E-05 -8.30703164E-16  2.44232976E-05
  7.27858268E-05  7.70406405E-16  2.13584220E-05  9.90885336E-05  4.19642139E-16
 -1.48196707E-05 -1.30874722E-04  1.09658087E-15 -4.06961569E-05 -9.51211021E-17
  1.62444337E-16 -4.13825487E-05  3.71621694E-05 -4.94487212E-06  1.54476352E-16
  5.40572915E-16 -5.57826540E-06  4.59452584E-06 -9.52155991E-06 -5.39636794E-16
 -1.58853483E-15 -2.20532818E-05  3.04366011E-06  5.49035406E-06  1.00477407E-15
  2.07316845E-15  1.79924320E-05  1.38626605E-06  1.23509299E-16 -3.01627184E-07
 -3.69545496E-06  5.34282854E-16 -9.17403622E-17 -2.79794036E-06 -6.37150435E-06
  2.64546510E-17 -1.04748570E-06 -2.44234971E-06 -1.61467811E-17  1.78448700E-16
 -1.16610850E-06  7.76124165E-07  1.14503042E-06  1.10507693E-04 -2.02339957E-05
  1.74394088E-04  1.10507693E-04 -2.02339957E-05  1.74394088E-04  6.29907122E-07
  2.02089009E-06  2.70685410E-16 -3.04907582E-06  4.22577846E-06 -4.80537868E-15
 -1.25914583E-05  1.87523789E-05 -3.84380829E-15  6.29907122E-07  2.02089009E-06
  2.70685410E-16 -3.04907582E-06  4.22577846E-06 -4.80537868E-15 -1.25914583E-05
  1.87523789E-05 -3.94651131E-15 -3.75439958E-06 -3.43726656E-17 -5.00474219E-16
 -5.38510061E-06  2.45181809E-06  1.23490332E-05 -1.09543229E-15 -3.82377137E-15
  1.53300632E-05 -1.37496304E-05 -3.75439958E-06 -6.42058551E-17 -4.86807833E-16
 -5.38510061E-06  2.45181809E-06  1.23490332E-05 -1.10345702E-15 -3.41804679E-15
  1.53300632E-05 -1.37496304E-05  7.17047952E-06  1.22452025E-05 -2.29968096E-06
  9.99301394E-06  5.64187504E-05  2.93609667E-06  1.24616382E-05  2.58874421E-16
 -9.33588668E-06 -3.84443152E-08 -1.15284115E-15  3.58067345E-05  6.55901069E-05
 -8.97476721E-15  3.09046846E-06 -1.41663033E-05 -2.34047760E-15 -2.58397970E-07
  2.55859974E-16  4.80170488E-16 -6.01835055E-07  5.44111523E-07  4.98135086E-06
 -1.16249568E-15  2.61170009E-16  4.90232991E-06 -2.67849738E-06  7.38846389E-06
 -1.36866614E-15  2.57240008E-15  2.98680517E-05 -9.58871783E-07 -2.41343790E-17
  7.81878889E-07  1.48562349E-07 -8.85128670E-17  1.51838066E-16 -7.00361181E-07
 -5.66985264E-07  1.06205112E-15 -3.18399409E-06 -4.41320631E-06 -3.57635572E-16
 -6.89239850E-16 -1.25144985E-07  4.30338244E-08 -1.84356015E-07 -2.21105472E-06
 -2.92871473E-05 -3.03537404E-06 -2.21105472E-06 -2.92871473E-05 -3.03537405E-06
 -1.26101832E-07 -1.81881187E-07  1.56407429E-15 -6.40277826E-06 -3.97235677E-06
  2.77522937E-15  7.47534166E-06  1.89208650E-06 -1.10504740E-15 -1.26101828E-07