 Entering Gaussian System, Link 0=g16
 Input=ihod_rOH_095_sp.gjf
 Output=ihod_rOH_095_sp.log
 Initial command:
 /sw/contrib/gaussian/g16/B01/g16/l1.exe "/scr/Gau-25548.inp" -scrdir="/scr/"
 Entering Link 1 = /sw/contrib/gaussian/g16/B01/g16/l1.exe PID=     25549.
  
 Copyright (c) 1988-2017, Gaussian, Inc.  All Rights Reserved.
  
 This is part of the Gaussian(R) 16 program.  It is based on
 the Gaussian(R) 09 system (copyright 2009, Gaussian, Inc.),
 the Gaussian(R) 03 system (copyright 2003, Gaussian, Inc.),
 the Gaussian(R) 98 system (copyright 1998, Gaussian, Inc.),
 the Gaussian(R) 94 system (copyright 1995, Gaussian, Inc.),
 the Gaussian 92(TM) system (copyright 1992, Gaussian, Inc.),
 the Gaussian 90(TM) system (copyright 1990, Gaussian, Inc.),
 the Gaussian 88(TM) system (copyright 1988, Gaussian, Inc.),
 the Gaussian 86(TM) system (copyright 1986, Carnegie Mellon
 University), and the Gaussian 82(TM) system (copyright 1983,
 Carnegie Mellon University). Gaussian is a federally registered
 trademark of Gaussian, Inc.
  
 This software contains proprietary and confidential information,
 including trade secrets, belonging to Gaussian, Inc.
  
 This software is provided under written license and may be
 used, copied, transmitted, or stored only in accord with that
 written license.
  
 The following legend is applicable only to US Government
 contracts under FAR:
  
                    RESTRICTED RIGHTS LEGEND
  
 Use, reproduction and disclosure by the US Government is
 subject to restrictions as set forth in subparagraphs (a)
 and (c) of the Commercial Computer Software - Restricted
 Rights clause in FAR 52.227-19.
  
 Gaussian, Inc.
 340 Quinnipiac St., Bldg. 40, Wallingford CT 06492
  
  
 ---------------------------------------------------------------
 Warning -- This program may not be used in any manner that
 competes with the business of Gaussian, Inc. or will provide
 assistance to any competitor of Gaussian, Inc.  The licensee
 of this program is prohibited from giving any competitor of
 Gaussian, Inc. access to this program.  By using this program,
 the user acknowledges that Gaussian, Inc. is engaged in the
 business of creating and licensing software in the field of
 computational chemistry and represents and warrants to the
 licensee that it is not a competitor of Gaussian, Inc. and that
 it will not use this program in any manner prohibited above.
 ---------------------------------------------------------------
  

 Cite this work as:
 Gaussian 16, Revision B.01,
 M. J. Frisch, G. W. Trucks, H. B. Schlegel, G. E. Scuseria, 
 M. A. Robb, J. R. Cheeseman, G. Scalmani, V. Barone, 
 G. A. Petersson, H. Nakatsuji, X. Li, M. Caricato, A. V. Marenich, 
 J. Bloino, B. G. Janesko, R. Gomperts, B. Mennucci, H. P. Hratchian, 
 J. V. Ortiz, A. F. Izmaylov, J. L. Sonnenberg, D. Williams-Young, 
 F. Ding, F. Lipparini, F. Egidi, J. Goings, B. Peng, A. Petrone, 
 T. Henderson, D. Ranasinghe, V. G. Zakrzewski, J. Gao, N. Rega, 
 G. Zheng, W. Liang, M. Hada, M. Ehara, K. Toyota, R. Fukuda, 
 J. Hasegawa, M. Ishida, T. Nakajima, Y. Honda, O. Kitao, H. Nakai, 
 T. Vreven, K. Throssell, J. A. Montgomery, Jr., J. E. Peralta, 
 F. Ogliaro, M. J. Bearpark, J. J. Heyd, E. N. Brothers, K. N. Kudin, 
 V. N. Staroverov, T. A. Keith, R. Kobayashi, J. Normand, 
 K. Raghavachari, A. P. Rendell, J. C. Burant, S. S. Iyengar, 
 J. Tomasi, M. Cossi, J. M. Millam, M. Klene, C. Adamo, R. Cammi, 
 J. W. Ochterski, R. L. Martin, K. Morokuma, O. Farkas, 
 J. B. Foresman, and D. J. Fox, Gaussian, Inc., Wallingford CT, 2016.
 
 ******************************************
 Gaussian 16:  ES64L-G16RevB.01 20-Dec-2017
                26-Oct-2021 
 ******************************************
 %nproc=28
 Will use up to   28 processors via shared memory.
 %mem=120GB
 %chk=/gscratch/ilahie/mccoygrp/coire_hocl/rOH_s_oop_0/ihod/ihod_rOH_095.chk
 --------------------------------------------------------
 #p pop=NBO SP NoSymm mp2/gen Pseudo=read density=current
 --------------------------------------------------------
 1/30=1,38=1,172=1/1;
 2/12=2,15=1,17=6,18=5,40=1/2;
 3/5=7,11=9,16=1,17=8,25=1,30=1,71=1/1,2,3;
 4//1;
 5/5=2,38=5/2;
 8/6=4,10=1/1;
 9/15=1,16=-3/6;
 10/5=1,13=10,31=1/2;
 6/7=2,8=2,9=2,10=2,22=-1,40=1/1,7;
 99/5=1,9=1/99;
 Leave Link    1 at Tue Oct 26 13:20:42 2021, MaxMem= 16106127360 cpu:               2.1 elap:               0.1
 (Enter /sw/contrib/gaussian/g16/B01/g16/l101.exe)
 -----
 title
 -----
 Symbolic Z-matrix:
 Charge = -1 Multiplicity = 1
 O
 X                    1     10. 
 H(iso=2)             1    r1       2     90. 
 I                    1    r2       2     90.      3    a1       0
 H                    1    r3       2    oop      3    a1       0
       Variables:
  r1                    0.96091                  
  r2                    3.5085                   
  r3                    0.95                     
  a1                  101.85832                  
  OOP                  90.                       
 
 ITRead=  0  0  0  0
 MicOpt= -1 -1 -1 -1
 NAtoms=      4 NQM=        4 NQMF=       0 NMMI=      0 NMMIF=      0
                NMic=       0 NMicF=      0.
                    Isotopes and Nuclear Properties:
 (Nuclear quadrupole moments (NQMom) in fm**2, nuclear magnetic moments (NMagM)
  in nuclear magnetons)

  Atom         1           2           3           4
 IAtWgt=          16           2         127           1
 AtmWgt=  15.9949146   2.0141018 126.9004000   1.0078250
 NucSpn=           0           2           5           1
 AtZEff=  -0.0000000  -0.0000000  -0.0000000  -0.0000000
 NQMom=    0.0000000   0.2860000 -71.0000000   0.0000000
 NMagM=    0.0000000   0.8574380   2.8132800   2.7928460
 AtZNuc=   8.0000000   1.0000000  53.0000000   1.0000000
 Leave Link  101 at Tue Oct 26 13:20:42 2021, MaxMem= 16106127360 cpu:               2.7 elap:               0.1
 (Enter /sw/contrib/gaussian/g16/B01/g16/l202.exe)
                          Input orientation:                          
 ---------------------------------------------------------------------
 Center     Atomic      Atomic             Coordinates (Angstroms)
 Number     Number       Type             X           Y           Z
 ---------------------------------------------------------------------
      1          8           0        0.000000    0.000000    0.000000
      2          1           0        0.960908    0.000000    0.000000
      3         53           0       -0.720970   -3.433626    0.000000
      4          1           0       -0.195218   -0.929726    0.000000
 ---------------------------------------------------------------------
                    Distance matrix (angstroms):
                    1          2          3          4
     1  O    0.000000
     2  H    0.960908   0.000000
     3  I    3.508501   3.823414   0.000000
     4  H    0.950000   1.483582   2.558501   0.000000
 Symmetry turned off by external request.
 Stoichiometry    H2IO(1-)
 Framework group  CS[SG(H2IO)]
 Deg. of freedom     5
 Full point group                 CS      NOp   2
 Rotational constants (GHZ):         322.6295485           2.5100560           2.4906785
 Leave Link  202 at Tue Oct 26 13:20:42 2021, MaxMem= 16106127360 cpu:               3.5 elap:               0.2
 (Enter /sw/contrib/gaussian/g16/B01/g16/l301.exe)
 General basis read from cards:  (5D, 7F)
 Centers:       1      2      4
 aug-cc-pVTZ
 ****
 Centers:       3
 S 11 1.00
     Exponent=  5.5465000000D+03 Coefficients=  1.5600000000D-04
     Exponent=  8.3821400000D+02 Coefficients=  9.8600000000D-04
     Exponent=  1.8218700000D+02 Coefficients=  2.7920000000D-03
     Exponent=  3.1212300000D+01 Coefficients= -4.3251000000D-02
     Exponent=  1.9531400000D+01 Coefficients=  2.3413400000D-01
     Exponent=  8.2409900000D+00 Coefficients= -7.5094300000D-01
     Exponent=  2.1945500000D+00 Coefficients=  8.8296800000D-01
     Exponent=  1.1091100000D+00 Coefficients=  4.6206100000D-01
     Exponent=  3.7464100000D-01 Coefficients=  2.2286000000D-02
     Exponent=  1.7708000000D-01 Coefficients= -4.3530000000D-03
     Exponent=  8.1061000000D-02 Coefficients=  1.1020000000D-03
 S 11 1.00
     Exponent=  5.5465000000D+03 Coefficients= -7.3000000000D-05
     Exponent=  8.3821400000D+02 Coefficients= -5.0800000000D-04
     Exponent=  1.8218700000D+02 Coefficients= -1.1580000000D-03
     Exponent=  3.1212300000D+01 Coefficients=  1.2193000000D-02
     Exponent=  1.9531400000D+01 Coefficients= -8.7854000000D-02
     Exponent=  8.2409900000D+00 Coefficients=  3.3820000000D-01
     Exponent=  2.1945500000D+00 Coefficients= -5.7655000000D-01
     Exponent=  1.1091100000D+00 Coefficients= -4.0929800000D-01
     Exponent=  3.7464100000D-01 Coefficients=  5.6745900000D-01
     Exponent=  1.7708000000D-01 Coefficients=  6.1248900000D-01
     Exponent=  8.1061000000D-02 Coefficients=  1.4323100000D-01
 S 1 1.00
     Exponent=  3.7464100000D-01 Coefficients=  1.0000000000D+00
 S 1 1.00
     Exponent=  1.7708000000D-01 Coefficients=  1.0000000000D+00
 S 1 1.00
     Exponent=  1.0010000000D-01 Coefficients=  1.0000000000D+00
 S 1 1.00
     Exponent=  4.1200000000D-02 Coefficients=  1.0000000000D+00
 P 9 1.00
     Exponent=  1.8898800000D+02 Coefficients=  5.8500000000D-04
     Exponent=  2.1286800000D+01 Coefficients=  3.6923000000D-02
     Exponent=  1.0039600000D+01 Coefficients= -2.3532400000D-01
     Exponent=  3.4518000000D+00 Coefficients=  3.4148300000D-01
     Exponent=  1.9745600000D+00 Coefficients=  5.3478800000D-01
     Exponent=  1.0242000000D+00 Coefficients=  2.6514100000D-01
     Exponent=  4.4943700000D-01 Coefficients=  2.5787000000D-02
     Exponent=  1.8664800000D-01 Coefficients=  5.2200000000D-04
     Exponent=  7.3481000000D-02 Coefficients=  6.0600000000D-04
 P 9 1.00
     Exponent=  1.8898800000D+02 Coefficients= -2.5600000000D-04
     Exponent=  2.1286800000D+01 Coefficients= -1.1682000000D-02
     Exponent=  1.0039600000D+01 Coefficients=  8.3192000000D-02
     Exponent=  3.4518000000D+00 Coefficients= -1.5697000000D-01
     Exponent=  1.9745600000D+00 Coefficients= -2.2451800000D-01
     Exponent=  1.0242000000D+00 Coefficients= -1.1445100000D-01
     Exponent=  4.4943700000D-01 Coefficients=  3.7535600000D-01
     Exponent=  1.8664800000D-01 Coefficients=  5.7513600000D-01
     Exponent=  7.3481000000D-02 Coefficients=  2.4591700000D-01
 P 1 1.00
     Exponent=  5.9810000000D-01 Coefficients=  1.0000000000D+00
 P 1 1.00
     Exponent=  9.6180000000D-02 Coefficients=  1.0000000000D+00
 P 1 1.00
     Exponent=  3.5900000000D-02 Coefficients=  1.0000000000D+00
 D 9 1.00
     Exponent=  1.3266200000D+02 Coefficients=  5.7200000000D-04
     Exponent=  3.7605400000D+01 Coefficients=  4.4020000000D-03
     Exponent=  1.0389100000D+01 Coefficients= -4.0922000000D-02
     Exponent=  6.4901700000D+00 Coefficients=  9.9661000000D-02
     Exponent=  3.4545100000D+00 Coefficients=  3.2266300000D-01
     Exponent=  1.8441300000D+00 Coefficients=  4.0034300000D-01
     Exponent=  9.6247800000D-01 Coefficients=  2.6830600000D-01
     Exponent=  4.7285300000D-01 Coefficients=  8.4847000000D-02
     Exponent=  1.9320000000D-01 Coefficients=  7.6320000000D-03
 D 1 1.00
     Exponent=  4.7285300000D-01 Coefficients=  1.0000000000D+00
 D 1 1.00
     Exponent=  1.9320000000D-01 Coefficients=  1.0000000000D+00
 D 1 1.00
     Exponent=  7.8200000000D-02 Coefficients=  1.0000000000D+00
 F 1 1.00
     Exponent=  4.0640000000D-01 Coefficients=  1.0000000000D+00
 F 1 1.00
     Exponent=  1.8480000000D-01 Coefficients=  1.0000000000D+00
 ****
 ======================================================================================================
                                       Pseudopotential Parameters
 ======================================================================================================
  Center     Atomic      Valence      Angular      Power
  Number     Number     Electrons     Momentum     of R      Exponent        Coefficient   SO-Coeffient
 ======================================================================================================
    1          8
                                   No pseudopotential on this center.
    2          1
                                   No pseudopotential on this center.
    3         53           25
                                      G and up 
                                                     2        1.0000000        0.00000000    0.00000000
                                      S - G
                                                     2       40.0333760       49.98964900    0.00000000
                                                     2       17.3005760      281.00655600    0.00000000
                                                     2        8.8517200       61.41673900    0.00000000
                                      P - G
                                                     2       15.7201410       67.41623900    0.00000000
                                                     2       15.2082220      134.80769600    0.00000000
                                                     2        8.2941860       14.56654800    0.00000000
                                                     2        7.7539490       28.96842200    0.00000000
                                      D - G
                                                     2       13.8177510       35.53875600    0.00000000
                                                     2       13.5878050       53.33975900    0.00000000
                                                     2        6.9476300        9.71646600    0.00000000
                                                     2        6.9600990       14.97750000    0.00000000
                                      F - G
                                                     2       18.5229500      -20.17661800    0.00000000
                                                     2       18.2510350      -26.08807700    0.00000000
                                                     2        7.5579010       -0.22043400    0.00000000
                                                     2        7.5974040       -0.22164600    0.00000000
    4          1
                                   No pseudopotential on this center.
 ======================================================================================================
 Ernie: Thresh=  0.10000D-02 Tol=  0.10000D-05 Strict=F.
 Ernie:  10 primitive shells out of 113 were deleted.
   147 basis functions,   296 primitive gaussians,   170 cartesian basis functions
    18 alpha electrons       18 beta electrons
       nuclear repulsion energy        48.0148714022 Hartrees.
 IExCor=    0 DFT=F Ex=HF Corr=None ExCW=0 ScaHFX=  1.000000
 ScaDFX=  1.000000  1.000000  1.000000  1.000000 ScalE2=  1.000000  1.000000
 IRadAn=      5 IRanWt=     -1 IRanGd=            0 ICorTp=0 IEmpDi=  4
 NAtoms=    4 NActive=    4 NUniq=    4 SFac= 1.00D+00 NAtFMM=   60 NAOKFM=F Big=F
 Integral buffers will be    131072 words long.
 Raffenetti 1 integral format.
 Two-electron integral symmetry is turned off.
 Leave Link  301 at Tue Oct 26 13:20:42 2021, MaxMem= 16106127360 cpu:               2.0 elap:               0.1
 (Enter /sw/contrib/gaussian/g16/B01/g16/l302.exe)
 NPDir=0 NMtPBC=     1 NCelOv=     1 NCel=       1 NClECP=     1 NCelD=      1
         NCelK=      1 NCelE2=     1 NClLst=     1 CellRange=     0.0.
 One-electron integrals computed using PRISM.
   1 Symmetry operations used in ECPInt.
 ECPInt:  NShTT=    1225 NPrTT=    5557 LenC2=    1226 LenP2D=    4932.
 LDataN:  DoStor=T MaxTD1= 7 Len=  274
 NBasis=   147 RedAO= T EigKep=  2.60D-04  NBF=   147
 NBsUse=   147 1.00D-06 EigRej= -1.00D+00 NBFU=   147
 Leave Link  302 at Tue Oct 26 13:20:42 2021, MaxMem= 16106127360 cpu:               6.4 elap:               0.3
 (Enter /sw/contrib/gaussian/g16/B01/g16/l303.exe)
 DipDrv:  MaxL=1.
 Leave Link  303 at Tue Oct 26 13:20:42 2021, MaxMem= 16106127360 cpu:               1.4 elap:               0.1
 (Enter /sw/contrib/gaussian/g16/B01/g16/l401.exe)
 ExpMin= 2.53D-02 ExpMax= 1.53D+04 ExpMxC= 5.22D+02 IAcc=3 IRadAn=         5 AccDes= 0.00D+00
 Harris functional with IExCor=  205 and IRadAn=       5 diagonalized for initial guess.
 HarFok:  IExCor=  205 AccDes= 0.00D+00 IRadAn=         5 IDoV= 1 UseB2=F ITyADJ=14
 ICtDFT=  3500011 ScaDFX=  1.000000  1.000000  1.000000  1.000000
 Defaulting to unpruned grid for atomic number  53.
 FoFCou: FMM=F IPFlag=           0 FMFlag=      100000 FMFlg1=           0
         NFxFlg=           0 DoJE=T BraDBF=F KetDBF=T FulRan=T
         wScrn=  0.000000 ICntrl=       500 IOpCl=  0 I1Cent=   200000004 NGrid=           0
         NMat0=    1 NMatS0=      1 NMatT0=    0 NMatD0=    1 NMtDS0=    0 NMtDT0=    0
 Symmetry not used in FoFCou.
 Harris En= -372.682539797089    
 JPrj=0 DoOrth=F DoCkMO=F.
 Leave Link  401 at Tue Oct 26 13:20:43 2021, MaxMem= 16106127360 cpu:               6.7 elap:               0.3
 (Enter /sw/contrib/gaussian/g16/B01/g16/l502.exe)
 Keep R1 ints in memory in canonical form, NReq=117069339.
 FoFCou: FMM=F IPFlag=           0 FMFlag=           0 FMFlg1=           0
         NFxFlg=           0 DoJE=F BraDBF=F KetDBF=F FulRan=T
         wScrn=  0.000000 ICntrl=       600 IOpCl=  0 I1Cent=           0 NGrid=           0
         NMat0=    1 NMatS0=  10878 NMatT0=    0 NMatD0=    1 NMtDS0=    0 NMtDT0=    0
 Symmetry not used in FoFCou.
 Two-electron integral symmetry not used.
 Closed shell SCF:
 Using DIIS extrapolation, IDIIS=  1040.
 NGot= 16106127360 LenX= 16046892795 LenY= 16046863454
 Requested convergence on RMS density matrix=1.00D-08 within 128 cycles.
 Requested convergence on MAX density matrix=1.00D-06.
 Requested convergence on             energy=1.00D-06.
 No special actions if energy rises.

 Cycle   1  Pass 1  IDiag  1:
 E= -370.655250186778    
 DIIS: error= 4.09D-02 at cycle   1 NSaved=   1.
 NSaved= 1 IEnMin= 1 EnMin= -370.655250186778     IErMin= 1 ErrMin= 4.09D-02
 ErrMax= 4.09D-02  0.00D+00 EMaxC= 1.00D-01 BMatC= 3.74D-01 BMatP= 3.74D-01
 IDIUse=3 WtCom= 5.91D-01 WtEn= 4.09D-01
 Coeff-Com:  0.100D+01
 Coeff-En:   0.100D+01
 Coeff:      0.100D+01
 Gap=     0.393 Goal=   None    Shift=    0.000
 GapD=    0.393 DampG=1.000 DampE=0.500 DampFc=0.5000 IDamp=-1.
 Damping current iteration by 5.00D-01
 RMSDP=3.66D-03 MaxDP=1.02D-01              OVMax= 1.28D-01

 Cycle   2  Pass 1  IDiag  1:
 E= -370.740041576695     Delta-E=       -0.084791389916 Rises=F Damp=T
 DIIS: error= 1.55D-02 at cycle   2 NSaved=   2.
 NSaved= 2 IEnMin= 2 EnMin= -370.740041576695     IErMin= 2 ErrMin= 1.55D-02
 ErrMax= 1.55D-02  0.00D+00 EMaxC= 1.00D-01 BMatC= 5.75D-02 BMatP= 3.74D-01
 IDIUse=3 WtCom= 8.45D-01 WtEn= 1.55D-01
 Coeff-Com: -0.452D+00 0.145D+01
 Coeff-En:   0.000D+00 0.100D+01
 Coeff:     -0.382D+00 0.138D+01
 Gap=     0.263 Goal=   None    Shift=    0.000
 RMSDP=1.65D-03 MaxDP=8.07D-02 DE=-8.48D-02 OVMax= 6.47D-02

 Cycle   3  Pass 1  IDiag  1:
 E= -370.816165769127     Delta-E=       -0.076124192433 Rises=F Damp=F
 DIIS: error= 4.42D-03 at cycle   3 NSaved=   3.
 NSaved= 3 IEnMin= 3 EnMin= -370.816165769127     IErMin= 3 ErrMin= 4.42D-03
 ErrMax= 4.42D-03  0.00D+00 EMaxC= 1.00D-01 BMatC= 2.00D-03 BMatP= 5.75D-02
 IDIUse=3 WtCom= 9.56D-01 WtEn= 4.42D-02
 Coeff-Com: -0.127D+00 0.256D+00 0.872D+00
 Coeff-En:   0.000D+00 0.000D+00 0.100D+01
 Coeff:     -0.122D+00 0.244D+00 0.877D+00
 Gap=     0.271 Goal=   None    Shift=    0.000
 RMSDP=3.97D-04 MaxDP=1.67D-02 DE=-7.61D-02 OVMax= 1.05D-02

 Cycle   4  Pass 1  IDiag  1:
 E= -370.817526566368     Delta-E=       -0.001360797241 Rises=F Damp=F
 DIIS: error= 6.10D-04 at cycle   4 NSaved=   4.
 NSaved= 4 IEnMin= 4 EnMin= -370.817526566368     IErMin= 4 ErrMin= 6.10D-04
 ErrMax= 6.10D-04  0.00D+00 EMaxC= 1.00D-01 BMatC= 5.12D-05 BMatP= 2.00D-03
 IDIUse=3 WtCom= 9.94D-01 WtEn= 6.10D-03
 Coeff-Com:  0.313D-02-0.203D-01 0.836D-01 0.934D+00
 Coeff-En:   0.000D+00 0.000D+00 0.000D+00 0.100D+01
 Coeff:      0.311D-02-0.201D-01 0.831D-01 0.934D+00
 Gap=     0.273 Goal=   None    Shift=    0.000
 RMSDP=1.02D-04 MaxDP=6.04D-03 DE=-1.36D-03 OVMax= 3.18D-03

 Cycle   5  Pass 1  IDiag  1:
 E= -370.817583866246     Delta-E=       -0.000057299878 Rises=F Damp=F
 DIIS: error= 1.47D-04 at cycle   5 NSaved=   5.
 NSaved= 5 IEnMin= 5 EnMin= -370.817583866246     IErMin= 5 ErrMin= 1.47D-04
 ErrMax= 1.47D-04  0.00D+00 EMaxC= 1.00D-01 BMatC= 4.04D-06 BMatP= 5.12D-05
 IDIUse=3 WtCom= 9.99D-01 WtEn= 1.47D-03
 Coeff-Com:  0.905D-02-0.158D-01-0.627D-01 0.779D-02 0.106D+01
 Coeff-En:   0.000D+00 0.000D+00 0.000D+00 0.000D+00 0.100D+01
 Coeff:      0.903D-02-0.158D-01-0.626D-01 0.778D-02 0.106D+01
 Gap=     0.272 Goal=   None    Shift=    0.000
 RMSDP=4.57D-05 MaxDP=1.56D-03 DE=-5.73D-05 OVMax= 1.31D-03

 Cycle   6  Pass 1  IDiag  1:
 E= -370.817592233736     Delta-E=       -0.000008367490 Rises=F Damp=F
 DIIS: error= 4.59D-05 at cycle   6 NSaved=   6.
 NSaved= 6 IEnMin= 6 EnMin= -370.817592233736     IErMin= 6 ErrMin= 4.59D-05
 ErrMax= 4.59D-05  0.00D+00 EMaxC= 1.00D-01 BMatC= 3.14D-07 BMatP= 4.04D-06
 IDIUse=1 WtCom= 1.00D+00 WtEn= 0.00D+00
 Coeff-Com: -0.338D-02 0.688D-02 0.122D-01-0.887D-01-0.217D+00 0.129D+01
 Coeff:     -0.338D-02 0.688D-02 0.122D-01-0.887D-01-0.217D+00 0.129D+01
 Gap=     0.273 Goal=   None    Shift=    0.000
 RMSDP=1.22D-05 MaxDP=7.44D-04 DE=-8.37D-06 OVMax= 6.72D-04

 Cycle   7  Pass 1  IDiag  1:
 E= -370.817593204424     Delta-E=       -0.000000970689 Rises=F Damp=F
 DIIS: error= 1.12D-05 at cycle   7 NSaved=   7.
 NSaved= 7 IEnMin= 7 EnMin= -370.817593204424     IErMin= 7 ErrMin= 1.12D-05
 ErrMax= 1.12D-05  0.00D+00 EMaxC= 1.00D-01 BMatC= 1.07D-08 BMatP= 3.14D-07
 IDIUse=1 WtCom= 1.00D+00 WtEn= 0.00D+00
 Coeff-Com:  0.398D-03-0.915D-03-0.172D-04 0.226D-01-0.111D-01-0.291D+00
 Coeff-Com:  0.128D+01
 Coeff:      0.398D-03-0.915D-03-0.172D-04 0.226D-01-0.111D-01-0.291D+00
 Coeff:      0.128D+01
 Gap=     0.273 Goal=   None    Shift=    0.000
 RMSDP=2.47D-06 MaxDP=1.14D-04 DE=-9.71D-07 OVMax= 1.29D-04

 Cycle   8  Pass 1  IDiag  1:
 E= -370.817593242498     Delta-E=       -0.000000038073 Rises=F Damp=F
 DIIS: error= 2.06D-06 at cycle   8 NSaved=   8.
 NSaved= 8 IEnMin= 8 EnMin= -370.817593242498     IErMin= 8 ErrMin= 2.06D-06
 ErrMax= 2.06D-06  0.00D+00 EMaxC= 1.00D-01 BMatC= 3.57D-10 BMatP= 1.07D-08
 IDIUse=1 WtCom= 1.00D+00 WtEn= 0.00D+00
 Coeff-Com:  0.100D-03-0.197D-03-0.430D-03 0.208D-02 0.877D-02-0.316D-01
 Coeff-Com: -0.776D-01 0.110D+01
 Coeff:      0.100D-03-0.197D-03-0.430D-03 0.208D-02 0.877D-02-0.316D-01
 Coeff:     -0.776D-01 0.110D+01
 Gap=     0.273 Goal=   None    Shift=    0.000
 RMSDP=4.76D-07 MaxDP=2.16D-05 DE=-3.81D-08 OVMax= 1.45D-05

 Cycle   9  Pass 1  IDiag  1:
 E= -370.817593243472     Delta-E=       -0.000000000974 Rises=F Damp=F
 DIIS: error= 4.78D-07 at cycle   9 NSaved=   9.
 NSaved= 9 IEnMin= 9 EnMin= -370.817593243472     IErMin= 9 ErrMin= 4.78D-07
 ErrMax= 4.78D-07  0.00D+00 EMaxC= 1.00D-01 BMatC= 2.99D-11 BMatP= 3.57D-10
 IDIUse=1 WtCom= 1.00D+00 WtEn= 0.00D+00
 Coeff-Com: -0.372D-04 0.837D-04 0.192D-04-0.184D-02 0.497D-03 0.231D-01
 Coeff-Com: -0.808D-01-0.126D+00 0.118D+01
 Coeff:     -0.372D-04 0.837D-04 0.192D-04-0.184D-02 0.497D-03 0.231D-01
 Coeff:     -0.808D-01-0.126D+00 0.118D+01
 Gap=     0.273 Goal=   None    Shift=    0.000
 RMSDP=1.06D-07 MaxDP=3.23D-06 DE=-9.74D-10 OVMax= 4.85D-06

 Cycle  10  Pass 1  IDiag  1:
 E= -370.817593243555     Delta-E=       -0.000000000083 Rises=F Damp=F
 DIIS: error= 9.83D-08 at cycle  10 NSaved=  10.
 NSaved=10 IEnMin=10 EnMin= -370.817593243555     IErMin=10 ErrMin= 9.83D-08
 ErrMax= 9.83D-08  0.00D+00 EMaxC= 1.00D-01 BMatC= 2.00D-12 BMatP= 2.99D-11
 IDIUse=1 WtCom= 1.00D+00 WtEn= 0.00D+00
 Coeff-Com: -0.881D-05 0.172D-04 0.311D-04-0.225D-03-0.628D-03 0.339D-02
 Coeff-Com:  0.436D-03-0.721D-01 0.613D-01 0.101D+01
 Coeff:     -0.881D-05 0.172D-04 0.311D-04-0.225D-03-0.628D-03 0.339D-02
 Coeff:      0.436D-03-0.721D-01 0.613D-01 0.101D+01
 Gap=     0.273 Goal=   None    Shift=    0.000
 RMSDP=2.86D-08 MaxDP=1.47D-06 DE=-8.32D-11 OVMax= 8.79D-07

 Cycle  11  Pass 1  IDiag  1:
 E= -370.817593243559     Delta-E=       -0.000000000004 Rises=F Damp=F
 DIIS: error= 2.91D-08 at cycle  11 NSaved=  11.
 NSaved=11 IEnMin=11 EnMin= -370.817593243559     IErMin=11 ErrMin= 2.91D-08
 ErrMax= 2.91D-08  0.00D+00 EMaxC= 1.00D-01 BMatC= 1.37D-13 BMatP= 2.00D-12
 IDIUse=1 WtCom= 1.00D+00 WtEn= 0.00D+00
 Coeff-Com:  0.340D-05-0.760D-05-0.140D-05 0.163D-03-0.470D-04-0.196D-02
 Coeff-Com:  0.607D-02 0.152D-01-0.107D+00-0.619D-01 0.115D+01
 Coeff:      0.340D-05-0.760D-05-0.140D-05 0.163D-03-0.470D-04-0.196D-02
 Coeff:      0.607D-02 0.152D-01-0.107D+00-0.619D-01 0.115D+01
 Gap=     0.273 Goal=   None    Shift=    0.000
 RMSDP=1.55D-08 MaxDP=9.88D-07 DE=-3.87D-12 OVMax= 5.01D-07

 Cycle  12  Pass 1  IDiag  1:
 E= -370.817593243562     Delta-E=       -0.000000000003 Rises=F Damp=F
 DIIS: error= 5.87D-09 at cycle  12 NSaved=  12.
 NSaved=12 IEnMin=12 EnMin= -370.817593243562     IErMin=12 ErrMin= 5.87D-09
 ErrMax= 5.87D-09  0.00D+00 EMaxC= 1.00D-01 BMatC= 4.17D-15 BMatP= 1.37D-13
 IDIUse=1 WtCom= 1.00D+00 WtEn= 0.00D+00
 Coeff-Com: -0.667D-06 0.162D-05-0.525D-06-0.401D-04 0.423D-04 0.435D-03
 Coeff-Com: -0.174D-02-0.138D-02 0.279D-01-0.242D-01-0.294D+00 0.129D+01
 Coeff:     -0.667D-06 0.162D-05-0.525D-06-0.401D-04 0.423D-04 0.435D-03
 Coeff:     -0.174D-02-0.138D-02 0.279D-01-0.242D-01-0.294D+00 0.129D+01
 Gap=     0.273 Goal=   None    Shift=    0.000
 RMSDP=3.18D-09 MaxDP=1.92D-07 DE=-2.84D-12 OVMax= 9.02D-08

 SCF Done:  E(RHF) =  -370.817593244     A.U. after   12 cycles
            NFock= 12  Conv=0.32D-08     -V/T= 2.9840
 KE= 1.868994638413D+02 PE=-9.097213852106D+02 EE= 3.039894567236D+02
 Leave Link  502 at Tue Oct 26 13:20:45 2021, MaxMem= 16106127360 cpu:              30.9 elap:               2.1
 (Enter /sw/contrib/gaussian/g16/B01/g16/l801.exe)
 ExpMin= 2.53D-02 ExpMax= 1.53D+04 ExpMxC= 5.22D+02 IAcc=3 IRadAn=         5 AccDes= 0.00D+00
 HarFok:  IExCor=  205 AccDes= 0.00D+00 IRadAn=         5 IDoV=-2 UseB2=F ITyADJ=14
 ICtDFT= 12500011 ScaDFX=  1.000000  1.000000  1.000000  1.000000
 Defaulting to unpruned grid for atomic number  53.
 DSYEVD-2 returned Info=        1623 IAlg= 4 N=    55 NDim=    55 NE2=   292837268 trying  DSYEV.
 Largest valence mixing into a core orbital is  1.30D-04
 Largest core mixing into a valence orbital is  2.09D-05
 Range of M.O.s used for correlation:     6   147
 NBasis=   147 NAE=    18 NBE=    18 NFC=     5 NFV=     0
 NROrb=    142 NOA=    13 NOB=    13 NVA=   129 NVB=   129

 **** Warning!!: The largest alpha MO coefficient is  0.15798984D+02

 Leave Link  801 at Tue Oct 26 13:20:45 2021, MaxMem= 16106127360 cpu:               2.1 elap:               0.1
 (Enter /sw/contrib/gaussian/g16/B01/g16/l906.exe)
 Frozen-core derivative calculation, NFC=   5 NFV=   0.
 FulOut=F Deriv=T AODrv=F NAtomX=     4
   MMem=         225  MDisk=          13 MDiskD=          13
  W3Min=      449820 MinDsk=      818995 NBas6D=         170
 NBas2D=       14925    NTT=       14535    LW2=    26219120
    MDV= 16105851673 MDiskM=      473642 NBas2p=       14925
 Fully in-core method, ICMem=   303093605.
 IMap=   1   2   3   4   5   6   7   8   9  10  11  12  13  14  15  16  17  18
 JobTyp=1 Pass  1 fully in-core, NPsUse= 28.
 Compute canonical integrals.
 FoFCou: FMM=F IPFlag=           0 FMFlag=           0 FMFlg1=           0
         NFxFlg=           0 DoJE=F BraDBF=F KetDBF=F FulRan=T
         wScrn=  0.000000 ICntrl=       600 IOpCl=  1 I1Cent=           0 NGrid=           0
         NMat0=    1 NMatS0=  14925 NMatT0=    0 NMatD0=    1 NMtDS0=    0 NMtDT0=    0
 Symmetry not used in FoFCou.
 Spin components of T(2) and E(2):
     alpha-alpha T2 =       0.2145653784D-01 E2=     -0.6716273029D-01
     alpha-beta  T2 =       0.1122709440D+00 E2=     -0.3609698521D+00
     beta-beta   T2 =       0.2145653784D-01 E2=     -0.6716273029D-01
 The integrals were generated   1 times.
 ANorm=    0.1074794873D+01
 E2 =    -0.4952953127D+00 EUMP2 =    -0.37131288855625D+03
 Leave Link  906 at Tue Oct 26 13:20:48 2021, MaxMem= 16106127360 cpu:              83.7 elap:               3.0
 (Enter /sw/contrib/gaussian/g16/B01/g16/l1002.exe)
 Minotr:  Closed shell wavefunction.
          Computing MP2/KS-MP2 derivatives.
          Using Z-Vector for PSCF gradient.
          Skipping F1 and S1 gradient terms here.
          Frozen-core window.
          Direct CPHF calculation.
          Differentiating once with respect to electric field.
                with respect to dipole field.
          Electric field/nuclear overlap derivatives assumed to be zero.
          Requested convergence is 1.0D-10 RMS, and 1.0D-09 maximum.
          NewPWx=F KeepS1=T KeepF1=T KeepIn=T MapXYZ=F SortEE=F KeepMc=T.
 Keep R1 ints in memory in canonical form, NReq=117071983.
 FoFCou: FMM=F IPFlag=           0 FMFlag=           0 FMFlg1=           0
         NFxFlg=           0 DoJE=F BraDBF=F KetDBF=F FulRan=T
         wScrn=  0.000000 ICntrl=       600 IOpCl=  0 I1Cent=           0 NGrid=           0
         NMat0=    1 NMatS0=  10878 NMatT0=    0 NMatD0=    1 NMtDS0=    0 NMtDT0=    0
 Symmetry not used in FoFCou.
 Two-electron integral symmetry not used.
          MDV=   16106127360 using IRadAn=       5.
          Solving linear equations separately, MaxMat=       0.
          There are     1 degrees of freedom in the 1st order CPHF.  IDoFFX=0 NUNeed=     1.
 LinEq1:  Iter=  0 NonCon=     1 RMS=2.60D-03 Max=4.49D-02 NDo=     1
 AX will form     1 AO Fock derivatives at one time.
 LinEq1:  Iter=  1 NonCon=     1 RMS=4.16D-04 Max=4.88D-03 NDo=     1
 LinEq1:  Iter=  2 NonCon=     1 RMS=1.87D-04 Max=2.71D-03 NDo=     1
 LinEq1:  Iter=  3 NonCon=     1 RMS=4.24D-05 Max=6.47D-04 NDo=     1
 LinEq1:  Iter=  4 NonCon=     1 RMS=1.22D-05 Max=1.30D-04 NDo=     1
 LinEq1:  Iter=  5 NonCon=     1 RMS=3.21D-06 Max=4.18D-05 NDo=     1
 LinEq1:  Iter=  6 NonCon=     1 RMS=6.73D-07 Max=1.06D-05 NDo=     1
 LinEq1:  Iter=  7 NonCon=     1 RMS=1.51D-07 Max=2.28D-06 NDo=     1
 LinEq1:  Iter=  8 NonCon=     1 RMS=4.26D-08 Max=5.75D-07 NDo=     1
 LinEq1:  Iter=  9 NonCon=     1 RMS=8.29D-09 Max=1.30D-07 NDo=     1
 LinEq1:  Iter= 10 NonCon=     1 RMS=1.34D-09 Max=1.73D-08 NDo=     1
 LinEq1:  Iter= 11 NonCon=     1 RMS=2.26D-10 Max=3.84D-09 NDo=     1
 LinEq1:  Iter= 12 NonCon=     1 RMS=6.22D-11 Max=1.03D-09 NDo=     1
 LinEq1:  Iter= 13 NonCon=     0 RMS=1.32D-11 Max=1.72D-10 NDo=     1
 Linear equations converged to 1.000D-10 1.000D-09 after    13 iterations.
 End of Minotr F.D. properties file   721 does not exist.
 End of Minotr F.D. properties file   722 does not exist.
 End of Minotr F.D. properties file   788 does not exist.
 Leave Link 1002 at Tue Oct 26 13:20:50 2021, MaxMem= 16106127360 cpu:              33.6 elap:               2.4
 (Enter /sw/contrib/gaussian/g16/B01/g16/l601.exe)
 Copying SCF densities to generalized density rwf, IOpCl= 0 IROHF=0.

 **********************************************************************

            Population analysis using the MP2 Density.

 **********************************************************************

 Alpha  occ. eigenvalues --  -20.40300  -7.46576  -5.29129  -5.29107  -5.29103
 Alpha  occ. eigenvalues --   -2.01873  -2.01859  -2.01854  -2.01832  -2.01832
 Alpha  occ. eigenvalues --   -1.19478  -0.62738  -0.55164  -0.43367  -0.35076
 Alpha  occ. eigenvalues --   -0.14650  -0.14124  -0.14088
 Alpha virt. eigenvalues --    0.13168   0.16960   0.23358   0.24548   0.25281
 Alpha virt. eigenvalues --    0.26925   0.28668   0.29129   0.31274   0.33564
 Alpha virt. eigenvalues --    0.36698   0.37241   0.37601   0.39577   0.40944
 Alpha virt. eigenvalues --    0.41949   0.44645   0.47556   0.54185   0.54397
 Alpha virt. eigenvalues --    0.56985   0.59968   0.66733   0.71407   0.77817
 Alpha virt. eigenvalues --    0.78006   0.78506   0.79826   0.80114   0.80128
 Alpha virt. eigenvalues --    0.82760   0.84363   0.85402   0.85809   0.86818
 Alpha virt. eigenvalues --    0.87634   0.88497   0.88853   0.89908   0.89985
 Alpha virt. eigenvalues --    0.92942   0.97255   1.00443   1.06427   1.06835
 Alpha virt. eigenvalues --    1.09195   1.10263   1.12605   1.14488   1.15160
 Alpha virt. eigenvalues --    1.16649   1.19162   1.32937   1.36567   1.38357
 Alpha virt. eigenvalues --    1.41420   1.48264   1.52753   1.54480   1.67705
 Alpha virt. eigenvalues --    1.73319   1.74248   1.75282   1.75392   1.77044
 Alpha virt. eigenvalues --    1.78077   1.81274   1.85068   1.88318   1.89614
 Alpha virt. eigenvalues --    2.02506   2.04856   2.05700   2.08085   2.10796
 Alpha virt. eigenvalues --    2.10808   2.15754   2.28438   2.43900   2.52558
 Alpha virt. eigenvalues --    2.56584   2.60803   2.60810   2.63179   2.67921
 Alpha virt. eigenvalues --    2.83467   2.85672   2.88499   2.97624   3.03500
 Alpha virt. eigenvalues --    3.07395   3.25625   3.27573   3.81353   3.87483
 Alpha virt. eigenvalues --    4.21551   4.24075   4.32879   4.34214   4.43024
 Alpha virt. eigenvalues --    4.45968   4.55245   4.56824   4.61109   4.75284
 Alpha virt. eigenvalues --    4.95304   5.17047   5.32477   5.38588   5.46650
 Alpha virt. eigenvalues --    5.59037   5.71699   5.85494   6.39670   6.67899
 Alpha virt. eigenvalues --    6.88437   7.13275   7.29738   7.43314   7.45674
 Alpha virt. eigenvalues --    7.50444   7.53998   7.57342   7.86720   8.07548
 Alpha virt. eigenvalues --    8.16586   9.03447  16.83436  59.22209
          Condensed to atoms (all electrons):
               1          2          3          4
     1  O    8.238630   0.223956  -0.054300   0.095125
     2  H    0.223956   0.602264   0.007687  -0.002304
     3  I   -0.054300   0.007687  25.934628   0.035908
     4  H    0.095125  -0.002304   0.035908   0.612332
 Mulliken charges:
               1
     1  O   -0.503410
     2  H    0.168396
     3  I   -0.923924
     4  H    0.258939
 Sum of Mulliken charges =  -1.00000
 Mulliken charges with hydrogens summed into heavy atoms:
               1
     1  O   -0.076076
     3  I   -0.923924
 Electronic spatial extent (au):  <R**2>=           1236.0292
 Charge=             -1.0000 electrons
 Dipole moment (field-independent basis, Debye):
    X=              4.1975    Y=             13.8071    Z=              0.0000  Tot=             14.4311
 Quadrupole moment (field-independent basis, Debye-Ang):
   XX=            -41.4069   YY=            -92.2990   ZZ=            -41.8899
   XY=            -10.0054   XZ=              0.0000   YZ=             -0.0000
 Traceless Quadrupole moment (field-independent basis, Debye-Ang):
   XX=             17.1250   YY=            -33.7670   ZZ=             16.6420
   XY=            -10.0054   XZ=              0.0000   YZ=             -0.0000
 Octapole moment (field-independent basis, Debye-Ang**2):
  XXX=             74.4563  YYY=            526.1806  ZZZ=             -0.0000  XYY=             59.3086
  XXY=            123.9225  XXZ=             -0.0000  XZZ=             23.6706  YZZ=            116.6144
  YYZ=             -0.0000  XYZ=             -0.0000
 Hexadecapole moment (field-independent basis, Debye-Ang**3):
 XXXX=           -180.8411 YYYY=          -3066.0021 ZZZZ=            -76.6155 XXXY=           -254.4539
 XXXZ=              0.0000 YYYX=           -370.0536 YYYZ=              0.0000 ZZZX=              0.0000
 ZZZY=              0.0000 XXYY=           -466.5926 XXZZ=            -43.1095 YYZZ=           -424.5472
 XXYZ=              0.0000 YYXZ=              0.0000 ZZXY=            -83.1830
 N-N= 4.801487140216D+01 E-N=-9.091526356807D+02  KE= 1.870854384979D+02
 No NMR shielding tensors so no spin-rotation constants.
 Leave Link  601 at Tue Oct 26 13:20:50 2021, MaxMem= 16106127360 cpu:               4.0 elap:               0.2
 (Enter /sw/contrib/gaussian/g16/B01/g16/l607.exe)
 ******************************Gaussian NBO Version 3.1******************************
             N A T U R A L   A T O M I C   O R B I T A L   A N D
          N A T U R A L   B O N D   O R B I T A L   A N A L Y S I S
 ******************************Gaussian NBO Version 3.1******************************
       /RESON  / : Allow strongly delocalized NBO set

 Analyzing the MP2 density

 Job title: title                                                           

 Storage needed:     65577 in NPA,     86948 in NBO (********** available)
 GSVD:  LWork=       -1281 too small for GESVD, short by       46116 words or       46116 for optimal perf.


 NATURAL POPULATIONS:  Natural atomic orbital occupancies 
                                                          
   NAO  Atom  No  lang   Type(AO)    Occupancy
 --------------------------------------------
     1    O    1  S      Cor( 1S)     1.99966
     2    O    1  S      Val( 2S)     1.73205
     3    O    1  S      Ryd( 3S)     0.00620
     4    O    1  S      Ryd( 4S)     0.00056
     5    O    1  S      Ryd( 5S)     0.00023
     6    O    1  px     Val( 2p)     1.52525
     7    O    1  px     Ryd( 3p)     0.00966
     8    O    1  px     Ryd( 4p)     0.00057
     9    O    1  px     Ryd( 5p)     0.00008
    10    O    1  py     Val( 2p)     1.65263
    11    O    1  py     Ryd( 3p)     0.01186
    12    O    1  py     Ryd( 4p)     0.00065
    13    O    1  py     Ryd( 5p)     0.00011
    14    O    1  pz     Val( 2p)     1.95341
    15    O    1  pz     Ryd( 3p)     0.02162
    16    O    1  pz     Ryd( 4p)     0.00062
    17    O    1  pz     Ryd( 5p)     0.00000
    18    O    1  dxy    Ryd( 3d)     0.00858
    19    O    1  dxy    Ryd( 4d)     0.00049
    20    O    1  dxy    Ryd( 5d)     0.00012
    21    O    1  dxz    Ryd( 3d)     0.00938
    22    O    1  dxz    Ryd( 4d)     0.00092
    23    O    1  dxz    Ryd( 5d)     0.00018
    24    O    1  dyz    Ryd( 3d)     0.00776
    25    O    1  dyz    Ryd( 4d)     0.00046
    26    O    1  dyz    Ryd( 5d)     0.00015
    27    O    1  dx2y2  Ryd( 3d)     0.01213
    28    O    1  dx2y2  Ryd( 4d)     0.00027
    29    O    1  dx2y2  Ryd( 5d)     0.00014
    30    O    1  dz2    Ryd( 3d)     0.00903
    31    O    1  dz2    Ryd( 4d)     0.00044
    32    O    1  dz2    Ryd( 5d)     0.00011
    33    O    1  f(0)   Ryd( 4f)     0.00086
    34    O    1  f(0)   Ryd( 5f)     0.00014
    35    O    1  f(C1)  Ryd( 4f)     0.00054
    36    O    1  f(C1)  Ryd( 5f)     0.00008
    37    O    1  f(S1)  Ryd( 4f)     0.00060
    38    O    1  f(S1)  Ryd( 5f)     0.00009
    39    O    1  f(C2)  Ryd( 4f)     0.00054
    40    O    1  f(C2)  Ryd( 5f)     0.00012
    41    O    1  f(S2)  Ryd( 4f)     0.00046
    42    O    1  f(S2)  Ryd( 5f)     0.00007
    43    O    1  f(C3)  Ryd( 4f)     0.00040
    44    O    1  f(C3)  Ryd( 5f)     0.00011
    45    O    1  f(S3)  Ryd( 4f)     0.00046
    46    O    1  f(S3)  Ryd( 5f)     0.00014

    47    H    2  S      Val( 1S)     0.54588
    48    H    2  S      Ryd( 2S)     0.00163
    49    H    2  S      Ryd( 3S)     0.00039
    50    H    2  S      Ryd( 4S)     0.00014
    51    H    2  px     Ryd( 3p)     0.00023
    52    H    2  px     Ryd( 2p)     0.00068
    53    H    2  px     Ryd( 4p)     0.00016
    54    H    2  py     Ryd( 2p)     0.00054
    55    H    2  py     Ryd( 3p)     0.00016
    56    H    2  py     Ryd( 4p)     0.00007
    57    H    2  pz     Ryd( 2p)     0.00141
    58    H    2  pz     Ryd( 3p)     0.00016
    59    H    2  pz     Ryd( 4p)     0.00005
    60    H    2  dxy    Ryd( 3d)     0.00010
    61    H    2  dxy    Ryd( 4d)     0.00006
    62    H    2  dxz    Ryd( 3d)     0.00036
    63    H    2  dxz    Ryd( 4d)     0.00008
    64    H    2  dyz    Ryd( 3d)     0.00011
    65    H    2  dyz    Ryd( 4d)     0.00005
    66    H    2  dx2y2  Ryd( 3d)     0.00011
    67    H    2  dx2y2  Ryd( 4d)     0.00005
    68    H    2  dz2    Ryd( 3d)     0.00012
    69    H    2  dz2    Ryd( 4d)     0.00006

    70    I    3  S      Cor( 4S)     2.00002
    71    I    3  S      Val( 5S)     1.97866
    72    I    3  S      Ryd( 6S)     0.00304
    73    I    3  S      Ryd( 7S)     0.00054
    74    I    3  S      Ryd( 8S)     0.00007
    75    I    3  S      Ryd( 9S)     0.00000
    76    I    3  px     Cor( 4p)     2.00006
    77    I    3  px     Val( 5p)     1.95004
    78    I    3  px     Ryd( 6p)     0.01101
    79    I    3  px     Ryd( 7p)     0.00075
    80    I    3  px     Ryd( 8p)     0.00008
    81    I    3  py     Cor( 4p)     2.00002
    82    I    3  py     Val( 5p)     1.92393
    83    I    3  py     Ryd( 6p)     0.00990
    84    I    3  py     Ryd( 7p)     0.00067
    85    I    3  py     Ryd( 8p)     0.00016
    86    I    3  pz     Cor( 4p)     2.00007
    87    I    3  pz     Val( 5p)     1.95163
    88    I    3  pz     Ryd( 6p)     0.01101
    89    I    3  pz     Ryd( 7p)     0.00075
    90    I    3  pz     Ryd( 8p)     0.00008
    91    I    3  dxy    Cor( 4d)     1.99674
    92    I    3  dxy    Ryd( 5d)     0.02026
    93    I    3  dxy    Ryd( 6d)     0.00144
    94    I    3  dxy    Ryd( 7d)     0.00018
    95    I    3  dxz    Cor( 4d)     1.99678
    96    I    3  dxz    Ryd( 5d)     0.02018
    97    I    3  dxz    Ryd( 6d)     0.00167
    98    I    3  dxz    Ryd( 7d)     0.00016
    99    I    3  dyz    Cor( 4d)     1.99676
   100    I    3  dyz    Ryd( 5d)     0.02024
   101    I    3  dyz    Ryd( 6d)     0.00142
   102    I    3  dyz    Ryd( 7d)     0.00018
   103    I    3  dx2y2  Cor( 4d)     1.99671
   104    I    3  dx2y2  Ryd( 5d)     0.01994
   105    I    3  dx2y2  Ryd( 6d)     0.00161
   106    I    3  dx2y2  Ryd( 7d)     0.00019
   107    I    3  dz2    Cor( 4d)     1.99676
   108    I    3  dz2    Ryd( 5d)     0.02010
   109    I    3  dz2    Ryd( 6d)     0.00166
   110    I    3  dz2    Ryd( 7d)     0.00018
   111    I    3  f(0)   Ryd( 4f)     0.00273
   112    I    3  f(0)   Ryd( 5f)     0.00043
   113    I    3  f(C1)  Ryd( 4f)     0.00276
   114    I    3  f(C1)  Ryd( 5f)     0.00043
   115    I    3  f(S1)  Ryd( 4f)     0.00277
   116    I    3  f(S1)  Ryd( 5f)     0.00045
   117    I    3  f(C2)  Ryd( 4f)     0.00272
   118    I    3  f(C2)  Ryd( 5f)     0.00043
   119    I    3  f(S2)  Ryd( 4f)     0.00277
   120    I    3  f(S2)  Ryd( 5f)     0.00044
   121    I    3  f(C3)  Ryd( 4f)     0.00269
   122    I    3  f(C3)  Ryd( 5f)     0.00044
   123    I    3  f(S3)  Ryd( 4f)     0.00273
   124    I    3  f(S3)  Ryd( 5f)     0.00045

   125    H    4  S      Val( 1S)     0.49768
   126    H    4  S      Ryd( 2S)     0.00624
   127    H    4  S      Ryd( 3S)     0.00040
   128    H    4  S      Ryd( 4S)     0.00013
   129    H    4  px     Ryd( 2p)     0.00375
   130    H    4  px     Ryd( 3p)     0.00037
   131    H    4  px     Ryd( 4p)     0.00011
   132    H    4  py     Ryd( 2p)     0.00398
   133    H    4  py     Ryd( 3p)     0.00050
   134    H    4  py     Ryd( 4p)     0.00022
   135    H    4  pz     Ryd( 2p)     0.00423
   136    H    4  pz     Ryd( 3p)     0.00040
   137    H    4  pz     Ryd( 4p)     0.00011
   138    H    4  dxy    Ryd( 3d)     0.00021
   139    H    4  dxy    Ryd( 4d)     0.00009
   140    H    4  dxz    Ryd( 3d)     0.00017
   141    H    4  dxz    Ryd( 4d)     0.00008
   142    H    4  dyz    Ryd( 3d)     0.00022
   143    H    4  dyz    Ryd( 4d)     0.00008
   144    H    4  dx2y2  Ryd( 3d)     0.00024
   145    H    4  dx2y2  Ryd( 4d)     0.00010
   146    H    4  dz2    Ryd( 3d)     0.00018
   147    H    4  dz2    Ryd( 4d)     0.00008

 [ 28 electrons found in the effective core potential]

 WARNING:  5 low occupancy (<1.9990e) core orbitals found on  I    3


 Summary of Natural Population Analysis:                  
                                                          
                                       Natural Population 
                Natural  -----------------------------------------------
    Atom  No    Charge         Core      Valence    Rydberg      Total
 -----------------------------------------------------------------------
      O    1   -0.96993      1.99966     6.86334    0.10693     8.96993
      H    2    0.44738      0.00000     0.54588    0.00673     0.55262
      I    3   -0.95788     45.98392     7.80425    0.16970    53.95788
      H    4    0.48040      0.00000     0.49768    0.02192     0.51960
 =======================================================================
   * Total *   -1.00002     47.98359    15.71116    0.30528    64.00002

                                 Natural Population      
 --------------------------------------------------------
   Effective Core            28.00000
   Core                      19.98359 ( 99.9179% of  20)
   Valence                   15.71116 ( 98.1947% of  16)
   Natural Minimal Basis     63.69475 ( 99.5230% of  64)
   Natural Rydberg Basis      0.30528 (  0.4770% of  64)
 --------------------------------------------------------

    Atom  No          Natural Electron Configuration
 ----------------------------------------------------------------------------
      O    1      [core]2S( 1.73)2p( 5.13)3S( 0.01)3p( 0.04)3d( 0.05)
      H    2            1S( 0.55)
      I    3      [core]5S( 1.98)5p( 5.83)4f( 0.02)5d( 0.10)6p( 0.03)6d( 0.01)
      H    4            1S( 0.50)2S( 0.01)2p( 0.01)


 NATURAL BOND ORBITAL ANALYSIS:
 Warning:  a bond orbital has occupanc of -0.00008

                       Occupancies       Lewis Structure    Low   High
           Occ.    -------------------  -----------------   occ   occ
  Cycle   Thresh.   Lewis   Non-Lewis     CR  BD  3C  LP    (L)   (NL)   Dev
 =============================================================================
   1(1)    1.90    63.65606   0.34394     10   2   0   6     0      0    0.04
 -----------------------------------------------------------------------------

 Structure accepted: No low occupancy Lewis orbitals

 WARNING:  5 low occupancy (<1.9990e) core orbitals found on  I    3

 --------------------------------------------------------
   Effective Core           28.00000
   Core                     19.98359 ( 99.918% of  20)
   Valence Lewis            15.67247 ( 97.953% of  16)
  ==================       ============================
   Total Lewis              63.65606 ( 99.463% of  64)
  -----------------------------------------------------
   Valence non-Lewis         0.06806 (  0.106% of  64)
   Rydberg non-Lewis         0.27588 (  0.431% of  64)
  ==================       ============================
   Total non-Lewis           0.34394 (  0.537% of  64)
 --------------------------------------------------------


       (Occupancy)   Bond orbital/ Coefficients/ Hybrids
 ---------------------------------------------------------------------------------
     1. (1.96648) BD ( 1) O   1 - H   2  
                ( 73.00%)   0.8544* O   1 s( 21.16%)p 3.70( 78.39%)d 0.02(  0.43%)
                                                  f 0.00(  0.01%)
                                            0.0002  0.4600 -0.0079  0.0008 -0.0042
                                            0.8828 -0.0330  0.0086 -0.0013  0.0565
                                           -0.0162  0.0019 -0.0035  0.0000  0.0000
                                            0.0000  0.0000 -0.0205  0.0017  0.0020
                                            0.0000  0.0000  0.0000  0.0000  0.0000
                                            0.0000  0.0519 -0.0035  0.0036 -0.0346
                                            0.0014  0.0001  0.0000  0.0000 -0.0094
                                           -0.0005 -0.0001 -0.0001  0.0000  0.0000
                                            0.0000  0.0000  0.0028  0.0032  0.0018
                                           -0.0002
                ( 27.00%)   0.5196* H   2 s( 99.90%)p 0.00(  0.09%)d 0.00(  0.01%)
                                            0.9995  0.0034 -0.0003  0.0001 -0.0012
                                            0.0299 -0.0041  0.0021 -0.0015 -0.0013
                                            0.0000  0.0000  0.0000  0.0010 -0.0023
                                            0.0000  0.0000  0.0000  0.0000  0.0063
                                           -0.0023 -0.0052  0.0006
     2. (1.96915) BD ( 1) O   1 - H   4  
                ( 76.53%)   0.8748* O   1 s( 27.23%)p 2.66( 72.33%)d 0.02(  0.43%)
                                                  f 0.00(  0.01%)
                                           -0.0003 -0.5218  0.0038  0.0008  0.0015
                                            0.2165 -0.0197  0.0003  0.0017  0.8219
                                           -0.0196  0.0082 -0.0038  0.0000  0.0000
                                            0.0000  0.0000  0.0032 -0.0058  0.0033
                                            0.0000  0.0000  0.0000  0.0000  0.0000
                                            0.0000  0.0537 -0.0029  0.0000  0.0365
                                           -0.0005 -0.0030  0.0000  0.0000 -0.0021
                                            0.0001 -0.0097  0.0001  0.0000  0.0000
                                            0.0000  0.0000 -0.0031 -0.0019  0.0005
                                           -0.0043
                ( 23.47%)   0.4844* H   4 s( 99.91%)p 0.00(  0.09%)d 0.00(  0.01%)
                                           -0.9993 -0.0202 -0.0001  0.0001 -0.0165
                                           -0.0006  0.0002  0.0040 -0.0229 -0.0087
                                            0.0000  0.0000  0.0000 -0.0003  0.0024
                                            0.0000  0.0000  0.0000  0.0000 -0.0059
                                            0.0020  0.0015  0.0018
     3. (1.99966) CR ( 1) O   1           s(100.00%)
                                            1.0000 -0.0004  0.0000 -0.0000  0.0000
                                           -0.0001  0.0000 -0.0000  0.0000  0.0001
                                           -0.0000  0.0000 -0.0000  0.0000  0.0000
                                            0.0000  0.0000 -0.0000 -0.0000  0.0000
                                            0.0000  0.0000  0.0000  0.0000  0.0000
                                            0.0000  0.0000  0.0000 -0.0000  0.0000
                                            0.0000 -0.0000  0.0000  0.0000  0.0000
                                            0.0000 -0.0000 -0.0000  0.0000  0.0000
                                            0.0000  0.0000 -0.0000 -0.0000 -0.0000
                                           -0.0000
     4. (2.00002) CR ( 1) I   3           s(100.00%)
                                            1.0000  0.0000 -0.0000 -0.0000  0.0000
                                            0.0000 -0.0000  0.0000  0.0000 -0.0000
                                           -0.0000 -0.0000  0.0001 -0.0000 -0.0000
                                            0.0000  0.0000  0.0000  0.0000  0.0000
                                            0.0000 -0.0000  0.0000 -0.0000  0.0000
                                            0.0000  0.0000  0.0000  0.0000  0.0000
                                            0.0000  0.0000  0.0000  0.0000 -0.0000
                                            0.0000  0.0000  0.0000 -0.0000  0.0000
                                            0.0000  0.0000  0.0000 -0.0000 -0.0000
                                           -0.0000 -0.0000  0.0000  0.0000  0.0000
                                            0.0000 -0.0000 -0.0000 -0.0000 -0.0000
     5. (2.00006) CR ( 2) I   3           s(  0.00%)p 1.00(100.00%)
                                           -0.0000  0.0000  0.0000 -0.0000  0.0000
                                           -0.0000  1.0000 -0.0001 -0.0000 -0.0000
                                            0.0000 -0.0000  0.0001 -0.0000 -0.0000
                                            0.0000  0.0000  0.0000  0.0000  0.0000
                                            0.0000 -0.0000 -0.0000  0.0000  0.0000
                                            0.0000  0.0000  0.0000  0.0000  0.0000
                                            0.0000  0.0000  0.0000  0.0000 -0.0000
                                            0.0000  0.0000  0.0000 -0.0000  0.0000
                                            0.0000  0.0000  0.0000  0.0000  0.0000
                                           -0.0000 -0.0000  0.0000  0.0000  0.0000
                                            0.0000  0.0000  0.0000 -0.0000 -0.0000
     6. (2.00002) CR ( 3) I   3           s(  0.00%)p 1.00(100.00%)
                                           -0.0000  0.0001 -0.0000 -0.0000  0.0000
                                            0.0000 -0.0000  0.0001  0.0000 -0.0000
                                           -0.0000  1.0000  0.0002 -0.0000 -0.0000
                                            0.0000  0.0000  0.0000  0.0000  0.0000
                                            0.0000 -0.0000  0.0000 -0.0000 -0.0000
                                            0.0000  0.0000  0.0000  0.0000  0.0000
                                            0.0000  0.0000  0.0000  0.0000 -0.0000
                                            0.0000  0.0000  0.0000 -0.0000  0.0000
                                           -0.0000  0.0000  0.0000 -0.0000 -0.0000
                                           -0.0000 -0.0000  0.0000  0.0000  0.0000
                                            0.0000 -0.0000 -0.0000 -0.0000 -0.0000
     7. (2.00007) CR ( 4) I   3           s(  0.00%)p 1.00(100.00%)
                                            0.0000  0.0000  0.0000  0.0000  0.0000
                                            0.0000  0.0000  0.0000  0.0000  0.0000
                                            0.0000  0.0000  0.0000  0.0000  0.0000
                                            0.0000  1.0000 -0.0001 -0.0000 -0.0000
                                            0.0000  0.0000  0.0000  0.0000  0.0000
                                            0.0000 -0.0000  0.0000 -0.0000  0.0000
                                           -0.0000  0.0000  0.0000  0.0000  0.0000
                                            0.0000  0.0000  0.0000  0.0000  0.0000
                                            0.0000  0.0000  0.0000  0.0000  0.0000
                                            0.0000  0.0000  0.0000  0.0000 -0.0000
                                           -0.0000  0.0000  0.0000  0.0000  0.0000
     8. (1.99674) CR ( 5) I   3           s(  0.00%)p 0.00(  0.00%)d 1.00(100.00%)
                                           -0.0000  0.0000 -0.0000 -0.0000  0.0000
                                            0.0000 -0.0000  0.0000  0.0000 -0.0000
                                           -0.0000 -0.0000  0.0001 -0.0000 -0.0000
                                            0.0000  0.0000  0.0000  0.0000  0.0000
                                            0.0000  1.0000  0.0000 -0.0000 -0.0000
                                            0.0000  0.0000  0.0000  0.0000  0.0000
                                            0.0000  0.0000  0.0000  0.0000 -0.0000
                                            0.0000  0.0000  0.0000 -0.0000  0.0000
                                           -0.0000  0.0000  0.0000 -0.0000 -0.0000
                                           -0.0000 -0.0000  0.0000  0.0000  0.0000
                                            0.0000 -0.0000 -0.0000 -0.0000 -0.0000
     9. (1.99678) CR ( 6) I   3           s(  0.00%)p 0.00(  0.00%)d 1.00(100.00%)
                                            0.0000  0.0000  0.0000  0.0000  0.0000
                                            0.0000  0.0000  0.0000  0.0000  0.0000
                                            0.0000  0.0000  0.0000  0.0000  0.0000
                                            0.0000  0.0000  0.0000  0.0000  0.0000
                                           -0.0000  0.0000  0.0000  0.0000  0.0000
                                            1.0000  0.0000 -0.0000  0.0000 -0.0000
                                            0.0000 -0.0000 -0.0000  0.0000  0.0000
                                            0.0000  0.0000  0.0000  0.0000  0.0000
                                            0.0000 -0.0000 -0.0000  0.0000  0.0000
                                            0.0000  0.0000 -0.0000 -0.0000  0.0000
                                            0.0000  0.0000  0.0000  0.0000  0.0000
    10. (1.99676) CR ( 7) I   3           s(  0.00%)p 0.00(  0.00%)d 1.00(100.00%)
                                            0.0000  0.0000  0.0000  0.0000  0.0000
                                            0.0000  0.0000  0.0000  0.0000  0.0000
                                            0.0000  0.0000  0.0000  0.0000  0.0000
                                            0.0000  0.0000  0.0000  0.0000  0.0000
                                           -0.0000  0.0000  0.0000  0.0000  0.0000
                                           -0.0000  0.0000 -0.0000  0.0000  1.0000
                                            0.0000 -0.0000 -0.0000  0.0000  0.0000
                                            0.0000  0.0000  0.0000  0.0000  0.0000
                                            0.0000 -0.0000 -0.0000  0.0000  0.0000
                                            0.0000  0.0000 -0.0000 -0.0000  0.0000
                                            0.0000  0.0000  0.0000  0.0000  0.0000
    11. (1.99671) CR ( 8) I   3           s(  0.00%)p 0.00(  0.00%)d 1.00(100.00%)
                                            0.0000 -0.0001  0.0000  0.0000 -0.0000
                                           -0.0000  0.0000 -0.0000 -0.0000  0.0000
                                            0.0000  0.0000 -0.0002  0.0000  0.0000
                                           -0.0000  0.0000  0.0000  0.0000  0.0000
                                            0.0000  0.0000 -0.0000  0.0000 -0.0000
                                            0.0000  0.0000  0.0000  0.0000  0.0000
                                            0.0000  0.0000  0.0000  1.0000  0.0000
                                           -0.0000 -0.0000 -0.0000  0.0000 -0.0000
                                           -0.0000  0.0000  0.0000  0.0000  0.0000
                                            0.0000  0.0000  0.0000  0.0000  0.0000
                                            0.0000  0.0000  0.0000  0.0000  0.0000
    12. (1.99676) CR ( 9) I   3           s(  0.00%)p 0.00(  0.00%)d 1.00(100.00%)
                                            0.0000 -0.0000  0.0000  0.0000 -0.0000
                                           -0.0000  0.0000 -0.0000 -0.0000  0.0000
                                            0.0000  0.0000 -0.0001  0.0000  0.0000
                                           -0.0000  0.0000  0.0000  0.0000  0.0000
                                            0.0000  0.0000 -0.0000  0.0000 -0.0000
                                            0.0000  0.0000  0.0000  0.0000  0.0000
                                            0.0000  0.0000  0.0000 -0.0000  0.0000
                                           -0.0000 -0.0000  1.0000  0.0000 -0.0000
                                           -0.0000  0.0000  0.0000  0.0000  0.0000
                                            0.0000  0.0000  0.0000  0.0000  0.0000
                                            0.0000  0.0000  0.0000  0.0000  0.0000
    13. (1.97022) LP ( 1) O   1           s( 51.52%)p 0.94( 48.35%)d 0.00(  0.13%)
                                                  f 0.00(  0.00%)
                                            0.0002  0.7177  0.0054  0.0002  0.0025
                                           -0.4090 -0.0030  0.0030 -0.0011  0.5622
                                            0.0105 -0.0041 -0.0006  0.0000  0.0000
                                            0.0000  0.0000  0.0311 -0.0039 -0.0024
                                            0.0000  0.0000  0.0000  0.0000  0.0000
                                            0.0000  0.0083  0.0000 -0.0034  0.0144
                                           -0.0021  0.0014  0.0000  0.0000  0.0020
                                           -0.0002 -0.0041  0.0015  0.0000  0.0000
                                            0.0000  0.0000  0.0011 -0.0002  0.0032
                                           -0.0024
    14. (1.96155) LP ( 2) O   1           s(  0.00%)p 1.00( 99.70%)d 0.00(  0.27%)
                                                  f 0.00(  0.03%)
                                            0.0000  0.0000  0.0000  0.0000  0.0000
                                            0.0000  0.0000  0.0000  0.0000  0.0000
                                            0.0000  0.0000  0.0000  0.9979  0.0333
                                           -0.0072  0.0029  0.0000  0.0000  0.0000
                                            0.0397 -0.0134  0.0077 -0.0298  0.0002
                                            0.0062  0.0000  0.0000  0.0000  0.0000
                                            0.0000  0.0000 -0.0140  0.0052  0.0000
                                            0.0000  0.0000  0.0000  0.0044 -0.0036
                                            0.0023 -0.0003  0.0000  0.0000  0.0000
                                            0.0000
    15. (1.97974) LP ( 1) I   3           s( 98.18%)p 0.02(  1.82%)d 0.00(  0.00%)
                                                  f 0.00(  0.00%)
                                            0.0000  0.9909  0.0002  0.0001 -0.0002
                                           -0.0000 -0.0000 -0.0257  0.0003 -0.0001
                                            0.0002 -0.0001 -0.1324  0.0004 -0.0006
                                            0.0001  0.0000  0.0000  0.0000  0.0000
                                            0.0000 -0.0000  0.0007 -0.0003 -0.0001
                                            0.0000  0.0000  0.0000  0.0000  0.0000
                                            0.0000  0.0000  0.0000  0.0000 -0.0011
                                            0.0004  0.0001  0.0000 -0.0009  0.0003
                                            0.0001  0.0000  0.0000 -0.0001 -0.0001
                                           -0.0005 -0.0003  0.0000  0.0000  0.0000
                                            0.0000 -0.0004 -0.0002 -0.0005 -0.0002
    16. (1.95171) LP ( 2) I   3           s(  0.00%)p 1.00(100.00%)d 0.00(  0.00%)
                                                  f 0.00(  0.00%)
                                            0.0000  0.0000  0.0000  0.0000  0.0000
                                            0.0000  0.0000  0.0000  0.0000  0.0000
                                            0.0000  0.0000  0.0000  0.0000  0.0000
                                            0.0000  0.0001  1.0000  0.0004  0.0008
                                           -0.0000  0.0000  0.0000  0.0000  0.0000
                                           -0.0000  0.0025 -0.0012  0.0009 -0.0000
                                            0.0045 -0.0008 -0.0014  0.0000  0.0000
                                            0.0000  0.0000  0.0000  0.0000  0.0000
                                            0.0000 -0.0016 -0.0011  0.0000  0.0000
                                            0.0000  0.0000 -0.0015 -0.0008  0.0011
                                            0.0009  0.0000  0.0000  0.0000  0.0000
    17. (1.95151) LP ( 3) I   3           s(  0.00%)p 1.00( 99.99%)d 0.00(  0.00%)
                                                  f 0.00(  0.00%)
                                           -0.0000  0.0034  0.0010 -0.0022  0.0020
                                           -0.0001 -0.0001 -0.9766 -0.0018 -0.0014
                                            0.0007  0.0000  0.2149 -0.0009 -0.0004
                                            0.0007 -0.0000 -0.0000 -0.0000 -0.0000
                                           -0.0000  0.0000 -0.0050  0.0009  0.0010
                                           -0.0000 -0.0000 -0.0000 -0.0000 -0.0000
                                           -0.0000 -0.0000 -0.0000  0.0000 -0.0039
                                            0.0015 -0.0006 -0.0000  0.0009 -0.0007
                                            0.0010 -0.0000 -0.0000  0.0008  0.0006
                                           -0.0001  0.0000 -0.0000 -0.0000 -0.0000
                                           -0.0000  0.0015  0.0006 -0.0018 -0.0013
    18. (1.92212) LP ( 4) I   3           s(  1.82%)p54.00( 98.15%)d 0.01(  0.03%)
                                                  f 0.00(  0.00%)
                                           -0.0001  0.1348 -0.0014 -0.0011  0.0011
                                            0.0002 -0.0000  0.2134  0.0006 -0.0002
                                           -0.0003 -0.0002  0.9675 -0.0021 -0.0022
                                            0.0006  0.0000  0.0000  0.0000  0.0000
                                            0.0000 -0.0001  0.0073 -0.0012  0.0001
                                            0.0000  0.0000  0.0000  0.0000  0.0000
                                            0.0000  0.0000  0.0000  0.0002 -0.0116
                                            0.0015  0.0014  0.0001 -0.0086  0.0016
                                            0.0000  0.0000  0.0000 -0.0008 -0.0004
                                           -0.0034 -0.0019  0.0000  0.0000  0.0000
                                            0.0000 -0.0024 -0.0007 -0.0031 -0.0013
    19. (0.01987) RY*( 1) O   1           s(  0.00%)p 1.00( 97.45%)d 0.03(  2.47%)
                                                  f 0.00(  0.08%)
                                            0.0000  0.0000  0.0000  0.0000  0.0000
                                            0.0000  0.0000  0.0000  0.0000  0.0000
                                            0.0000  0.0000  0.0000 -0.0410  0.9856
                                            0.0350 -0.0173  0.0000  0.0000  0.0000
                                            0.1387 -0.0372  0.0190 -0.0598  0.0095
                                            0.0039  0.0000  0.0000  0.0000  0.0000
                                            0.0000  0.0000 -0.0181  0.0160  0.0000
                                            0.0000  0.0000  0.0000  0.0114 -0.0087
                                           -0.0029 -0.0006  0.0000  0.0000  0.0000
                                            0.0000
    20. (0.01525) RY*( 2) O   1           s( 21.17%)p 3.57( 75.54%)d 0.15(  3.15%)
                                                  f 0.01(  0.13%)
                                            0.0000 -0.0112  0.4600  0.0053 -0.0025
                                            0.0116 -0.4560 -0.0159  0.0038 -0.0086
                                            0.7393  0.0140 -0.0145  0.0000  0.0000
                                            0.0000  0.0000  0.1734 -0.0190 -0.0024
                                            0.0000  0.0000  0.0000  0.0000  0.0000
                                            0.0000  0.0100  0.0008 -0.0083  0.0283
                                           -0.0115  0.0016  0.0000  0.0000 -0.0002
                                           -0.0003 -0.0010  0.0051  0.0000  0.0000
                                            0.0000  0.0000  0.0214 -0.0069  0.0253
                                           -0.0128
    21. (0.00702) RY*( 3) O   1           s(  6.32%)p 9.71( 61.34%)d 5.02( 31.71%)
                                                  f 0.10(  0.63%)
                                            0.0000  0.0056  0.2467 -0.0456  0.0148
                                           -0.0603 -0.6352 -0.0265 -0.0085 -0.0316
                                           -0.4515 -0.0267  0.0011 -0.0000 -0.0000
                                           -0.0000 -0.0000 -0.4131  0.0022 -0.0128
                                           -0.0000 -0.0000 -0.0000 -0.0000 -0.0000
                                           -0.0000  0.3746  0.0589 -0.0292  0.0383
                                            0.0093  0.0000 -0.0000 -0.0000 -0.0334
                                            0.0124 -0.0069 -0.0022 -0.0000 -0.0000
                                           -0.0000 -0.0000  0.0026 -0.0051 -0.0656
                                            0.0258
    22. (0.00629) RY*( 4) O   1           s(  0.00%)p 1.00(  0.48%)d99.99( 98.32%)
                                                  f 2.50(  1.20%)
                                            0.0000  0.0000  0.0000  0.0000  0.0000
                                            0.0000  0.0000  0.0000  0.0000  0.0000
                                            0.0000  0.0000  0.0000 -0.0086 -0.0675
                                           -0.0133 -0.0008  0.0000  0.0000  0.0000
                                            0.7569  0.0536 -0.0145  0.6363  0.0469
                                           -0.0093  0.0000  0.0000  0.0000  0.0000
                                            0.0000  0.0000 -0.0010  0.0002  0.0000
                                            0.0000  0.0000  0.0000  0.1005 -0.0399
                                           -0.0169  0.0067  0.0000  0.0000  0.0000
                                            0.0000
    23. (0.00619) RY*( 5) O   1           s( 10.85%)p 0.96( 10.37%)d 7.17( 77.81%)
                                                  f 0.09(  0.97%)
                                           -0.0000  0.0136  0.3286  0.0196 -0.0024
                                            0.0173  0.2795  0.0206 -0.0090  0.0365
                                            0.1529  0.0042 -0.0073  0.0000  0.0000
                                            0.0000  0.0000 -0.7711 -0.0399  0.0150
                                            0.0000  0.0000  0.0000  0.0000  0.0000
                                            0.0000 -0.4059 -0.0318  0.0107  0.1235
                                            0.0201 -0.0105  0.0000  0.0000 -0.0008
                                            0.0067  0.0309 -0.0139  0.0000  0.0000
                                            0.0000  0.0000 -0.0877  0.0258 -0.0108
                                           -0.0014
    24. (0.00591) RY*( 6) O   1           s(  0.00%)p 1.00(  1.99%)d48.82( 97.21%)
                                                  f 0.40(  0.80%)
                                            0.0000  0.0000  0.0000  0.0000  0.0000
                                            0.0000  0.0000  0.0000  0.0000  0.0000
                                            0.0000  0.0000  0.0000  0.0431  0.1339
                                            0.0087  0.0073  0.0000  0.0000  0.0000
                                           -0.6237 -0.0640  0.0173  0.7577  0.0675
                                           -0.0046  0.0000  0.0000  0.0000  0.0000
                                            0.0000  0.0000  0.0744 -0.0289  0.0000
                                            0.0000  0.0000  0.0000  0.0061 -0.0030
                                            0.0372 -0.0133  0.0000  0.0000  0.0000
                                            0.0000
    25. (0.00566) RY*( 7) O   1           s(  7.62%)p 0.72(  5.49%)d11.32( 86.29%)
                                                  f 0.08(  0.60%)
                                           -0.0000  0.0223  0.2752 -0.0052 -0.0013
                                            0.0335  0.1497  0.0134 -0.0088 -0.0403
                                           -0.1704 -0.0197 -0.0102  0.0000  0.0000
                                            0.0000  0.0000  0.2498  0.0249 -0.0053
                                            0.0000  0.0000  0.0000  0.0000  0.0000
                                            0.0000  0.0530  0.0066  0.0037  0.8874
                                            0.0971 -0.0064  0.0000  0.0000  0.0503
                                           -0.0183 -0.0521  0.0196  0.0000  0.0000
                                            0.0000  0.0000  0.0006 -0.0009 -0.0003
                                            0.0015
    26. (0.00295) RY*( 8) O   1           s( 13.68%)p 1.64( 22.43%)d 4.61( 63.11%)
                                                  f 0.06(  0.78%)
                                           -0.0000 -0.0049  0.3698  0.0034  0.0049
                                            0.0281 -0.2030  0.0140 -0.0482  0.0263
                                           -0.4166 -0.0479 -0.0568 -0.0000 -0.0000
                                           -0.0000 -0.0000  0.3278  0.0733 -0.0007
                                           -0.0000 -0.0000 -0.0000 -0.0000 -0.0000
                                           -0.0000 -0.6808 -0.0696 -0.0661 -0.2098
                                           -0.0389 -0.0094 -0.0000 -0.0000  0.0182
                                           -0.0116  0.0348 -0.0272 -0.0000 -0.0000
                                           -0.0000 -0.0000 -0.0060 -0.0073  0.0669
                                           -0.0288
    27. (0.00227) RY*( 9) O   1           s( 38.99%)p 0.65( 25.26%)d 0.90( 35.19%)
                                                  f 0.01(  0.55%)
                                            0.0000 -0.0058  0.6215  0.0193 -0.0566
                                           -0.0121  0.4801  0.0655 -0.0044 -0.0068
                                           -0.1117 -0.0463 -0.0552  0.0000  0.0000
                                            0.0000  0.0000  0.1234  0.0489 -0.0150
                                            0.0000  0.0000  0.0000  0.0000  0.0000
                                            0.0000  0.4316  0.0956  0.0714 -0.3470
                                           -0.1038 -0.0483  0.0000  0.0000 -0.0130
                                            0.0334  0.0152 -0.0113  0.0000  0.0000
                                            0.0000  0.0000  0.0409 -0.0434 -0.0175
                                           -0.0022
    28. (0.00079) RY*(10) O   1           s( 56.09%)p 0.68( 37.92%)d 0.09(  4.93%)
                                                  f 0.02(  1.06%)
                                            0.0000 -0.0044 -0.0455  0.7475  0.0074
                                            0.0000 -0.0375 -0.0106 -0.0468  0.0006
                                            0.0127 -0.6090 -0.0666  0.0000  0.0000
                                            0.0000  0.0000 -0.0258  0.0344 -0.0716
                                            0.0000  0.0000  0.0000  0.0000  0.0000
                                            0.0000  0.0214 -0.0576  0.0859  0.0308
                                           -0.1193  0.1265  0.0000  0.0000  0.0156
                                            0.0020  0.0199  0.0432  0.0000  0.0000
                                            0.0000  0.0000  0.0150  0.0457  0.0589
                                            0.0480
    29. (0.00055) RY*(11) O   1           s(  0.00%)p 1.00(  0.73%)d99.99( 76.05%)
                                                  f31.61( 23.22%)
                                            0.0000  0.0000  0.0000  0.0000  0.0000
                                            0.0000  0.0000  0.0000  0.0000  0.0000
                                            0.0000  0.0000  0.0000  0.0171  0.0485
                                            0.0399  0.0558  0.0000  0.0000  0.0000
                                           -0.0163  0.8497  0.0379  0.0283 -0.1890
                                            0.0153  0.0000  0.0000  0.0000  0.0000
                                            0.0000  0.0000  0.3203 -0.0347  0.0000
                                            0.0000  0.0000  0.0000 -0.3360  0.0416
                                            0.1172  0.0064  0.0000  0.0000  0.0000
                                            0.0000
    30. (0.00054) RY*(12) O   1           s(  0.00%)p 1.00( 72.32%)d 0.33( 24.11%)
                                                  f 0.05(  3.57%)
                                            0.0000  0.0000  0.0000  0.0000  0.0000
                                            0.0000  0.0000  0.0000  0.0000  0.0000
                                            0.0000  0.0000  0.0000  0.0051 -0.0371
                                            0.8463  0.0743  0.0000  0.0000  0.0000
                                            0.0230  0.0153  0.0362 -0.0205  0.4873
                                            0.0338  0.0000  0.0000  0.0000  0.0000
                                            0.0000  0.0000 -0.0563  0.0184  0.0000
                                            0.0000  0.0000  0.0000 -0.1790  0.0074
                                            0.0020 -0.0085  0.0000  0.0000  0.0000
                                            0.0000
    31. (0.00053) RY*(13) O   1           s(  0.81%)p50.40( 40.85%)d57.43( 46.54%)
                                                  f14.56( 11.80%)
                                            0.0000 -0.0057 -0.0422 -0.0440  0.0660
                                           -0.0058 -0.0337  0.6190 -0.0837  0.0067
                                            0.0553 -0.1182 -0.0074  0.0000  0.0000
                                            0.0000  0.0000 -0.0003  0.5430  0.0193
                                            0.0000  0.0000  0.0000  0.0000  0.0000
                                            0.0000  0.0091  0.1093  0.0025 -0.0286
                                            0.3958  0.0251  0.0000  0.0000 -0.0175
                                            0.0084  0.2165  0.0002  0.0000  0.0000
                                            0.0000  0.0000 -0.2052  0.0103 -0.1682
                                            0.0141
    32. (0.00046) RY*(14) O   1           s(  1.32%)p 8.40( 11.09%)d 3.07(  4.05%)
                                                  f63.25( 83.54%)
                                           -0.0000  0.0031  0.0054  0.1129 -0.0208
                                            0.0068  0.0119 -0.2995  0.0331  0.0094
                                            0.0073  0.1352  0.0388  0.0000  0.0000
                                            0.0000  0.0000  0.0170  0.1590  0.0296
                                            0.0000  0.0000  0.0000  0.0000  0.0000
                                            0.0000 -0.0326 -0.0417 -0.0153  0.0312
                                           -0.1000  0.0084  0.0000  0.0000  0.1949
                                            0.0082  0.5514  0.0409  0.0000  0.0000
                                            0.0000  0.0000  0.2712  0.0195 -0.6463
                                           -0.0062
    33. (0.00043) RY*(15) O   1           s(  2.98%)p 5.26( 15.67%)d 3.25(  9.69%)
                                                  f24.03( 71.66%)
                                            0.0000 -0.0006 -0.0121  0.0891  0.1474
                                           -0.0012 -0.0256  0.3306 -0.0111 -0.0029
                                           -0.0032  0.2152  0.0186  0.0000  0.0000
                                            0.0000  0.0000 -0.0756  0.1348 -0.0715
                                            0.0000  0.0000  0.0000  0.0000  0.0000
                                            0.0000  0.0233 -0.1485 -0.0409 -0.0028
                                           -0.2088 -0.0068  0.0000  0.0000  0.7049
                                            0.0895 -0.2120 -0.0094  0.0000  0.0000
                                            0.0000  0.0000  0.3713  0.0453  0.1611
                                            0.0261
    34. (0.00044) RY*(16) O   1           s(  0.00%)p 1.00(  0.21%)d27.72(  5.96%)
                                                  f99.99( 93.83%)
[...]
                                           -0.0202  0.1767  0.1342 -0.0209  0.8061
                                           -0.0073 -0.0009 -0.5380  0.0385 -0.0150
                                            0.0000  0.0000  0.0000 -0.0542  0.0046
                                            0.0000  0.0000  0.0000  0.0000  0.0551
                                            0.0115 -0.0525  0.0014
   127. (0.00253) RY*( 4) H   4           s( 26.51%)p 2.74( 72.63%)d 0.03(  0.86%)
                                           -0.0068  0.4462  0.2527  0.0457 -0.5556
                                            0.0296 -0.0092 -0.6135  0.1993 -0.0224
                                           -0.0000 -0.0000 -0.0000  0.0362 -0.0354
                                           -0.0000 -0.0000 -0.0000 -0.0000  0.0290
                                            0.0541  0.0398  0.0269
   128. (0.00041) RY*( 5) H   4           s(  7.99%)p11.12( 88.76%)d 0.41(  3.25%)
                                           -0.0016  0.0007 -0.1894  0.2097 -0.0017
                                           -0.9058  0.1291 -0.0452  0.1657 -0.1450
                                           -0.0000 -0.0000 -0.0000  0.0042 -0.1227
                                           -0.0000 -0.0000 -0.0000 -0.0000 -0.1315
                                            0.0052  0.0061 -0.0074
   129. (0.00033) RY*( 6) H   4           s(  0.00%)p 1.00( 84.06%)d 0.19( 15.94%)
                                            0.0000  0.0000  0.0000  0.0000  0.0000
                                            0.0000  0.0000  0.0000  0.0000  0.0000
                                           -0.1446  0.9043  0.0438  0.0000  0.0000
                                            0.1785 -0.0351  0.3382  0.1091  0.0000
                                            0.0000  0.0000  0.0000
   130. (0.00032) RY*( 7) H   4           s(  4.61%)p11.08( 51.08%)d 9.61( 44.31%)
                                            0.0043 -0.0629  0.0317  0.2028  0.0238
                                            0.0889 -0.2039  0.0810  0.0632 -0.6710
                                            0.0000  0.0000  0.0000 -0.2227 -0.1494
                                            0.0000  0.0000  0.0000  0.0000  0.3987
                                            0.3018  0.2585  0.2332
   131. (0.00025) RY*( 8) H   4           s(  3.61%)p 3.95( 14.26%)d22.77( 82.14%)
                                           -0.0027 -0.0047  0.0939  0.1650  0.0256
                                            0.0864 -0.2148  0.0625  0.2762  0.0901
                                           -0.0000 -0.0000 -0.0000 -0.6347  0.1521
                                           -0.0000 -0.0000 -0.0000 -0.0000 -0.6029
                                            0.1090  0.1411  0.0065
   132. (0.00022) RY*( 9) H   4           s(  0.00%)p 1.00( 22.44%)d 3.46( 77.56%)
                                            0.0000  0.0000  0.0000  0.0000  0.0000
                                            0.0000  0.0000  0.0000  0.0000  0.0000
                                            0.0833 -0.3487  0.3096  0.0000  0.0000
                                            0.2129 -0.0996  0.8413 -0.1122  0.0000
                                            0.0000  0.0000  0.0000
   133. (0.00019) RY*(10) H   4           s( 52.93%)p 0.31( 16.65%)d 0.57( 30.41%)
                                           -0.0033 -0.1041  0.6733 -0.2554  0.0316
                                           -0.2336  0.1565  0.1901  0.1320  0.1815
                                            0.0000  0.0000  0.0000 -0.1154  0.0438
                                            0.0000  0.0000  0.0000  0.0000  0.2521
                                           -0.2008  0.4299  0.0157
   134. (0.00018) RY*(11) H   4           s(  5.16%)p11.63( 59.98%)d 6.76( 34.87%)
                                           -0.0148 -0.0760  0.2005  0.0731  0.1130
                                            0.1503  0.0494  0.2038  0.7185 -0.0647
                                            0.0000  0.0000  0.0000  0.4787 -0.1039
                                            0.0000  0.0000  0.0000  0.0000 -0.1526
                                            0.1504 -0.2226  0.1151
   135. (0.00015) RY*(12) H   4           s(  0.00%)p 1.00(  0.76%)d99.99( 99.24%)
                                            0.0000  0.0000  0.0000  0.0000  0.0000
                                            0.0000  0.0000  0.0000  0.0000  0.0000
                                           -0.0414 -0.0766  0.0071  0.0000  0.0000
                                            0.9321  0.2268 -0.2518 -0.0937  0.0000
                                            0.0000  0.0000  0.0000
   136. (0.00015) RY*(13) H   4           s(  3.22%)p 2.52(  8.11%)d27.54( 88.67%)
                                           -0.0059 -0.0361  0.1475 -0.0954 -0.0694
                                           -0.1009 -0.1722  0.0796  0.1409  0.1012
                                           -0.0000 -0.0000 -0.0000 -0.4260 -0.2066
                                           -0.0000 -0.0000 -0.0000 -0.0000  0.3596
                                            0.0020 -0.7003 -0.2069
   137. (0.00012) RY*(14) H   4           s(  0.00%)p 1.00( 63.34%)d 0.58( 36.66%)
                                            0.0000  0.0000  0.0000  0.0000  0.0000
                                            0.0000  0.0000  0.0000  0.0000  0.0000
                                           -0.0202 -0.0241  0.7952  0.0000  0.0000
                                           -0.0101 -0.0121 -0.2245  0.5621  0.0000
                                            0.0000  0.0000  0.0000
   138. (0.00011) RY*(15) H   4           s( 15.82%)p 2.65( 41.95%)d 2.67( 42.23%)
                                            0.0042 -0.0080  0.1622  0.3631 -0.0166
                                            0.0642  0.6197  0.0429 -0.0687 -0.1566
                                            0.0000  0.0000  0.0000 -0.1001  0.5360
                                            0.0000  0.0000  0.0000  0.0000  0.0889
                                            0.1925 -0.1978 -0.2020
   139. (0.00009) RY*(16) H   4           s( 63.46%)p 0.35( 22.52%)d 0.22( 14.01%)
   140. (0.00007) RY*(17) H   4           s(  0.00%)p 1.00(  0.35%)d99.99( 99.65%)
   141. (0.00007) RY*(18) H   4           s( 24.93%)p 1.11( 27.58%)d 1.90( 47.48%)
   142. (0.00006) RY*(19) H   4           s(  2.28%)p 0.74(  1.70%)d42.06( 96.02%)
   143. (0.00004) RY*(20) H   4           s(  0.00%)p 1.00( 29.77%)d 2.36( 70.23%)
   144. (0.00004) RY*(21) H   4           s(  2.40%)p14.66( 35.13%)d26.07( 62.47%)
   145. (0.00002) RY*(22) H   4           s(  7.23%)p 5.63( 40.70%)d 7.20( 52.07%)
   146. (0.02123) BD*( 1) O   1 - H   2  
                ( 27.00%)   0.5196* O   1 s( 21.16%)p 3.70( 78.39%)d 0.02(  0.43%)
                                                  f 0.00(  0.01%)
                                           -0.0002 -0.4600  0.0079 -0.0008  0.0042
                                           -0.8828  0.0330 -0.0086  0.0013 -0.0565
                                            0.0162 -0.0019  0.0035 -0.0000 -0.0000
                                           -0.0000 -0.0000  0.0205 -0.0017 -0.0020
                                           -0.0000 -0.0000 -0.0000 -0.0000 -0.0000
                                           -0.0000 -0.0519  0.0035 -0.0036  0.0346
                                           -0.0014 -0.0001 -0.0000 -0.0000  0.0094
                                            0.0005  0.0001  0.0001 -0.0000 -0.0000
                                           -0.0000 -0.0000 -0.0028 -0.0032 -0.0018
                                            0.0002
                ( 73.00%)  -0.8544* H   2 s( 99.90%)p 0.00(  0.09%)d 0.00(  0.01%)
                                           -0.9995 -0.0034  0.0003 -0.0001  0.0012
                                           -0.0299  0.0041 -0.0021  0.0015  0.0013
                                           -0.0000 -0.0000 -0.0000 -0.0010  0.0023
                                           -0.0000 -0.0000 -0.0000 -0.0000 -0.0063
                                            0.0023  0.0052 -0.0006
   147. (0.04683) BD*( 1) O   1 - H   4  
                ( 23.47%)   0.4844* O   1 s( 27.23%)p 2.66( 72.33%)d 0.02(  0.43%)
                                                  f 0.00(  0.01%)
                                            0.0003  0.5218 -0.0038 -0.0008 -0.0015
                                           -0.2165  0.0197 -0.0003 -0.0017 -0.8219
                                            0.0196 -0.0082  0.0038 -0.0000 -0.0000
                                           -0.0000 -0.0000 -0.0032  0.0058 -0.0033
                                           -0.0000 -0.0000 -0.0000 -0.0000 -0.0000
                                           -0.0000 -0.0537  0.0029 -0.0000 -0.0365
                                            0.0005  0.0030 -0.0000 -0.0000  0.0021
                                           -0.0001  0.0097 -0.0001 -0.0000 -0.0000
                                           -0.0000 -0.0000  0.0031  0.0019 -0.0005
                                            0.0043
                ( 76.53%)  -0.8748* H   4 s( 99.91%)p 0.00(  0.09%)d 0.00(  0.01%)
                                            0.9993  0.0202  0.0001 -0.0001  0.0165
                                            0.0006 -0.0002 -0.0040  0.0229  0.0087
                                           -0.0000 -0.0000 -0.0000  0.0003 -0.0024
                                           -0.0000 -0.0000 -0.0000 -0.0000  0.0059
                                           -0.0020 -0.0015 -0.0018


 NHO Directionality and "Bond Bending" (deviations from line of nuclear centers)

         [Thresholds for printing:  angular deviation  >  1.0 degree]
                                    hybrid p-character > 25.0%
                                    orbital occupancy  >  0.10e

                                Line of Centers        Hybrid 1              Hybrid 2
                                ---------------  -------------------   ------------------
                NBO               Theta   Phi    Theta   Phi    Dev    Theta   Phi    Dev
 ========================================================================================
     1. BD (   1) O   1 - H   2    90.0    0.0    90.0    2.6   2.6      --     --    --
     2. BD (   1) O   1 - H   4    90.0  258.1    90.0  256.2   2.0      --     --    --
    13. LP (   1) O   1             --     --     90.0  125.8   --       --     --    --
    14. LP (   2) O   1             --     --      0.0    0.0   --       --     --    --
    16. LP (   2) I   3             --     --      0.0    0.0   --       --     --    --
    17. LP (   3) I   3             --     --     90.0  167.7   --       --     --    --
    18. LP (   4) I   3             --     --     90.0   77.5   --       --     --    --


 Natural Bond Orbitals (Summary):

           NBO                  Occupancy  
 -----------------------------------------------
 Molecular unit  1  (H2O)
     1. BD (   1) O   1 - H   2          1.96648
     2. BD (   1) O   1 - H   4          1.96915
     3. CR (   1) O   1                  1.99966
    13. LP (   1) O   1                  1.97022
    14. LP (   2) O   1                  1.96155
    19. RY*(   1) O   1                  0.01987
    20. RY*(   2) O   1                  0.01525
    21. RY*(   3) O   1                  0.00702
    22. RY*(   4) O   1                  0.00629
    23. RY*(   5) O   1                  0.00619
    24. RY*(   6) O   1                  0.00591
    25. RY*(   7) O   1                  0.00566
    26. RY*(   8) O   1                  0.00295
    27. RY*(   9) O   1                  0.00227
    28. RY*(  10) O   1                  0.00079
    29. RY*(  11) O   1                  0.00055
    30. RY*(  12) O   1                  0.00054
    31. RY*(  13) O   1                  0.00053
    32. RY*(  14) O   1                  0.00046
    33. RY*(  15) O   1                  0.00043
    34. RY*(  16) O   1                  0.00044
    35. RY*(  17) O   1                  0.00044
    36. RY*(  18) O   1                  0.00043
    37. RY*(  19) O   1                  0.00042
    38. RY*(  20) O   1                  0.00039
    39. RY*(  21) O   1                  0.00036
    40. RY*(  22) O   1                  0.00034
    41. RY*(  23) O   1                  0.00027
    42. RY*(  24) O   1                  0.00028
    43. RY*(  25) O   1                  0.00023
    44. RY*(  26) O   1                  0.00014
    45. RY*(  27) O   1                  0.00008
    46. RY*(  28) O   1                  0.00008
    47. RY*(  29) O   1                  0.00008
    48. RY*(  30) O   1                  0.00007
    49. RY*(  31) O   1                  0.00007
    50. RY*(  32) O   1                  0.00007
    51. RY*(  33) O   1                  0.00006
    52. RY*(  34) O   1                  0.00007
    53. RY*(  35) O   1                  0.00005
    54. RY*(  36) O   1                  0.00005
    55. RY*(  37) O   1                  0.00004
    56. RY*(  38) O   1                  0.00004
    57. RY*(  39) O   1                  0.00001
    58. RY*(  40) O   1                  0.00001
    59. RY*(  41) O   1                 -0.00008
    60. RY*(   1) H   2                  0.00178
    61. RY*(   2) H   2                  0.00171
    62. RY*(   3) H   2                  0.00082
    63. RY*(   4) H   2                  0.00052
    64. RY*(   5) H   2                  0.00031
    65. RY*(   6) H   2                  0.00020
    66. RY*(   7) H   2                  0.00012
    67. RY*(   8) H   2                  0.00011
    68. RY*(   9) H   2                  0.00010
    69. RY*(  10) H   2                  0.00009
    70. RY*(  11) H   2                  0.00009
    71. RY*(  12) H   2                  0.00006
    72. RY*(  13) H   2                  0.00005
    73. RY*(  14) H   2                  0.00004
    74. RY*(  15) H   2                  0.00003
    75. RY*(  16) H   2                  0.00003
    76. RY*(  17) H   2                  0.00002
    77. RY*(  18) H   2                  0.00002
    78. RY*(  19) H   2                  0.00002
    79. RY*(  20) H   2                  0.00002
    80. RY*(  21) H   2                  0.00001
    81. RY*(  22) H   2                  0.00001
   124. RY*(   1) H   4                  0.00778
   125. RY*(   2) H   4                  0.00436
   126. RY*(   3) H   4                  0.00415
   127. RY*(   4) H   4                  0.00253
   128. RY*(   5) H   4                  0.00041
   129. RY*(   6) H   4                  0.00033
   130. RY*(   7) H   4                  0.00032
   131. RY*(   8) H   4                  0.00025
   132. RY*(   9) H   4                  0.00022
   133. RY*(  10) H   4                  0.00019
   134. RY*(  11) H   4                  0.00018
   135. RY*(  12) H   4                  0.00015
   136. RY*(  13) H   4                  0.00015
   137. RY*(  14) H   4                  0.00012
   138. RY*(  15) H   4                  0.00011
   139. RY*(  16) H   4                  0.00009
   140. RY*(  17) H   4                  0.00007
   141. RY*(  18) H   4                  0.00007
   142. RY*(  19) H   4                  0.00006
   143. RY*(  20) H   4                  0.00004
   144. RY*(  21) H   4                  0.00004
   145. RY*(  22) H   4                  0.00002
   146. BD*(   1) O   1 - H   2          0.02123
   147. BD*(   1) O   1 - H   4          0.04683
       -------------------------------
              Total Lewis    9.86705  ( 98.2567%)
        Valence non-Lewis    0.06806  (  0.6778%)
        Rydberg non-Lewis    0.10701  (  1.0656%)
       -------------------------------
            Total unit  1   10.04212  (100.0000%)
           Charge unit  1   -0.04212

 Molecular unit  2  (I)
     4. CR (   1) I   3                  2.00002
     5. CR (   2) I   3                  2.00006
     6. CR (   3) I   3                  2.00002
     7. CR (   4) I   3                  2.00007
     8. CR (   5) I   3                  1.99674
     9. CR (   6) I   3                  1.99678
    10. CR (   7) I   3                  1.99676
    11. CR (   8) I   3                  1.99671
    12. CR (   9) I   3                  1.99676
    15. LP (   1) I   3                  1.97974
    16. LP (   2) I   3                  1.95171
    17. LP (   3) I   3                  1.95151
    18. LP (   4) I   3                  1.92212
    82. RY*(   1) I   3                  0.02023
    83. RY*(   2) I   3                  0.02024
    84. RY*(   3) I   3                  0.02014
    85. RY*(   4) I   3                  0.02014
    86. RY*(   5) I   3                  0.01955
    87. RY*(   6) I   3                  0.01105
    88. RY*(   7) I   3                  0.01101
    89. RY*(   8) I   3                  0.00976
    90. RY*(   9) I   3                  0.00357
    91. RY*(  10) I   3                  0.00278
    92. RY*(  11) I   3                  0.00279
    93. RY*(  12) I   3                  0.00276
    94. RY*(  13) I   3                  0.00276
    95. RY*(  14) I   3                  0.00272
    96. RY*(  15) I   3                  0.00271
    97. RY*(  16) I   3                  0.00269
    98. RY*(  17) I   3                  0.00168
    99. RY*(  18) I   3                  0.00168
   100. RY*(  19) I   3                  0.00141
   101. RY*(  20) I   3                  0.00142
   102. RY*(  21) I   3                  0.00124
   103. RY*(  22) I   3                  0.00074
   104. RY*(  23) I   3                  0.00074
   105. RY*(  24) I   3                  0.00069
   106. RY*(  25) I   3                  0.00047
   107. RY*(  26) I   3                  0.00044
   108. RY*(  27) I   3                  0.00043
   109. RY*(  28) I   3                  0.00043
   110. RY*(  29) I   3                  0.00042
   111. RY*(  30) I   3                  0.00040
   112. RY*(  31) I   3                  0.00040
   113. RY*(  32) I   3                  0.00035
   114. RY*(  33) I   3                  0.00016
   115. RY*(  34) I   3                  0.00017
   116. RY*(  35) I   3                  0.00014
   117. RY*(  36) I   3                  0.00014
   118. RY*(  37) I   3                  0.00014
   119. RY*(  38) I   3                  0.00007
   120. RY*(  39) I   3                  0.00008
   121. RY*(  40) I   3                  0.00007
   122. RY*(  41) I   3                  0.00005
   123. RY*(  42) I   3                  0.00000
       -------------------------------
              Total Lewis   53.78900  ( 99.6870%)
        Valence non-Lewis    0.00000  (  0.0000%)
        Rydberg non-Lewis    0.16887  (  0.3130%)
       -------------------------------
            Total unit  2   53.95788  (100.0000%)
           Charge unit  2   -0.95788
 Leave Link  607 at Tue Oct 26 13:20:53 2021, MaxMem= 16106127360 cpu:              68.1 elap:               2.5
 (Enter /sw/contrib/gaussian/g16/B01/g16/l9999.exe)
 1\1\GINC-N2097\SP\RMP2-FC\Gen\H2I1O1(1-)\CGAVINH\26-Oct-2021\0\\#p pop
 =NBO SP NoSymm mp2/gen Pseudo=read density=current\\title\\-1,1\O\X,1,
 10.\H,1,0.96090774,2,90.\I,1,3.50850138,2,90.,3,101.85832019,0\H,1,0.9
 5,2,90.,3,101.85832019,0\\Version=ES64L-G16RevB.01\HF=-370.8175932\MP2
 =-371.3128886\RMSD=3.175e-09\Dipole=0.7195998,0.7472284,0.\Quadrupole=
 12.7320133,-25.1049676,12.3729544,-7.4387712,0.,0.\PG=CS [SG(H2I1O1)]\
 \@


 THERE IS NO CURE FOR BIRTH AND DEATH SAVE TO ENJOY THE INTERVAL.

                               -- GEORGE SANTAYANA
 Job cpu time:       0 days  0 hours  4 minutes  9.2 seconds.
 Elapsed time:       0 days  0 hours  0 minutes 11.5 seconds.
 File lengths (MBytes):  RWF=     11 Int=      0 D2E=      0 Chk=      8 Scr=      1
 Normal termination of Gaussian 16 at Tue Oct 26 13:20:53 2021.
