title                                                                   
SP        RMP2-FC                                                     Gen                 
Number of atoms                            I                4
Info1-9                                    I   N=           9
         144         135           0           0           0         110
           1           2           1
Charge                                     I               -1
Multiplicity                               I                1
Number of electrons                        I               36
Number of alpha electrons                  I               18
Number of beta electrons                   I               18
Number of basis functions                  I              191
Number of independent functions            I              147
Number of point charges in /Mol/           I                0
Number of translation vectors              I                0
Atomic numbers                             I   N=           4
           8           1          53           1
Nuclear charges                            R   N=           4
  8.00000000E+00  1.00000000E+00  2.50000000E+01  1.00000000E+00
Current cartesian coordinates              R   N=          12
  0.00000000E+00  0.00000000E+00  0.00000000E+00  1.81585239E+00  0.00000000E+00
  0.00000000E+00 -1.36243524E+00 -6.48861632E+00  0.00000000E+00 -4.65988484E-01
 -2.21927649E+00  0.00000000E+00
Force Field                                I                0
Int Atom Types                             I   N=           4
           0           0           0           0
MM charges                                 R   N=           4
  0.00000000E+00  0.00000000E+00  0.00000000E+00  0.00000000E+00
Integer atomic weights                     I   N=           4
          16           2         127           1
Real atomic weights                        R   N=           4
  1.59949146E+01  2.01410179E+00  1.26900400E+02  1.00782504E+00
Atom fragment info                         I   N=           4
           0           0           0           0
Atom residue num                           I   N=           4
           0           0           0           0
Nuclear spins                              I   N=           4
           0           2           5           1
Nuclear ZEff                               R   N=           4
 -5.60000000E+00 -1.00000000E+00 -5.83000000E+03 -1.00000000E+00
Nuclear ZNuc                               R   N=           4
  8.00000000E+00  1.00000000E+00  5.30000000E+01  1.00000000E+00
Nuclear QMom                               R   N=           4
  0.00000000E+00  2.86000000E-01 -7.10000000E+01  0.00000000E+00
Nuclear GFac                               R   N=           4
  0.00000000E+00  8.57438000E-01  2.81328000E+00  2.79284600E+00
MicOpt                                     I   N=           4
          -1          -1          -1          -1
Number of contracted shells                I               65
Number of primitive shells                 I              119
Pure/Cartesian d shells                    I                0
Pure/Cartesian f shells                    I                0
Highest angular momentum                   I                3
Largest degree of contraction              I                9
Shell types                                I   N=          65
           0           0           0           0           0           1
           1           1           1          -2          -2          -2
          -3          -3           0           0           0           0
           0           0           0           1           1           1
           1           1           1          -2          -2          -2
          -2           0           0           0           0           0
           0           1           1           1           1           1
          -2          -2          -2          -2          -3          -3
           0           0           0           0           0           0
           0           1           1           1           1           1
           1          -2          -2          -2          -2
Number of primitives per shell             I   N=          65
           7           6           1           1           1           3
           1           1           1           1           1           1
           1           1           3           1           1           1
           1           1           1           1           1           1
           1           1           1           1           1           1
           1           9           8           1           1           1
           1           8           8           1           1           1
           9           1           1           1           1           1
           3           1           1           1           1           1
           1           1           1           1           1           1
           1           1           1           1           1
Shell to atom map                          I   N=          65
           1           1           1           1           1           1
           1           1           1           1           1           1
           1           1           2           2           2           2
           2           2           2           2           2           2
           2           2           2           2           2           2
           2           3           3           3           3           3
           3           3           3           3           3           3
           3           3           3           3           3           3
           4           4           4           4           4           4
           4           4           4           4           4           4
           4           4           4           4           4
Primitive exponents                        R   N=         119
  1.53300000E+04  2.29900000E+03  5.22400000E+02  1.47300000E+02  4.75500000E+01
  1.67600000E+01  6.20700000E+00  5.22400000E+02  1.47300000E+02  4.75500000E+01
  1.67600000E+01  6.20700000E+00  6.88200000E-01  1.75200000E+00  2.38400000E-01
  7.37600000E-02  3.44600000E+01  7.74900000E+00  2.28000000E+00  7.15600000E-01
  2.14000000E-01  5.97400000E-02  2.31400000E+00  6.45000000E-01  2.14000000E-01
  1.42800000E+00  5.00000000E-01  3.38700000E+01  5.09500000E+00  1.15900000E+00
  3.25800000E-01  1.02700000E-01  2.52600000E-02  3.25800000E-01  1.02700000E-01
  2.52600000E-02  1.40700000E+00  3.88000000E-01  1.02000000E-01  1.40700000E+00
  3.88000000E-01  1.02000000E-01  1.05700000E+00  2.47000000E-01  1.05700000E+00
  2.47000000E-01  5.54650000E+03  8.38214000E+02  1.82187000E+02  3.12123000E+01
  1.95314000E+01  8.24099000E+00  2.19455000E+00  1.10911000E+00  8.10610000E-02
  5.54650000E+03  8.38214000E+02  3.12123000E+01  1.95314000E+01  8.24099000E+00
  2.19455000E+00  1.10911000E+00  8.10610000E-02  3.74641000E-01  1.77080000E-01
  1.00100000E-01  4.12000000E-02  1.88988000E+02  2.12868000E+01  1.00396000E+01
  3.45180000E+00  1.97456000E+00  1.02420000E+00  4.49437000E-01  7.34810000E-02
  1.88988000E+02  1.00396000E+01  3.45180000E+00  1.97456000E+00  1.02420000E+00
  4.49437000E-01  1.86648000E-01  7.34810000E-02  5.98100000E-01  9.61800000E-02
  3.59000000E-02  1.32662000E+02  3.76054000E+01  1.03891000E+01  6.49017000E+00
  3.45451000E+00  1.84413000E+00  9.62478000E-01  4.72853000E-01  1.93200000E-01
  4.72853000E-01  1.93200000E-01  7.82000000E-02  4.06400000E-01  1.84800000E-01
  3.38700000E+01  5.09500000E+00  1.15900000E+00  3.25800000E-01  1.02700000E-01
  2.52600000E-02  3.25800000E-01  1.02700000E-01  2.52600000E-02  1.40700000E+00
  3.88000000E-01  1.02000000E-01  1.40700000E+00  3.88000000E-01  1.02000000E-01
  1.05700000E+00  2.47000000E-01  1.05700000E+00  2.47000000E-01
Contraction coefficients                   R   N=         119
  5.19808943E-04  4.02025621E-03  2.07128267E-02  8.10105536E-02  2.35962985E-01
  4.42653446E-01  3.57064423E-01 -4.42115008E-05 -1.22591041E-03 -1.05517725E-02
 -6.74452633E-02 -1.71198607E-01  1.07329856E+00  1.00000000E+00  1.00000000E+00
  1.00000000E+00  4.11634896E-02  2.57762836E-01  8.02419274E-01  1.00000000E+00
  1.00000000E+00  1.00000000E+00  1.00000000E+00  1.00000000E+00  1.00000000E+00
  1.00000000E+00  1.00000000E+00  2.54948632E-02  1.90362766E-01  8.52162022E-01
  1.00000000E+00  1.00000000E+00  1.00000000E+00  1.00000000E+00  1.00000000E+00
  1.00000000E+00  1.00000000E+00  1.00000000E+00  1.00000000E+00  1.00000000E+00
  1.00000000E+00  1.00000000E+00  1.00000000E+00  1.00000000E+00  1.00000000E+00
  1.00000000E+00  1.58603022E-04  1.00211458E-03  2.83966410E-03 -4.40310212E-02
  2.38198152E-01 -7.63568980E-01  8.96516870E-01  4.68371203E-01  2.16251781E-03
 -2.17177846E-05 -2.59237305E-04 -1.50376554E-02  2.42214079E-02  6.99888661E-02
 -5.50491335E-01 -5.69654432E-01  3.76065139E-01  1.00000000E+00  1.00000000E+00
  1.00000000E+00  1.00000000E+00  5.85232173E-04  3.69335916E-02 -2.35399435E-01
  3.41625365E-01  5.34991615E-01  2.65244797E-01  2.54463150E-02  3.82802808E-04
 -6.76097015E-05  8.33123161E-03 -4.66496478E-02 -5.27406452E-02 -2.91398344E-02
  3.65650039E-01  5.48502805E-01  2.34644635E-01  1.00000000E+00  1.00000000E+00
  1.00000000E+00  5.72000072E-04  4.40200055E-03 -4.09220051E-02  9.96610125E-02
  3.22663040E-01  4.00343050E-01  2.68306034E-01  8.48470106E-02  7.63200096E-03
  1.00000000E+00  1.00000000E+00  1.00000000E+00  1.00000000E+00  1.00000000E+00
  2.54948632E-02  1.90362766E-01  8.52162022E-01  1.00000000E+00  1.00000000E+00
  1.00000000E+00  1.00000000E+00  1.00000000E+00  1.00000000E+00  1.00000000E+00
  1.00000000E+00  1.00000000E+00  1.00000000E+00  1.00000000E+00  1.00000000E+00
  1.00000000E+00  1.00000000E+00  1.00000000E+00  1.00000000E+00
Coordinates of each shell                  R   N=         195
  0.00000000E+00  0.00000000E+00  0.00000000E+00  0.00000000E+00  0.00000000E+00
  0.00000000E+00  0.00000000E+00  0.00000000E+00  0.00000000E+00  0.00000000E+00
  0.00000000E+00  0.00000000E+00  0.00000000E+00  0.00000000E+00  0.00000000E+00
  0.00000000E+00  0.00000000E+00  0.00000000E+00  0.00000000E+00  0.00000000E+00
  0.00000000E+00  0.00000000E+00  0.00000000E+00  0.00000000E+00  0.00000000E+00
  0.00000000E+00  0.00000000E+00  0.00000000E+00  0.00000000E+00  0.00000000E+00
  0.00000000E+00  0.00000000E+00  0.00000000E+00  0.00000000E+00  0.00000000E+00
  0.00000000E+00  0.00000000E+00  0.00000000E+00  0.00000000E+00  0.00000000E+00
  0.00000000E+00  0.00000000E+00  1.81585239E+00  0.00000000E+00  0.00000000E+00
  1.81585239E+00  0.00000000E+00  0.00000000E+00  1.81585239E+00  0.00000000E+00
  0.00000000E+00  1.81585239E+00  0.00000000E+00  0.00000000E+00  1.81585239E+00
  0.00000000E+00  0.00000000E+00  1.81585239E+00  0.00000000E+00  0.00000000E+00
  1.81585239E+00  0.00000000E+00  0.00000000E+00  1.81585239E+00  0.00000000E+00
  0.00000000E+00  1.81585239E+00  0.00000000E+00  0.00000000E+00  1.81585239E+00
  0.00000000E+00  0.00000000E+00  1.81585239E+00  0.00000000E+00  0.00000000E+00
  1.81585239E+00  0.00000000E+00  0.00000000E+00  1.81585239E+00  0.00000000E+00
  0.00000000E+00  1.81585239E+00  0.00000000E+00  0.00000000E+00  1.81585239E+00
  0.00000000E+00  0.00000000E+00  1.81585239E+00  0.00000000E+00  0.00000000E+00
  1.81585239E+00  0.00000000E+00  0.00000000E+00 -1.36243524E+00 -6.48861632E+00
  0.00000000E+00 -1.36243524E+00 -6.48861632E+00  0.00000000E+00 -1.36243524E+00
 -6.48861632E+00  0.00000000E+00 -1.36243524E+00 -6.48861632E+00  0.00000000E+00
 -1.36243524E+00 -6.48861632E+00  0.00000000E+00 -1.36243524E+00 -6.48861632E+00
  0.00000000E+00 -1.36243524E+00 -6.48861632E+00  0.00000000E+00 -1.36243524E+00
 -6.48861632E+00  0.00000000E+00 -1.36243524E+00 -6.48861632E+00  0.00000000E+00
 -1.36243524E+00 -6.48861632E+00  0.00000000E+00 -1.36243524E+00 -6.48861632E+00
  0.00000000E+00 -1.36243524E+00 -6.48861632E+00  0.00000000E+00 -1.36243524E+00
 -6.48861632E+00  0.00000000E+00 -1.36243524E+00 -6.48861632E+00  0.00000000E+00
 -1.36243524E+00 -6.48861632E+00  0.00000000E+00 -1.36243524E+00 -6.48861632E+00
  0.00000000E+00 -1.36243524E+00 -6.48861632E+00  0.00000000E+00 -4.65988484E-01
 -2.21927649E+00  0.00000000E+00 -4.65988484E-01 -2.21927649E+00  0.00000000E+00
 -4.65988484E-01 -2.21927649E+00  0.00000000E+00 -4.65988484E-01 -2.21927649E+00
  0.00000000E+00 -4.65988484E-01 -2.21927649E+00  0.00000000E+00 -4.65988484E-01
 -2.21927649E+00  0.00000000E+00 -4.65988484E-01 -2.21927649E+00  0.00000000E+00
 -4.65988484E-01 -2.21927649E+00  0.00000000E+00 -4.65988484E-01 -2.21927649E+00
  0.00000000E+00 -4.65988484E-01 -2.21927649E+00  0.00000000E+00 -4.65988484E-01
 -2.21927649E+00  0.00000000E+00 -4.65988484E-01 -2.21927649E+00  0.00000000E+00
 -4.65988484E-01 -2.21927649E+00  0.00000000E+00 -4.65988484E-01 -2.21927649E+00
  0.00000000E+00 -4.65988484E-01 -2.21927649E+00  0.00000000E+00 -4.65988484E-01
 -2.21927649E+00  0.00000000E+00 -4.65988484E-01 -2.21927649E+00  0.00000000E+00
Constraint Structure                       R   N=          12
  0.00000000E+00  0.00000000E+00  0.00000000E+00  1.81585239E+00  0.00000000E+00
  0.00000000E+00 -1.36243524E+00 -6.48861632E+00  0.00000000E+00 -4.65988484E-01
 -2.21927649E+00  0.00000000E+00
Num ILSW                                   I              100
ILSW                                       I   N=         100
           0           0           0           0           2           0
           0           0           0           0           0          -1
           0           0           0           0           0           0
           0           0           0           0           0           0
           1           1           0           0           0           0
           0           0      100000           0          -1           0
           0           0           0           0           0           0
           0           0           0           1           0           0
           0           0           1           0           0           0
           0           0           4          41           0           0
           0           0           0           0           0           0
           0           0           0           4           0           0
           0           0           0           0           0           0
           0           0           0           0           0           0
           0           0           0           0           0           0
           0           0           0           0           0           0
           0           0           0           0
Num RLSW                                   I               41
RLSW                                       R   N=          41
  1.00000000E+00  1.00000000E+00  1.00000000E+00  1.00000000E+00  1.00000000E+00
  0.00000000E+00  0.00000000E+00  1.00000000E+00  0.00000000E+00  0.00000000E+00
  0.00000000E+00  0.00000000E+00  1.00000000E+00  0.00000000E+00  0.00000000E+00
  0.00000000E+00  0.00000000E+00  1.00000000E+00  0.00000000E+00  0.00000000E+00
  0.00000000E+00  0.00000000E+00  1.00000000E+00  0.00000000E+00  0.00000000E+00
  0.00000000E+00  0.00000000E+00  1.00000000E+00  0.00000000E+00  0.00000000E+00
  0.00000000E+00  0.00000000E+00  1.00000000E+00  0.00000000E+00  0.00000000E+00
  0.00000000E+00  0.00000000E+00  0.00000000E+00  1.00000000E+00  1.00000000E+00
  0.00000000E+00
ECP-MxAtEC                                 I           250000
ECP-MaxLECP                                I               10
ECP-MaxAtL                                 I          2250000
ECP-MxTECP                                 I         11250000
ECP-LenNCZ                                 I               16
ECP-KFirst                                 I   N=          40
           0           0           1           0           0           0
           2           0           0           0           5           0
           0           0           9           0           0           0
          13           0           0           0           0           0
           0           0           0           0           0           0
           0           0           0           0           0           0
           0           0           0           0
ECP-KLast                                  I   N=          40
           0           0           1           0           0           0
           4           0           0           0           8           0
           0           0          12           0           0           0
          16           0           0           0           0           0
           0           0           0           0           0           0
           0           0           0           0           0           0
           0           0           0           0
ECP-LMax                                   I   N=           4
           0           0           4           0
ECP-LPSkip                                 I   N=           4
           1           1           0           1
ECP-RNFroz                                 R   N=           4
  0.00000000E+00  0.00000000E+00  2.80000000E+01  0.00000000E+00
ECP-NLP                                    I   N=          16
           2           2           2           2           2           2
           2           2           2           2           2           2
           2           2           2           2
ECP-CLP1                                   R   N=          16
  0.00000000E+00  4.99896490E+01  2.81006556E+02  6.14167390E+01  6.74162390E+01
  1.34807696E+02  1.45665480E+01  2.89684220E+01  3.55387560E+01  5.33397590E+01
  9.71646600E+00  1.49775000E+01 -2.01766180E+01 -2.60880770E+01 -2.20434000E-01
 -2.21646000E-01
ECP-CLP2                                   R   N=          16
  0.00000000E+00  0.00000000E+00  0.00000000E+00  0.00000000E+00  0.00000000E+00
  0.00000000E+00  0.00000000E+00  0.00000000E+00  0.00000000E+00  0.00000000E+00
  0.00000000E+00  0.00000000E+00  0.00000000E+00  0.00000000E+00  0.00000000E+00
  0.00000000E+00
ECP-ZLP                                    R   N=          16
  1.00000000E+00  4.00333760E+01  1.73005760E+01  8.85172000E+00  1.57201410E+01
  1.52082220E+01  8.29418600E+00  7.75394900E+00  1.38177510E+01  1.35878050E+01
  6.94763000E+00  6.96009900E+00  1.85229500E+01  1.82510350E+01  7.55790100E+00
  7.59740400E+00
MxBond                                     I                1
NBond                                      I   N=           4
           1           1           0           0
IBond                                      I   N=           4
           2           1           0           0
RBond                                      R   N=           4
  1.00000000E+00  1.00000000E+00  0.00000000E+00  0.00000000E+00
Virial Ratio                               R      2.987051771111697E+00
SCF Energy                                 R     -3.707829994229534E+02
MP2 Energy                                 R     -3.712921899263099E+02
Total Energy                               R     -3.712921899263099E+02
Post-SCF wavefunction norm                 R      1.079699034630817E+00
RMS Density                                R      3.151585192376823E-09
Job Status                                 I                1
Nuclear derivative order                   I                0
External E-field                           R   N=          35
  0.00000000E+00  0.00000000E+00  0.00000000E+00  0.00000000E+00  0.00000000E+00
  0.00000000E+00  0.00000000E+00  0.00000000E+00  0.00000000E+00  0.00000000E+00
  0.00000000E+00  0.00000000E+00  0.00000000E+00  0.00000000E+00  0.00000000E+00
  0.00000000E+00  0.00000000E+00  0.00000000E+00  0.00000000E+00  0.00000000E+00
  0.00000000E+00  0.00000000E+00  0.00000000E+00  0.00000000E+00  0.00000000E+00
  0.00000000E+00  0.00000000E+00  0.00000000E+00  0.00000000E+00  0.00000000E+00
  0.00000000E+00  0.00000000E+00  0.00000000E+00  0.00000000E+00  0.00000000E+00
IOpCl                                      I                0
IROHF                                      I                0
Alpha Orbital Energies                     R   N=         147
 -2.03888180E+01 -7.47838056E+00 -5.30432780E+00 -5.30348834E+00 -5.30343407E+00
 -2.03192328E+00 -2.03145395E+00 -2.03139267E+00 -2.03048816E+00 -2.03048748E+00
 -1.12657285E+00 -6.41490814E-01 -4.78328078E-01 -3.85701160E-01 -3.17379253E-01
 -1.58804007E-01 -1.52582669E-01 -1.52155754E-01  1.36806286E-01  1.70249626E-01
  2.31504306E-01  2.44119465E-01  2.48858826E-01  2.74532182E-01  2.96474710E-01
  2.97060610E-01  3.13193028E-01  3.40796462E-01  3.65382353E-01  3.68935926E-01
  3.72487866E-01  3.94036191E-01  4.03252619E-01  4.26764758E-01  4.41506539E-01
  4.77567285E-01  5.09832973E-01  5.49163122E-01  5.74502509E-01  5.99758301E-01
  6.70090767E-01  7.17170338E-01  7.68783287E-01  7.69447378E-01  7.79204496E-01
  7.90035511E-01  7.91216182E-01  7.95801409E-01  8.21396865E-01  8.28615048E-01
  8.53310159E-01  8.58922454E-01  8.63405460E-01  8.74159939E-01  8.76550425E-01
  8.96182994E-01  9.03467635E-01  9.32599550E-01  9.38127167E-01  9.70234785E-01
  1.02793933E+00  1.05470042E+00  1.07633250E+00  1.11053985E+00  1.12036162E+00
  1.12087301E+00  1.15677318E+00  1.17183742E+00  1.19845827E+00  1.19896743E+00
  1.30284168E+00  1.36404060E+00  1.37693292E+00  1.44921948E+00  1.48943422E+00
  1.51472367E+00  1.59921388E+00  1.63631134E+00  1.71397003E+00  1.73382477E+00
  1.74218995E+00  1.74317138E+00  1.75765997E+00  1.76543783E+00  1.80389845E+00
  1.84708538E+00  1.85785236E+00  1.89994252E+00  2.01491882E+00  2.04739440E+00
  2.05089715E+00  2.05394888E+00  2.09326549E+00  2.11131683E+00  2.14639973E+00
  2.32585954E+00  2.44169913E+00  2.46143657E+00  2.55285616E+00  2.57721914E+00
  2.60042939E+00  2.62714651E+00  2.70845404E+00  2.78329371E+00  2.91520213E+00
  2.92223225E+00  2.97774919E+00  3.02673513E+00  3.20035008E+00  3.31867203E+00
  3.32202986E+00  3.54293057E+00  3.87029148E+00  4.15149158E+00  4.21627504E+00
  4.24821994E+00  4.27385842E+00  4.36568073E+00  4.40670317E+00  4.50924632E+00
  4.53963315E+00  4.59497194E+00  4.66783191E+00  4.80193495E+00  4.88524229E+00
  4.92922278E+00  5.03677890E+00  5.23381101E+00  5.41520141E+00  5.55249675E+00
  5.64455886E+00  6.32406768E+00  6.67696790E+00  6.88569487E+00  6.98297346E+00
  7.08080333E+00  7.34366106E+00  7.40961338E+00  7.45351341E+00  7.52974058E+00
  7.56344413E+00  7.68130868E+00  7.87455792E+00  8.14609358E+00  8.34447342E+00
  1.44566715E+01  5.92106833E+01
Alpha MO coefficients                      R   N=       28077
  9.76809208E-01 -9.06708289E-03  4.34713198E-02 -2.41122268E-05  3.73295664E-04
  1.27020018E-03 -1.09436666E-03 -6.32462009E-16 -1.04214077E-03  1.28706614E-03
  1.06414465E-15 -9.09496342E-05  5.58274882E-04  1.99658286E-15  1.00845183E-05
 -2.01209646E-04  2.18717124E-15 -3.20938647E-05  1.72866288E-16  6.96844287E-16
  6.06717771E-05  7.84393183E-06  5.94078890E-04 -2.15611805E-16 -3.10014534E-16
 -1.30560523E-05 -2.90434456E-04  1.33268528E-04  1.08958839E-15 -7.06543280E-16
  2.19745194E-04 -2.39465590E-04  1.90476548E-16  2.33653059E-06 -2.99498578E-05
 -2.28493440E-16  9.76332380E-17 -1.55233359E-05 -2.36453910E-05 -4.54588549E-16
  5.67805719E-05 -8.65074702E-05  1.11089526E-16 -1.80135580E-16 -2.13419295E-04
 -1.44622296E-04  5.18008573E-04  7.61340254E-04  1.19213141E-04 -2.79139643E-05
  7.61340254E-04  1.19213141E-04 -2.79139643E-05 -1.12174848E-04 -2.49426619E-06
  7.21882350E-16 -5.16078760E-04  1.04724009E-04  2.39669357E-16 -1.19739159E-04
  1.02777565E-04 -1.10598847E-15 -1.12174848E-04 -2.49426619E-06 -5.44581204E-16
 -5.16078760E-04  1.04724009E-04 -1.31646805E-15 -1.19739159E-04  1.02777565E-04
 -1.13190061E-15  2.54027405E-05 -3.75028401E-16  3.08964590E-16 -5.21319541E-05
 -2.35837180E-06 -1.03236402E-04  7.69406361E-16  2.35765682E-16  2.07461919E-04
 -7.10208798E-05  2.54027405E-05  4.72876223E-16 -2.97342826E-16 -5.21319541E-05
 -2.35837180E-06 -1.03236402E-04  1.88208076E-16 -5.58244953E-17  2.07461919E-04
 -7.10208798E-05 -6.13730648E-07  7.94418259E-06  1.60866378E-04  8.18352886E-04
 -3.02163384E-03 -9.02589374E-04 -1.89572193E-05 -9.88020248E-05 -7.59313892E-16
 -1.01641327E-04 -5.52418684E-04 -2.32063201E-15  5.37367063E-05  2.69288696E-04
  1.59369193E-15 -4.85659077E-04 -2.02523086E-03  1.77196768E-15 -4.42322335E-05
 -2.31407975E-04 -6.48220114E-16  3.72613826E-06 -2.49758115E-17  5.68906631E-17
  3.74948106E-06 -3.59263488E-06 -3.46359403E-05  5.48187155E-17 -5.33533168E-18
 -4.35052272E-05  3.04737658E-05  3.50446554E-04 -1.78131443E-16 -9.91934562E-17
  5.23811211E-04 -2.65023158E-04  2.80818133E-04  1.00562513E-16 -2.61436691E-16
  4.63100333E-04 -2.29171321E-04 -1.91244274E-17  5.93313409E-06  2.62177700E-05
  5.17568353E-17  3.08096715E-16  1.09404868E-05  2.26289502E-05  1.83839911E-16
  2.83210501E-05  1.14409202E-04  2.22792854E-16 -3.18933404E-16  1.19186946E-04
  1.20656498E-04 -4.42052470E-05  8.43971992E-04  1.39274706E-03  1.77358155E-04
  8.43971992E-04  1.39274706E-03  1.77358155E-04  2.06400742E-05  1.10849122E-04
 -6.33490223E-17  1.22369872E-04  7.38133296E-04 -2.05746358E-16 -2.14727017E-04
 -1.37666557E-03 -6.44042554E-16  2.06400742E-05  1.10849122E-04 -6.33490223E-17
  1.22369872E-04  7.38133296E-04 -2.05746358E-16 -2.14727017E-04 -1.37666557E-03
 -1.94926437E-16 -7.07599381E-05 -3.66552266E-17 -6.77836329E-17 -1.17224649E-04
  4.93585050E-05 -2.87315230E-04 -4.33084037E-17 -7.27272836E-16 -4.47305392E-04
  1.71923162E-04 -7.07599381E-05 -3.29265350E-17 -6.21900719E-17 -1.17224649E-04
  4.93585050E-05 -2.87315230E-04 -4.18302689E-17 -1.67705126E-17 -4.47305392E-04
  1.71923162E-04  5.91499574E-06  1.94252779E-05 -2.12042444E-06  1.41071724E-05
  4.02046617E-05  2.60344808E-06  7.91896866E-06  4.67136672E-16 -1.30501842E-05
 -1.62305732E-05 -6.59996271E-16  6.82870712E-05  1.10573219E-04  5.66218988E-15
  5.96175993E-05 -2.96443143E-05  3.23773396E-15 -1.15991679E-06 -7.02231159E-16
 -2.26733305E-16 -1.56699091E-06  2.99861559E-07  6.69496406E-06  1.22400780E-16
  6.75761415E-16  5.77136033E-06 -2.60504104E-07  1.97651860E-05  2.04093693E-15
 -2.34664636E-15  6.72551648E-05 -2.49576940E-05  6.09437547E-16  1.21220517E-06
  2.04144271E-06 -7.29019885E-16  7.87636418E-17  3.49437440E-07  1.05089885E-06
 -7.11604924E-16 -4.85544803E-06 -1.23930167E-05  1.91151626E-16  7.27942052E-17
 -4.91600015E-06 -7.00832494E-06 -2.45547773E-07 -1.35177927E-05 -4.05408833E-05
 -6.40988124E-05 -1.35177927E-05 -4.05408833E-05 -6.40988124E-05 -3.70411719E-07
  5.44020276E-07  1.49837931E-15 -4.87264793E-06 -6.28104559E-06 -8.02066212E-16
  3.30223833E-06  1.29533178E-06 -1.16538780E-15 -3.70411718E-07  5.44020276E-07
 -7.70955341E-16 -4.87264793E-06 -6.28104560E-06 -1.48395678E-15  3.30223833E-06
  1.29533178E-06 -1.51133320E-15 -4.76795998E-07 -2.47527620E-16  5.28726173E-16
  5.07874639E-07  6.06808718E-07 -3.64925452E-06  1.38321984E-15 -5.90118846E-16
  4.08804648E-06 -1.51789072E-06 -4.76795998E-07 -3.93838595E-16 -4.89792640E-16
  5.07874638E-07  6.06808718E-07 -3.64925452E-06 -7.10595558E-17  4.43470769E-16
  4.08804647E-06 -1.51789072E-06  9.83170606E-01 -2.61907902E-03  2.28943087E-02
 -5.96007090E-03  1.82266335E-03 -8.19997583E-04  1.29827451E-04  3.52117963E-04
 -1.35842033E-15 -1.30552823E-05 -4.03011331E-05 -1.62828167E-15  2.87052489E-05
  9.74218609E-05  1.29308852E-15  2.58635149E-05  1.22659433E-04  1.68437138E-15
 -1.57094015E-05 -1.30452335E-04 -1.48658228E-16 -8.28762863E-05  1.46889633E-16
 -2.67395210E-16 -1.10063996E-04  6.33636819E-05 -8.49497785E-06 -2.84328831E-16
  4.02725849E-16 -1.13990777E-05  6.83953098E-06 -8.24397854E-06  4.72679336E-16
 -3.04546301E-16 -1.94671067E-05  2.67710912E-06  2.27697207E-07  9.94713754E-17
  6.53084716E-16  8.99781670E-06  3.98658712E-06  1.74314933E-16  1.37603004E-07
 -1.13723575E-06  9.71992708E-17 -2.13011580E-16 -1.10116083E-06 -3.40386657E-06
 -2.06282768E-16 -1.79805286E-06 -6.75204366E-06 -1.29926372E-16  2.38187182E-16
 -3.94508385E-06 -4.06587959E-06  8.70306634E-06  8.25329962E-05 -7.87445493E-05
  1.76220244E-04  8.25329962E-05 -7.87445493E-05  1.76220244E-04 -4.98948250E-07
 -2.46145717E-06 -4.07565048E-17 -1.48544578E-06 -3.93331727E-06 -3.71902808E-16
 -9.56890745E-06  1.36776192E-05 -2.39280083E-15 -4.98948250E-07 -2.46145717E-06
 -4.07565048E-17 -1.48544578E-06 -3.93331727E-06 -3.71902808E-16 -9.56890745E-06
  1.36776192E-05 -1.57039352E-15 -1.31906160E-06  1.19323756E-17  3.21910732E-17
 -1.29989179E-06  1.00310483E-06  1.74873723E-05 -3.04829611E-16 -1.41617699E-15
  2.38989651E-05 -1.57875419E-05 -1.31906160E-06  2.76192246E-18  2.82027762E-17
 -1.29989179E-06  1.00310483E-06  1.74873723E-05 -3.08455754E-16  1.53793670E-16
  2.38989651E-05 -1.57875419E-05  6.78359033E-06  2.40640679E-06 -6.38515946E-06
  8.23205138E-05  9.42350585E-05  3.71231853E-06  1.76549968E-05  3.26160975E-16
 -8.08627136E-06 -6.76825640E-06 -1.61047428E-15  3.07460804E-05 -4.46405840E-07
  1.16103248E-14  7.81797463E-06 -2.72423458E-05  2.68864629E-15  5.60924502E-07
  5.72604209E-16 -2.09057496E-16  4.37963127E-07 -2.88870653E-07 -2.75370934E-06
  4.02443009E-16  4.49572006E-16 -3.91316933E-06  4.62331811E-06 -9.64830657E-06
 -1.66876053E-15 -9.22678750E-15  9.68266964E-06  1.06472992E-05  5.04919667E-16
  8.42950727E-07  6.21073270E-07  4.77310791E-16  2.02182821E-16 -1.89450780E-07
  4.61632073E-07 -2.59914204E-15 -2.44280305E-06 -3.66229609E-07 -1.62216988E-15
 -2.13377375E-17  3.37586933E-06  4.63385144E-06  1.21842546E-07 -1.21957038E-05
 -3.84341715E-05 -7.60137752E-06 -1.21957038E-05 -3.84341715E-05 -7.60137752E-06
 -1.62141774E-07 -3.13208655E-07  1.65536388E-15 -1.43700966E-06 -5.05826282E-06
  8.72942211E-16  8.97907996E-06 -7.50637317E-07 -8.20744094E-16 -1.62141777E-07
 -3.13208656E-07 -1.70350074E-15 -1.43700966E-06 -5.05826282E-06 -1.86545177E-15