 Entering Gaussian System, Link 0=g09
 Input=ihod_rOH_145_sp.gjf
 Output=ihod_rOH_145_sp.log
 Initial command:
 /usr/local/gaussian/g09/l1.exe "/scratch/Gau-3267.inp" -scrdir="/scratch/"
 Entering Link 1 = /usr/local/gaussian/g09/l1.exe PID=      3268.
  
 Copyright (c) 1988,1990,1992,1993,1995,1998,2003,2009,2015,
            Gaussian, Inc.  All Rights Reserved.
  
 This is part of the Gaussian(R) 09 program.  It is based on
 the Gaussian(R) 03 system (copyright 2003, Gaussian, Inc.),
 the Gaussian(R) 98 system (copyright 1998, Gaussian, Inc.),
 the Gaussian(R) 94 system (copyright 1995, Gaussian, Inc.),
 the Gaussian 92(TM) system (copyright 1992, Gaussian, Inc.),
 the Gaussian 90(TM) system (copyright 1990, Gaussian, Inc.),
 the Gaussian 88(TM) system (copyright 1988, Gaussian, Inc.),
 the Gaussian 86(TM) system (copyright 1986, Carnegie Mellon
 University), and the Gaussian 82(TM) system (copyright 1983,
 Carnegie Mellon University). Gaussian is a federally registered
 trademark of Gaussian, Inc.
  
 This software contains proprietary and confidential information,
 including trade secrets, belonging to Gaussian, Inc.
  
 This software is provided under written license and may be
 used, copied, transmitted, or stored only in accord with that
 written license.
  
 The following legend is applicable only to US Government
 contracts under FAR:
  
                    RESTRICTED RIGHTS LEGEND
  
 Use, reproduction and disclosure by the US Government is
 subject to restrictions as set forth in subparagraphs (a)
 and (c) of the Commercial Computer Software - Restricted
 Rights clause in FAR 52.227-19.
  
 Gaussian, Inc.
 340 Quinnipiac St., Bldg. 40, Wallingford CT 06492
  
  
 ---------------------------------------------------------------
 Warning -- This program may not be used in any manner that
 competes with the business of Gaussian, Inc. or will provide
 assistance to any competitor of Gaussian, Inc.  The licensee
 of this program is prohibited from giving any competitor of
 Gaussian, Inc. access to this program.  By using this program,
 the user acknowledges that Gaussian, Inc. is engaged in the
 business of creating and licensing software in the field of
 computational chemistry and represents and warrants to the
 licensee that it is not a competitor of Gaussian, Inc. and that
 it will not use this program in any manner prohibited above.
 ---------------------------------------------------------------
  

 Cite this work as:
 Gaussian 09, Revision E.01,
 M. J. Frisch, G. W. Trucks, H. B. Schlegel, G. E. Scuseria, 
 M. A. Robb, J. R. Cheeseman, G. Scalmani, V. Barone, B. Mennucci, 
 G. A. Petersson, H. Nakatsuji, M. Caricato, X. Li, H. P. Hratchian, 
 A. F. Izmaylov, J. Bloino, G. Zheng, J. L. Sonnenberg, M. Hada, 
 M. Ehara, K. Toyota, R. Fukuda, J. Hasegawa, M. Ishida, T. Nakajima, 
 Y. Honda, O. Kitao, H. Nakai, T. Vreven, J. A. Montgomery, Jr., 
 J. E. Peralta, F. Ogliaro, M. Bearpark, J. J. Heyd, E. Brothers, 
 K. N. Kudin, V. N. Staroverov, T. Keith, R. Kobayashi, J. Normand, 
 K. Raghavachari, A. Rendell, J. C. Burant, S. S. Iyengar, J. Tomasi, 
 M. Cossi, N. Rega, J. M. Millam, M. Klene, J. E. Knox, J. B. Cross, 
 V. Bakken, C. Adamo, J. Jaramillo, R. Gomperts, R. E. Stratmann, 
 O. Yazyev, A. J. Austin, R. Cammi, C. Pomelli, J. W. Ochterski, 
 R. L. Martin, K. Morokuma, V. G. Zakrzewski, G. A. Voth, 
 P. Salvador, J. J. Dannenberg, S. Dapprich, A. D. Daniels, 
 O. Farkas, J. B. Foresman, J. V. Ortiz, J. Cioslowski, 
 and D. J. Fox, Gaussian, Inc., Wallingford CT, 2013.
 
 ******************************************
 Gaussian 09:  ES64L-G09RevE.01 30-Nov-2015
                12-Oct-2021 
 ******************************************
 %nproc=12
 Will use up to   12 processors via shared memory.
 %mem=8000MB
 %chk=/home/netid.washington.edu/cgavinh/mccoy_hocl/rOH_s_oop_0/ihod/ihod_rOH_145
 _sp.chk
 --------------------------------------------------------
 #p pop=NBO SP NoSymm mp2/gen Pseudo=read density=current
 --------------------------------------------------------
 1/30=1,38=1/1;
 2/12=2,15=1,17=6,18=5,40=1/2;
 3/5=7,11=9,16=1,17=8,25=1,30=1,71=1/1,2,3;
 4//1;
 5/5=2,38=5/2;
 8/6=4,10=1/1;
 9/15=1,16=-3/6;
 10/5=1,13=10,31=1/2;
 6/7=2,8=2,9=2,10=2,22=-1,40=1/1,7;
 99/5=1,9=1/99;
 Leave Link    1 at Tue Oct 12 16:25:09 2021, MaxMem=  1048576000 cpu:         0.2
 (Enter /usr/local/gaussian/g09/l101.exe)
 -----
 title
 -----
 Symbolic Z-matrix:
 Charge = -1 Multiplicity = 1
 O
 X                    1     10. 
 H(iso=2)             1    r1       2     90. 
 I                    1    r2       2     90.      3    a1       0
 H                    1    r3       2    oop      3    a1       0
       Variables:
  r1                    0.96091                  
  r2                    3.5085                   
  r3                    1.45                     
  a1                  101.85831                  
  OOP                  90.                       
 
 NAtoms=      4 NQM=        4 NQMF=       0 NMMI=      0 NMMIF=      0
                NMic=       0 NMicF=      0.
                    Isotopes and Nuclear Properties:
 (Nuclear quadrupole moments (NQMom) in fm**2, nuclear magnetic moments (NMagM)
  in nuclear magnetons)

  Atom         1           2           3           4
 IAtWgt=          16           2         127           1
 AtmWgt=  15.9949146   2.0141018 126.9004000   1.0078250
 NucSpn=           0           2           5           1
 AtZEff=   0.0000000   0.0000000   0.0000000   0.0000000
 NQMom=    0.0000000   0.2860000 -71.0000000   0.0000000
 NMagM=    0.0000000   0.8574380   2.8132800   2.7928460
 AtZNuc=   8.0000000   1.0000000  53.0000000   1.0000000
 Leave Link  101 at Tue Oct 12 16:25:09 2021, MaxMem=  1048576000 cpu:         0.5
 (Enter /usr/local/gaussian/g09/l202.exe)
                          Input orientation:                          
 ---------------------------------------------------------------------
 Center     Atomic      Atomic             Coordinates (Angstroms)
 Number     Number       Type             X           Y           Z
 ---------------------------------------------------------------------
      1          8           0        0.000000    0.000000    0.000000
      2          1           0        0.960908    0.000000    0.000000
      3         53           0       -0.720970   -3.433628    0.000000
      4          1           0       -0.297964   -1.419055    0.000000
 ---------------------------------------------------------------------
                    Distance matrix (angstroms):
                    1          2          3          4
     1  O    0.000000
     2  H    0.960908   0.000000
     3  I    3.508504   3.823416   0.000000
     4  H    1.450000   1.896965   2.058504   0.000000
 Symmetry turned off by external request.
 Stoichiometry    H2IO(1-)
 Framework group  CS[SG(H2IO)]
 Deg. of freedom     5
 Full point group                 CS      NOp   2
 Rotational constants (GHZ):    323.0844216      2.5335730      2.5138597
 Leave Link  202 at Tue Oct 12 16:25:09 2021, MaxMem=  1048576000 cpu:         0.0
 (Enter /usr/local/gaussian/g09/l301.exe)
 General basis read from cards:  (5D, 7F)
 Centers:       2      4      1      2      4
 aug-cc-pVTZ
 ****
 Centers:       3
 S 11 1.00
     Exponent=  5.5465000000D+03 Coefficients=  1.5600000000D-04
     Exponent=  8.3821400000D+02 Coefficients=  9.8600000000D-04
     Exponent=  1.8218700000D+02 Coefficients=  2.7920000000D-03
     Exponent=  3.1212300000D+01 Coefficients= -4.3251000000D-02
     Exponent=  1.9531400000D+01 Coefficients=  2.3413400000D-01
     Exponent=  8.2409900000D+00 Coefficients= -7.5094300000D-01
     Exponent=  2.1945500000D+00 Coefficients=  8.8296800000D-01
     Exponent=  1.1091100000D+00 Coefficients=  4.6206100000D-01
     Exponent=  3.7464100000D-01 Coefficients=  2.2286000000D-02
     Exponent=  1.7708000000D-01 Coefficients= -4.3530000000D-03
     Exponent=  8.1061000000D-02 Coefficients=  1.1020000000D-03
 S 11 1.00
     Exponent=  5.5465000000D+03 Coefficients= -7.3000000000D-05
     Exponent=  8.3821400000D+02 Coefficients= -5.0800000000D-04
     Exponent=  1.8218700000D+02 Coefficients= -1.1580000000D-03
     Exponent=  3.1212300000D+01 Coefficients=  1.2193000000D-02
     Exponent=  1.9531400000D+01 Coefficients= -8.7854000000D-02
     Exponent=  8.2409900000D+00 Coefficients=  3.3820000000D-01
     Exponent=  2.1945500000D+00 Coefficients= -5.7655000000D-01
     Exponent=  1.1091100000D+00 Coefficients= -4.0929800000D-01
     Exponent=  3.7464100000D-01 Coefficients=  5.6745900000D-01
     Exponent=  1.7708000000D-01 Coefficients=  6.1248900000D-01
     Exponent=  8.1061000000D-02 Coefficients=  1.4323100000D-01
 S 1 1.00
     Exponent=  3.7464100000D-01 Coefficients=  1.0000000000D+00
 S 1 1.00
     Exponent=  1.7708000000D-01 Coefficients=  1.0000000000D+00
 S 1 1.00
     Exponent=  1.0010000000D-01 Coefficients=  1.0000000000D+00
 S 1 1.00
     Exponent=  4.1200000000D-02 Coefficients=  1.0000000000D+00
 P 9 1.00
     Exponent=  1.8898800000D+02 Coefficients=  5.8500000000D-04
     Exponent=  2.1286800000D+01 Coefficients=  3.6923000000D-02
     Exponent=  1.0039600000D+01 Coefficients= -2.3532400000D-01
     Exponent=  3.4518000000D+00 Coefficients=  3.4148300000D-01
     Exponent=  1.9745600000D+00 Coefficients=  5.3478800000D-01
     Exponent=  1.0242000000D+00 Coefficients=  2.6514100000D-01
     Exponent=  4.4943700000D-01 Coefficients=  2.5787000000D-02
     Exponent=  1.8664800000D-01 Coefficients=  5.2200000000D-04
     Exponent=  7.3481000000D-02 Coefficients=  6.0600000000D-04
 P 9 1.00
     Exponent=  1.8898800000D+02 Coefficients= -2.5600000000D-04
     Exponent=  2.1286800000D+01 Coefficients= -1.1682000000D-02
     Exponent=  1.0039600000D+01 Coefficients=  8.3192000000D-02
     Exponent=  3.4518000000D+00 Coefficients= -1.5697000000D-01
     Exponent=  1.9745600000D+00 Coefficients= -2.2451800000D-01
     Exponent=  1.0242000000D+00 Coefficients= -1.1445100000D-01
     Exponent=  4.4943700000D-01 Coefficients=  3.7535600000D-01
     Exponent=  1.8664800000D-01 Coefficients=  5.7513600000D-01
     Exponent=  7.3481000000D-02 Coefficients=  2.4591700000D-01
 P 1 1.00
     Exponent=  5.9810000000D-01 Coefficients=  1.0000000000D+00
 P 1 1.00
     Exponent=  9.6180000000D-02 Coefficients=  1.0000000000D+00
 P 1 1.00
     Exponent=  3.5900000000D-02 Coefficients=  1.0000000000D+00
 D 9 1.00
     Exponent=  1.3266200000D+02 Coefficients=  5.7200000000D-04
     Exponent=  3.7605400000D+01 Coefficients=  4.4020000000D-03
     Exponent=  1.0389100000D+01 Coefficients= -4.0922000000D-02
     Exponent=  6.4901700000D+00 Coefficients=  9.9661000000D-02
     Exponent=  3.4545100000D+00 Coefficients=  3.2266300000D-01
     Exponent=  1.8441300000D+00 Coefficients=  4.0034300000D-01
     Exponent=  9.6247800000D-01 Coefficients=  2.6830600000D-01
     Exponent=  4.7285300000D-01 Coefficients=  8.4847000000D-02
     Exponent=  1.9320000000D-01 Coefficients=  7.6320000000D-03
 D 1 1.00
     Exponent=  4.7285300000D-01 Coefficients=  1.0000000000D+00
 D 1 1.00
     Exponent=  1.9320000000D-01 Coefficients=  1.0000000000D+00
 D 1 1.00
     Exponent=  7.8200000000D-02 Coefficients=  1.0000000000D+00
 F 1 1.00
     Exponent=  4.0640000000D-01 Coefficients=  1.0000000000D+00
 F 1 1.00
     Exponent=  1.8480000000D-01 Coefficients=  1.0000000000D+00
 ****
 ======================================================================================================
                                       Pseudopotential Parameters
 ======================================================================================================
  Center     Atomic      Valence      Angular      Power
  Number     Number     Electrons     Momentum     of R      Exponent        Coefficient   SO-Coeffient
 ======================================================================================================
    1          8
                                   No pseudopotential on this center.
    2          1
                                   No pseudopotential on this center.
    3         53           25
                                      G and up 
                                                     2        1.0000000        0.00000000    0.00000000
                                      S - G
                                                     2       40.0333760       49.98964900    0.00000000
                                                     2       17.3005760      281.00655600    0.00000000
                                                     2        8.8517200       61.41673900    0.00000000
                                      P - G
                                                     2       15.7201410       67.41623900    0.00000000
                                                     2       15.2082220      134.80769600    0.00000000
                                                     2        8.2941860       14.56654800    0.00000000
                                                     2        7.7539490       28.96842200    0.00000000
                                      D - G
                                                     2       13.8177510       35.53875600    0.00000000
                                                     2       13.5878050       53.33975900    0.00000000
                                                     2        6.9476300        9.71646600    0.00000000
                                                     2        6.9600990       14.97750000    0.00000000
                                      F - G
                                                     2       18.5229500      -20.17661800    0.00000000
                                                     2       18.2510350      -26.08807700    0.00000000
                                                     2        7.5579010       -0.22043400    0.00000000
                                                     2        7.5974040       -0.22164600    0.00000000
    4          1
                                   No pseudopotential on this center.
 ======================================================================================================
 Ernie: Thresh=  0.10000D-02 Tol=  0.10000D-05 Strict=F.
 Ernie:  16 primitive shells out of 135 were deleted.
   191 basis functions,   344 primitive gaussians,   218 cartesian basis functions
    18 alpha electrons       18 beta electrons
       nuclear repulsion energy        47.6564394966 Hartrees.
 IExCor=    0 DFT=F Ex=HF Corr=None ExCW=0 ScaHFX=  1.000000
 ScaDFX=  1.000000  1.000000  1.000000  1.000000 ScalE2=  1.000000  1.000000
 IRadAn=      0 IRanWt=     -1 IRanGd=            0 ICorTp=0 IEmpDi=  4
 NAtoms=    4 NActive=    4 NUniq=    4 SFac= 1.00D+00 NAtFMM=   60 NAOKFM=F Big=F
 Integral buffers will be    131072 words long.
 Raffenetti 1 integral format.
 Two-electron integral symmetry is turned off.
 Leave Link  301 at Tue Oct 12 16:25:09 2021, MaxMem=  1048576000 cpu:         0.6
 (Enter /usr/local/gaussian/g09/l302.exe)
 NPDir=0 NMtPBC=     1 NCelOv=     1 NCel=       1 NClECP=     1 NCelD=      1
         NCelK=      1 NCelE2=     1 NClLst=     1 CellRange=     0.0.
 One-electron integrals computed using PRISM.
   1 Symmetry operations used in ECPInt.
 ECPInt:  NShTT=    2145 NPrTT=    7341 LenC2=    2146 LenP2D=    6694.
 LDataN:  DoStor=T MaxTD1= 7 Len=  274
 NBasis=   191 RedAO= T EigKep=  2.70D-04  NBF=   191
 NBsUse=   147 1.00D-06 EigRej=  8.55D-16 NBFU=   147
 Leave Link  302 at Tue Oct 12 16:25:09 2021, MaxMem=  1048576000 cpu:         2.7
 (Enter /usr/local/gaussian/g09/l303.exe)
 DipDrv:  MaxL=1.
 Leave Link  303 at Tue Oct 12 16:25:09 2021, MaxMem=  1048576000 cpu:         0.2
 (Enter /usr/local/gaussian/g09/l401.exe)
 ExpMin= 2.53D-02 ExpMax= 1.53D+04 ExpMxC= 5.22D+02 IAcc=3 IRadAn=         5 AccDes= 0.00D+00
 Harris functional with IExCor=  205 and IRadAn=       5 diagonalized for initial guess.
 HarFok:  IExCor=  205 AccDes= 0.00D+00 IRadAn=         5 IDoV= 1 UseB2=F ITyADJ=14
 ICtDFT=  3500011 ScaDFX=  1.000000  1.000000  1.000000  1.000000
 Defaulting to unpruned grid for atomic number  53.
 Defaulting to unpruned grid for atomic number  53.
 Defaulting to unpruned grid for atomic number  53.
 Defaulting to unpruned grid for atomic number  53.
 Defaulting to unpruned grid for atomic number  53.
 Defaulting to unpruned grid for atomic number  53.
 Defaulting to unpruned grid for atomic number  53.
 Defaulting to unpruned grid for atomic number  53.
 Defaulting to unpruned grid for atomic number  53.
 Defaulting to unpruned grid for atomic number  53.
 Defaulting to unpruned grid for atomic number  53.
 Defaulting to unpruned grid for atomic number  53.
 FoFCou: FMM=F IPFlag=           0 FMFlag=      100000 FMFlg1=           0
         NFxFlg=           0 DoJE=T BraDBF=F KetDBF=T FulRan=T
         wScrn=  0.000000 ICntrl=     500 IOpCl=  0 I1Cent=   200000004 NGrid=           0
         NMat0=    1 NMatS0=      1 NMatT0=    0 NMatD0=    1 NMtDS0=    0 NMtDT0=    0
 Symmetry not used in FoFCou.
 Harris En= -372.646494330182    
 JPrj=0 DoOrth=F DoCkMO=F.
 Leave Link  401 at Tue Oct 12 16:25:09 2021, MaxMem=  1048576000 cpu:         2.8
 (Enter /usr/local/gaussian/g09/l502.exe)
 Closed shell SCF:
 Using DIIS extrapolation, IDIIS=  1040.
 Two-electron integral symmetry not used.
 Keep R1 ints in memory in canonical form, NReq=176646793.
 IVT=      165054 IEndB=      165054 NGot=  1048576000 MDV=   880297331
 LenX=   880297331 LenY=   880249366
 Requested convergence on RMS density matrix=1.00D-08 within 128 cycles.
 Requested convergence on MAX density matrix=1.00D-06.
 Requested convergence on             energy=1.00D-06.
 No special actions if energy rises.
 FoFCou: FMM=F IPFlag=           0 FMFlag=           0 FMFlg1=           0
         NFxFlg=           0 DoJE=F BraDBF=F KetDBF=F FulRan=T
         wScrn=  0.000000 ICntrl=     600 IOpCl=  0 I1Cent=           0 NGrid=           0
         NMat0=    1 NMatS0=  18336 NMatT0=    0 NMatD0=    1 NMtDS0=    0 NMtDT0=    0
 Symmetry not used in FoFCou.

 Cycle   1  Pass 1  IDiag  1:
 E= -370.524073428324    
 DIIS: error= 3.97D-02 at cycle   1 NSaved=   1.
 NSaved= 1 IEnMin= 1 EnMin= -370.524073428324     IErMin= 1 ErrMin= 3.97D-02
 ErrMax= 3.97D-02  0.00D+00 EMaxC= 1.00D-01 BMatC= 4.38D-01 BMatP= 4.38D-01
 IDIUse=3 WtCom= 6.03D-01 WtEn= 3.97D-01
 Coeff-Com:  0.100D+01
 Coeff-En:   0.100D+01
 Coeff:      0.100D+01
 Gap=     0.545 Goal=   None    Shift=    0.000
 GapD=    0.545 DampG=2.000 DampE=0.500 DampFc=1.0000 IDamp=-1.
 RMSDP=4.52D-03 MaxDP=1.56D-01              OVMax= 2.42D-01

 Cycle   2  Pass 1  IDiag  1:
 E= -370.613000643342     Delta-E=       -0.088927215018 Rises=F Damp=F
 DIIS: error= 4.26D-02 at cycle   2 NSaved=   2.
 NSaved= 2 IEnMin= 2 EnMin= -370.613000643342     IErMin= 1 ErrMin= 3.97D-02
 ErrMax= 4.26D-02  0.00D+00 EMaxC= 1.00D-01 BMatC= 1.72D-01 BMatP= 4.38D-01
 IDIUse=3 WtCom= 5.74D-01 WtEn= 4.26D-01
 Coeff-Com:  0.365D+00 0.635D+00
 Coeff-En:   0.318D+00 0.682D+00
 Coeff:      0.345D+00 0.655D+00
 Gap=     0.447 Goal=   None    Shift=    0.000
 RMSDP=2.09D-03 MaxDP=8.64D-02 DE=-8.89D-02 OVMax= 1.21D-01

 Cycle   3  Pass 1  IDiag  1:
 E= -370.727979168028     Delta-E=       -0.114978524686 Rises=F Damp=F
 DIIS: error= 1.01D-02 at cycle   3 NSaved=   3.
 NSaved= 3 IEnMin= 3 EnMin= -370.727979168028     IErMin= 3 ErrMin= 1.01D-02
 ErrMax= 1.01D-02  0.00D+00 EMaxC= 1.00D-01 BMatC= 1.17D-02 BMatP= 1.72D-01
 IDIUse=3 WtCom= 8.99D-01 WtEn= 1.01D-01
 Coeff-Com:  0.591D-02 0.200D+00 0.794D+00
 Coeff-En:   0.000D+00 0.000D+00 0.100D+01
 Coeff:      0.531D-02 0.180D+00 0.815D+00
 Gap=     0.318 Goal=   None    Shift=    0.000
 RMSDP=5.42D-04 MaxDP=2.57D-02 DE=-1.15D-01 OVMax= 3.28D-02

 Cycle   4  Pass 1  IDiag  1:
 E= -370.736182041926     Delta-E=       -0.008202873898 Rises=F Damp=F
 DIIS: error= 1.69D-03 at cycle   4 NSaved=   4.
 NSaved= 4 IEnMin= 4 EnMin= -370.736182041926     IErMin= 4 ErrMin= 1.69D-03
 ErrMax= 1.69D-03  0.00D+00 EMaxC= 1.00D-01 BMatC= 2.60D-04 BMatP= 1.17D-02
 IDIUse=3 WtCom= 9.83D-01 WtEn= 1.69D-02
 Coeff-Com: -0.137D-01-0.559D-02 0.130D+00 0.889D+00
 Coeff-En:   0.000D+00 0.000D+00 0.000D+00 0.100D+01
 Coeff:     -0.135D-01-0.549D-02 0.128D+00 0.891D+00
 Gap=     0.321 Goal=   None    Shift=    0.000
 RMSDP=1.32D-04 MaxDP=1.04D-02 DE=-8.20D-03 OVMax= 5.55D-03

 Cycle   5  Pass 1  IDiag  1:
 E= -370.736452895018     Delta-E=       -0.000270853092 Rises=F Damp=F
 DIIS: error= 2.75D-04 at cycle   5 NSaved=   5.
 NSaved= 5 IEnMin= 5 EnMin= -370.736452895018     IErMin= 5 ErrMin= 2.75D-04
 ErrMax= 2.75D-04  0.00D+00 EMaxC= 1.00D-01 BMatC= 1.47D-05 BMatP= 2.60D-04
 IDIUse=3 WtCom= 9.97D-01 WtEn= 2.75D-03
 Coeff-Com:  0.292D-02-0.139D-01-0.726D-01-0.102D+00 0.119D+01
 Coeff-En:   0.000D+00 0.000D+00 0.000D+00 0.000D+00 0.100D+01
 Coeff:      0.291D-02-0.139D-01-0.724D-01-0.102D+00 0.119D+01
 Gap=     0.320 Goal=   None    Shift=    0.000
 RMSDP=7.45D-05 MaxDP=3.26D-03 DE=-2.71D-04 OVMax= 3.80D-03

 Cycle   6  Pass 1  IDiag  1:
 E= -370.736498650542     Delta-E=       -0.000045755524 Rises=F Damp=F
 DIIS: error= 1.64D-04 at cycle   6 NSaved=   6.
 NSaved= 6 IEnMin= 6 EnMin= -370.736498650542     IErMin= 6 ErrMin= 1.64D-04
 ErrMax= 1.64D-04  0.00D+00 EMaxC= 1.00D-01 BMatC= 1.71D-06 BMatP= 1.47D-05
 IDIUse=3 WtCom= 9.98D-01 WtEn= 1.64D-03
 Coeff-Com: -0.220D-04 0.473D-02 0.144D-01-0.665D-01-0.322D+00 0.137D+01
 Coeff-En:   0.000D+00 0.000D+00 0.000D+00 0.000D+00 0.000D+00 0.100D+01
 Coeff:     -0.220D-04 0.472D-02 0.143D-01-0.664D-01-0.322D+00 0.137D+01
 Gap=     0.319 Goal=   None    Shift=    0.000
 RMSDP=3.05D-05 MaxDP=2.00D-03 DE=-4.58D-05 OVMax= 2.05D-03

 Cycle   7  Pass 1  IDiag  1:
 E= -370.736506070058     Delta-E=       -0.000007419516 Rises=F Damp=F
 DIIS: error= 3.61D-05 at cycle   7 NSaved=   7.
 NSaved= 7 IEnMin= 7 EnMin= -370.736506070058     IErMin= 7 ErrMin= 3.61D-05
 ErrMax= 3.61D-05  0.00D+00 EMaxC= 1.00D-01 BMatC= 1.44D-07 BMatP= 1.71D-06
 IDIUse=1 WtCom= 1.00D+00 WtEn= 0.00D+00
 Coeff-Com: -0.285D-03 0.261D-03 0.388D-02 0.276D-01-0.593D-01-0.274D+00
 Coeff-Com:  0.130D+01
 Coeff:     -0.285D-03 0.261D-03 0.388D-02 0.276D-01-0.593D-01-0.274D+00
 Coeff:      0.130D+01
 Gap=     0.318 Goal=   None    Shift=    0.000
 RMSDP=7.74D-06 MaxDP=3.16D-04 DE=-7.42D-06 OVMax= 5.69D-04

 Cycle   8  Pass 1  IDiag  1:
 E= -370.736506726646     Delta-E=       -0.000000656588 Rises=F Damp=F
 DIIS: error= 1.09D-05 at cycle   8 NSaved=   8.
 NSaved= 8 IEnMin= 8 EnMin= -370.736506726646     IErMin= 8 ErrMin= 1.09D-05
 ErrMax= 1.09D-05  0.00D+00 EMaxC= 1.00D-01 BMatC= 1.49D-08 BMatP= 1.44D-07
 IDIUse=1 WtCom= 1.00D+00 WtEn= 0.00D+00
 Coeff-Com:  0.306D-05-0.507D-03-0.975D-03 0.921D-02 0.262D-01-0.154D+00
 Coeff-Com:  0.112D+00 0.101D+01
 Coeff:      0.306D-05-0.507D-03-0.975D-03 0.921D-02 0.262D-01-0.154D+00
 Coeff:      0.112D+00 0.101D+01
 Gap=     0.318 Goal=   None    Shift=    0.000
 RMSDP=1.62D-06 MaxDP=4.71D-05 DE=-6.57D-07 OVMax= 1.40D-04

 Cycle   9  Pass 1  IDiag  1:
 E= -370.736506768366     Delta-E=       -0.000000041719 Rises=F Damp=F
 DIIS: error= 3.75D-06 at cycle   9 NSaved=   9.
 NSaved= 9 IEnMin= 9 EnMin= -370.736506768366     IErMin= 9 ErrMin= 3.75D-06
 ErrMax= 3.75D-06  0.00D+00 EMaxC= 1.00D-01 BMatC= 1.68D-09 BMatP= 1.49D-08
 IDIUse=1 WtCom= 1.00D+00 WtEn= 0.00D+00
 Coeff-Com:  0.185D-04 0.443D-04-0.148D-04-0.481D-02 0.905D-03 0.565D-01
 Coeff-Com: -0.165D+00-0.147D+00 0.126D+01
 Coeff:      0.185D-04 0.443D-04-0.148D-04-0.481D-02 0.905D-03 0.565D-01
 Coeff:     -0.165D+00-0.147D+00 0.126D+01
 Gap=     0.318 Goal=   None    Shift=    0.000
 RMSDP=7.45D-07 MaxDP=2.41D-05 DE=-4.17D-08 OVMax= 3.83D-05

 Cycle  10  Pass 1  IDiag  1:
 E= -370.736506772954     Delta-E=       -0.000000004588 Rises=F Damp=F
 DIIS: error= 7.17D-07 at cycle  10 NSaved=  10.
 NSaved=10 IEnMin=10 EnMin= -370.736506772954     IErMin=10 ErrMin= 7.17D-07
 ErrMax= 7.17D-07  0.00D+00 EMaxC= 1.00D-01 BMatC= 6.20D-11 BMatP= 1.68D-09
 IDIUse=1 WtCom= 1.00D+00 WtEn= 0.00D+00
 Coeff-Com: -0.338D-05 0.158D-04 0.564D-05 0.453D-03-0.112D-02-0.273D-02
 Coeff-Com:  0.259D-01-0.266D-01-0.251D+00 0.125D+01
 Coeff:     -0.338D-05 0.158D-04 0.564D-05 0.453D-03-0.112D-02-0.273D-02
 Coeff:      0.259D-01-0.266D-01-0.251D+00 0.125D+01
 Gap=     0.318 Goal=   None    Shift=    0.000
 RMSDP=1.55D-07 MaxDP=5.46D-06 DE=-4.59D-09 OVMax= 7.94D-06

 Cycle  11  Pass 1  IDiag  1:
 E= -370.736506773146     Delta-E=       -0.000000000192 Rises=F Damp=F
 DIIS: error= 1.23D-07 at cycle  11 NSaved=  11.
 NSaved=11 IEnMin=11 EnMin= -370.736506773146     IErMin=11 ErrMin= 1.23D-07
 ErrMax= 1.23D-07  0.00D+00 EMaxC= 1.00D-01 BMatC= 2.78D-12 BMatP= 6.20D-11
 IDIUse=1 WtCom= 1.00D+00 WtEn= 0.00D+00
 Coeff-Com: -0.313D-06-0.296D-05 0.117D-04 0.115D-03-0.490D-05-0.132D-02
 Coeff-Com:  0.164D-02 0.885D-02 0.450D-02-0.290D+00 0.128D+01
 Coeff:     -0.313D-06-0.296D-05 0.117D-04 0.115D-03-0.490D-05-0.132D-02
 Coeff:      0.164D-02 0.885D-02 0.450D-02-0.290D+00 0.128D+01
 Gap=     0.318 Goal=   None    Shift=    0.000
 RMSDP=2.70D-08 MaxDP=7.70D-07 DE=-1.92D-10 OVMax= 1.65D-06

 Cycle  12  Pass 1  IDiag  1:
 E= -370.736506773154     Delta-E=       -0.000000000008 Rises=F Damp=F
 DIIS: error= 3.55D-08 at cycle  12 NSaved=  12.
 NSaved=12 IEnMin=12 EnMin= -370.736506773154     IErMin=12 ErrMin= 3.55D-08
 ErrMax= 3.55D-08  0.00D+00 EMaxC= 1.00D-01 BMatC= 1.79D-13 BMatP= 2.78D-12
 IDIUse=1 WtCom= 1.00D+00 WtEn= 0.00D+00
 Coeff-Com:  0.260D-06-0.514D-06 0.111D-05-0.415D-04 0.500D-04 0.269D-03
 Coeff-Com: -0.170D-02 0.103D-02 0.163D-01-0.726D-01-0.359D-01 0.109D+01
 Coeff:      0.260D-06-0.514D-06 0.111D-05-0.415D-04 0.500D-04 0.269D-03
 Coeff:     -0.170D-02 0.103D-02 0.163D-01-0.726D-01-0.359D-01 0.109D+01
 Gap=     0.318 Goal=   None    Shift=    0.000
 RMSDP=8.41D-09 MaxDP=3.18D-07 DE=-8.24D-12 OVMax= 3.60D-07

 SCF Done:  E(RHF) =  -370.736506773     A.U. after   12 cycles
            NFock= 12  Conv=0.84D-08     -V/T= 2.9876
 KE= 1.865252990052D+02 PE=-9.085748596852D+02 EE= 3.036566144104D+02
 Leave Link  502 at Tue Oct 12 16:25:13 2021, MaxMem=  1048576000 cpu:        19.5
 (Enter /usr/local/gaussian/g09/l801.exe)
 ExpMin= 2.53D-02 ExpMax= 1.53D+04 ExpMxC= 5.22D+02 IAcc=3 IRadAn=         5 AccDes= 0.00D+00
 HarFok:  IExCor=  205 AccDes= 0.00D+00 IRadAn=         5 IDoV=-2 UseB2=F ITyADJ=14
 ICtDFT= 12500011 ScaDFX=  1.000000  1.000000  1.000000  1.000000
 Defaulting to unpruned grid for atomic number  53.
 Defaulting to unpruned grid for atomic number  53.
 Defaulting to unpruned grid for atomic number  53.
 Defaulting to unpruned grid for atomic number  53.
 Defaulting to unpruned grid for atomic number  53.
 Defaulting to unpruned grid for atomic number  53.
 Defaulting to unpruned grid for atomic number  53.
 Defaulting to unpruned grid for atomic number  53.
 Defaulting to unpruned grid for atomic number  53.
 Defaulting to unpruned grid for atomic number  53.
 Defaulting to unpruned grid for atomic number  53.
 Defaulting to unpruned grid for atomic number  53.
 Largest valence mixing into a core orbital is  1.31D-04
 Largest core mixing into a valence orbital is  2.45D-05
 Range of M.O.s used for correlation:     6   147
 NBasis=   191 NAE=    18 NBE=    18 NFC=     5 NFV=     0
 NROrb=    142 NOA=    13 NOB=    13 NVA=   129 NVB=   129

 **** Warning!!: The largest alpha MO coefficient is  0.18417988D+02

 Leave Link  801 at Tue Oct 12 16:25:13 2021, MaxMem=  1048576000 cpu:         0.8
 (Enter /usr/local/gaussian/g09/l906.exe)
 Frozen-core derivative calculation, NFC=   5 NFV=   0.
 FulOut=F Deriv=T AODrv=F NAtomX=     4
   MMem=         196  MDisk=          13 MDiskD=          13
  W3Min=      576828 MinDsk=     1313419 NBas6D=         218
 NBas2D=       24339    NTT=       23871    LW2=    26219120
    MDV=  1048236570 MDiskM=       23996 NBas2p=       24339
 Fully in-core method, ICMem=   672878533.
 IMap=   1   2   3   4   5   6   7   8   9  10  11  12  13  14  15  16  17  18
 JobTyp=1 Pass  1 fully in-core, NPsUse= 12.
 Compute canonical integrals.
 FoFCou: FMM=F IPFlag=           0 FMFlag=           0 FMFlg1=           0
         NFxFlg=           0 DoJE=F BraDBF=F KetDBF=F FulRan=T
         wScrn=  0.000000 ICntrl=     600 IOpCl=  1 I1Cent=           0 NGrid=           0
         NMat0=    1 NMatS0=  24339 NMatT0=    0 NMatD0=    1 NMtDS0=    0 NMtDT0=    0
 Symmetry not used in FoFCou.
 Spin components of T(2) and E(2):
     alpha-alpha T2 =       0.2432697688D-01 E2=     -0.7136146170D-01
     alpha-beta  T2 =       0.1273631048D+00 E2=     -0.3793318415D+00
     beta-beta   T2 =       0.2432697688D-01 E2=     -0.7136146170D-01
 The integrals were generated   1 times.
 ANorm=    0.1084443202D+01
 E2 =    -0.5220547649D+00 EUMP2 =    -0.37125856153807D+03
 Leave Link  906 at Tue Oct 12 16:25:22 2021, MaxMem=  1048576000 cpu:       101.6
 (Enter /usr/local/gaussian/g09/l1002.exe)
 Minotr:  Closed shell wavefunction.
          Computing MP2/KS-MP2 derivatives.
          Using Z-Vector for PSCF gradient.
          Skipping F1 and S1 gradient terms here.
          Frozen-core window.
          Direct CPHF calculation.
          Differentiating once with respect to electric field.
                with respect to dipole field.
          Electric field/nuclear overlap derivatives assumed to be zero.
          Requested convergence is 1.0D-10 RMS, and 1.0D-09 maximum.
          NewPWx=F KeepS1=T KeepF1=T KeepIn=T MapXYZ=F SortEE=F KeepMc=T.
          MDV=    1048575822 using IRadAn=       0.
 Keep R1 ints in memory in canonical form, NReq=176526587.
 FoFCou: FMM=F IPFlag=           0 FMFlag=           0 FMFlg1=           0
         NFxFlg=           0 DoJE=F BraDBF=F KetDBF=F FulRan=T
         wScrn=  0.000000 ICntrl=     600 IOpCl=  0 I1Cent=           0 NGrid=           0
         NMat0=    1 NMatS0=  18336 NMatT0=    0 NMatD0=    1 NMtDS0=    0 NMtDT0=    0
 Symmetry not used in FoFCou.
          Solving linear equations separately, MaxMat=       0.
          There are     1 degrees of freedom in the 1st order CPHF.  IDoFFX=0 NUNeed=     1.
 LinEq1:  Iter=  0 NonCon=     1 RMS=3.91D-03 Max=8.61D-02 NDo=     1
 AX will form     1 AO Fock derivatives at one time.
 LinEq1:  Iter=  1 NonCon=     1 RMS=7.07D-04 Max=1.02D-02 NDo=     1
 LinEq1:  Iter=  2 NonCon=     1 RMS=2.73D-04 Max=3.88D-03 NDo=     1
 LinEq1:  Iter=  3 NonCon=     1 RMS=1.10D-04 Max=1.45D-03 NDo=     1
 LinEq1:  Iter=  4 NonCon=     1 RMS=5.80D-05 Max=9.74D-04 NDo=     1
 LinEq1:  Iter=  5 NonCon=     1 RMS=1.02D-05 Max=1.17D-04 NDo=     1
 LinEq1:  Iter=  6 NonCon=     1 RMS=2.11D-06 Max=2.00D-05 NDo=     1
 LinEq1:  Iter=  7 NonCon=     1 RMS=5.36D-07 Max=8.41D-06 NDo=     1
 LinEq1:  Iter=  8 NonCon=     1 RMS=1.56D-07 Max=1.83D-06 NDo=     1
 LinEq1:  Iter=  9 NonCon=     1 RMS=3.52D-08 Max=4.87D-07 NDo=     1
 LinEq1:  Iter= 10 NonCon=     1 RMS=7.02D-09 Max=8.49D-08 NDo=     1
 LinEq1:  Iter= 11 NonCon=     1 RMS=1.20D-09 Max=1.36D-08 NDo=     1
 LinEq1:  Iter= 12 NonCon=     1 RMS=3.11D-10 Max=3.95D-09 NDo=     1
 LinEq1:  Iter= 13 NonCon=     1 RMS=9.41D-11 Max=1.02D-09 NDo=     1
 LinEq1:  Iter= 14 NonCon=     0 RMS=1.50D-11 Max=1.15D-10 NDo=     1
 Linear equations converged to 1.000D-10 1.000D-09 after    14 iterations.
 End of Minotr F.D. properties file   721 does not exist.
 End of Minotr F.D. properties file   722 does not exist.
 End of Minotr F.D. properties file   788 does not exist.
 Leave Link 1002 at Tue Oct 12 16:25:26 2021, MaxMem=  1048576000 cpu:        18.9
 (Enter /usr/local/gaussian/g09/l601.exe)
 Copying SCF densities to generalized density rwf, IOpCl= 0 IROHF=0.

 **********************************************************************

            Population analysis using the MP2 density.

 **********************************************************************

 Alpha  occ. eigenvalues --  -20.34186  -7.50269  -5.32958  -5.32732  -5.32727
 Alpha  occ. eigenvalues --   -2.05749  -2.05628  -2.05622  -2.05375  -2.05375
 Alpha  occ. eigenvalues --   -1.06280  -0.66800  -0.41406  -0.33081  -0.26604
 Alpha  occ. eigenvalues --   -0.17463  -0.17303  -0.17259
 Alpha virt. eigenvalues --    0.14570   0.16810   0.22657   0.23911   0.24142
 Alpha virt. eigenvalues --    0.28213   0.30125   0.30965   0.31544   0.34325
 Alpha virt. eigenvalues --    0.35989   0.36082   0.36351   0.38964   0.39500
 Alpha virt. eigenvalues --    0.44076   0.45422   0.46743   0.49304   0.55416
 Alpha virt. eigenvalues --    0.57667   0.62089   0.66156   0.70935   0.75167
 Alpha virt. eigenvalues --    0.75243   0.75815   0.77291   0.77372   0.78387
 Alpha virt. eigenvalues --    0.81543   0.82819   0.84330   0.85889   0.85972
 Alpha virt. eigenvalues --    0.86123   0.87759   0.91867   0.92558   0.94040
 Alpha virt. eigenvalues --    0.95754   0.99710   1.04583   1.08296   1.09589
 Alpha virt. eigenvalues --    1.12537   1.14151   1.14226   1.18662   1.21179
 Alpha virt. eigenvalues --    1.22980   1.24565   1.26452   1.37403   1.37418
 Alpha virt. eigenvalues --    1.49204   1.49945   1.51589   1.57879   1.67325
 Alpha virt. eigenvalues --    1.72086   1.72195   1.72497   1.73116   1.74035
 Alpha virt. eigenvalues --    1.74922   1.76857   1.82285   1.87457   1.91056
 Alpha virt. eigenvalues --    1.98356   2.02541   2.02843   2.03257   2.06328
 Alpha virt. eigenvalues --    2.11368   2.16738   2.33865   2.43596   2.50329
 Alpha virt. eigenvalues --    2.56822   2.56960   2.61534   2.62552   2.73065
 Alpha virt. eigenvalues --    2.78014   2.86546   2.88773   2.98257   3.01518
 Alpha virt. eigenvalues --    3.20559   3.39869   3.40028   3.60152   3.89814
 Alpha virt. eigenvalues --    4.13232   4.14466   4.30414   4.31560   4.35627
 Alpha virt. eigenvalues --    4.39613   4.44024   4.52659   4.55965   4.58396
 Alpha virt. eigenvalues --    4.60888   4.75503   4.81733   5.06766   5.16459
 Alpha virt. eigenvalues --    5.40157   5.52465   5.58491   6.00504   6.51129
 Alpha virt. eigenvalues --    6.91933   7.00795   7.06474   7.11685   7.43510
 Alpha virt. eigenvalues --    7.46818   7.52651   7.54032   7.55345   7.75702
 Alpha virt. eigenvalues --    7.87706   8.47807  14.52437  59.18442
          Condensed to atoms (all electrons):
               1          2          3          4
     1  O    8.403672   0.194053  -0.117879   0.193323
     2  H    0.194053   0.626390  -0.004022   0.033546
     3  I   -0.117879  -0.004022  25.711977  -0.003669
     4  H    0.193323   0.033546  -0.003669   0.667256
 Mulliken charges:
               1
     1  O   -0.673169
     2  H    0.150033
     3  I   -0.586408
     4  H    0.109544
 Sum of Mulliken charges =  -1.00000
 Mulliken charges with hydrogens summed into heavy atoms:
               1
     1  O   -0.413592
     3  I   -0.586408
 Electronic spatial extent (au):  <R**2>=           1228.3453
 Charge=             -1.0000 electrons
 Dipole moment (field-independent basis, Debye):
    X=              3.2039    Y=              9.9288    Z=             -0.0000  Tot=             10.4329
 Quadrupole moment (field-independent basis, Debye-Ang):
   XX=            -40.2821   YY=            -77.8563   ZZ=            -41.3565
   XY=             -7.3148   XZ=              0.0000   YZ=              0.0000
 Traceless Quadrupole moment (field-independent basis, Debye-Ang):
   XX=             12.8829   YY=            -24.6913   ZZ=             11.8084
   XY=             -7.3148   XZ=              0.0000   YZ=              0.0000
 Octapole moment (field-independent basis, Debye-Ang**2):
  XXX=             70.3721  YYY=            460.6753  ZZZ=             -0.0000  XYY=             48.2484
  XXY=            116.7183  XXZ=             -0.0000  XZZ=             22.4982  YZZ=            111.3951
  YYZ=             -0.0000  XYZ=             -0.0000
 Hexadecapole moment (field-independent basis, Debye-Ang**3):
 XXXX=           -169.9111 YYYY=          -2758.5453 ZZZZ=            -70.8659 XXXY=           -242.3270
 XXXZ=              0.0000 YYYX=           -320.9937 YYYZ=              0.0000 ZZZX=              0.0000
 ZZZY=              0.0000 XXYY=           -438.0515 XXZZ=            -40.3498 YYZZ=           -404.4747
 XXYZ=              0.0000 YYXZ=              0.0000 ZZXY=            -79.6309
 N-N= 4.765643949655D+01 E-N=-9.080057647556D+02  KE= 1.867635259153D+02
 No NMR shielding tensors so no spin-rotation constants.
 Leave Link  601 at Tue Oct 12 16:25:26 2021, MaxMem=  1048576000 cpu:         2.0
 (Enter /usr/local/gaussian/g09/l607.exe)
 ******************************Gaussian NBO Version 3.1******************************
             N A T U R A L   A T O M I C   O R B I T A L   A N D
          N A T U R A L   B O N D   O R B I T A L   A N A L Y S I S
 ******************************Gaussian NBO Version 3.1******************************
       /RESON  / : Allow strongly delocalized NBO set

 Analyzing the MP2 density

 Job title: title                                                           

 Storage needed:    110417 in NPA,    146568 in NBO (1048575904 available)


 NATURAL POPULATIONS:  Natural atomic orbital occupancies 
                                                          
   NAO  Atom  No  lang   Type(AO)    Occupancy
 --------------------------------------------
     1    O    1  S      Cor( 1S)     1.99992
     2    O    1  S      Val( 2S)     1.91375
     3    O    1  S      Ryd( 3S)     0.00776
     4    O    1  S      Ryd( 4S)     0.00037
     5    O    1  S      Ryd( 5S)     0.00018
     6    O    1  px     Val( 2p)     1.66846
     7    O    1  px     Ryd( 3p)     0.01591
     8    O    1  px     Ryd( 4p)     0.00056
     9    O    1  px     Ryd( 5p)     0.00017
    10    O    1  py     Val( 2p)     1.76983
    11    O    1  py     Ryd( 3p)     0.01582
    12    O    1  py     Ryd( 4p)     0.00055
    13    O    1  py     Ryd( 5p)     0.00012
    14    O    1  pz     Val( 2p)     1.95054
    15    O    1  pz     Ryd( 3p)     0.02529
    16    O    1  pz     Ryd( 4p)     0.00056
    17    O    1  pz     Ryd( 5p)     0.00000
    18    O    1  dxy    Ryd( 3d)     0.00814
    19    O    1  dxy    Ryd( 4d)     0.00050
    20    O    1  dxy    Ryd( 5d)     0.00009
    21    O    1  dxz    Ryd( 3d)     0.00888
    22    O    1  dxz    Ryd( 4d)     0.00052
    23    O    1  dxz    Ryd( 5d)     0.00008
    24    O    1  dyz    Ryd( 3d)     0.00669
    25    O    1  dyz    Ryd( 4d)     0.00059
    26    O    1  dyz    Ryd( 5d)     0.00008
    27    O    1  dx2y2  Ryd( 3d)     0.00997
    28    O    1  dx2y2  Ryd( 4d)     0.00049
    29    O    1  dx2y2  Ryd( 5d)     0.00011
    30    O    1  dz2    Ryd( 3d)     0.00750
    31    O    1  dz2    Ryd( 4d)     0.00065
    32    O    1  dz2    Ryd( 5d)     0.00012
    33    O    1  f(0)   Ryd( 4f)     0.00063
    34    O    1  f(0)   Ryd( 5f)     0.00012
    35    O    1  f(C1)  Ryd( 4f)     0.00053
    36    O    1  f(C1)  Ryd( 5f)     0.00010
    37    O    1  f(S1)  Ryd( 4f)     0.00064
    38    O    1  f(S1)  Ryd( 5f)     0.00014
    39    O    1  f(C2)  Ryd( 4f)     0.00051
    40    O    1  f(C2)  Ryd( 5f)     0.00011
    41    O    1  f(S2)  Ryd( 4f)     0.00047
    42    O    1  f(S2)  Ryd( 5f)     0.00008
    43    O    1  f(C3)  Ryd( 4f)     0.00046
    44    O    1  f(C3)  Ryd( 5f)     0.00013
    45    O    1  f(S3)  Ryd( 4f)     0.00049
    46    O    1  f(S3)  Ryd( 5f)     0.00012

    47    H    2  S      Val( 1S)     0.33926
    48    H    2  S      Ryd( 2S)     0.00385
    49    H    2  S      Ryd( 3S)     0.00034
    50    H    2  S      Ryd( 4S)     0.00010
    51    H    2  px     Ryd( 2p)     0.00260
    52    H    2  px     Ryd( 3p)     0.00089
    53    H    2  px     Ryd( 4p)     0.00009
    54    H    2  py     Ryd( 2p)     0.00268
    55    H    2  py     Ryd( 3p)     0.00037
    56    H    2  py     Ryd( 4p)     0.00012
    57    H    2  pz     Ryd( 2p)     0.00502
    58    H    2  pz     Ryd( 3p)     0.00023
    59    H    2  pz     Ryd( 4p)     0.00006
    60    H    2  dxy    Ryd( 3d)     0.00007
    61    H    2  dxy    Ryd( 4d)     0.00006
    62    H    2  dxz    Ryd( 3d)     0.00008
    63    H    2  dxz    Ryd( 4d)     0.00007
    64    H    2  dyz    Ryd( 3d)     0.00012
    65    H    2  dyz    Ryd( 4d)     0.00006
    66    H    2  dx2y2  Ryd( 3d)     0.00010
    67    H    2  dx2y2  Ryd( 4d)     0.00008
    68    H    2  dz2    Ryd( 3d)     0.00012
    69    H    2  dz2    Ryd( 4d)     0.00009

    70    I    3  S      Cor( 4S)     1.99979
    71    I    3  S      Val( 5S)     1.96799
    72    I    3  S      Ryd( 6S)     0.00150
    73    I    3  S      Ryd( 7S)     0.00040
    74    I    3  S      Ryd( 8S)     0.00014
    75    I    3  S      Ryd( 9S)     0.00001
    76    I    3  px     Cor( 4p)     2.00001
    77    I    3  px     Val( 5p)     1.94474
    78    I    3  px     Ryd( 6p)     0.00996
    79    I    3  px     Ryd( 7p)     0.00069
    80    I    3  px     Ryd( 8p)     0.00007
    81    I    3  py     Cor( 4p)     1.99985
    82    I    3  py     Val( 5p)     1.79082
    83    I    3  py     Ryd( 6p)     0.00902
    84    I    3  py     Ryd( 7p)     0.00071
    85    I    3  py     Ryd( 8p)     0.00018
    86    I    3  pz     Cor( 4p)     2.00001
    87    I    3  pz     Val( 5p)     1.95199
    88    I    3  pz     Ryd( 6p)     0.00998
    89    I    3  pz     Ryd( 7p)     0.00068
    90    I    3  pz     Ryd( 8p)     0.00006
    91    I    3  dxy    Cor( 4d)     1.99671
    92    I    3  dxy    Ryd( 5d)     0.01949
    93    I    3  dxy    Ryd( 6d)     0.00121
    94    I    3  dxy    Ryd( 7d)     0.00022
    95    I    3  dxz    Cor( 4d)     1.99679
    96    I    3  dxz    Ryd( 5d)     0.01955
    97    I    3  dxz    Ryd( 6d)     0.00155
    98    I    3  dxz    Ryd( 7d)     0.00014
    99    I    3  dyz    Cor( 4d)     1.99674
   100    I    3  dyz    Ryd( 5d)     0.01923
   101    I    3  dyz    Ryd( 6d)     0.00119
   102    I    3  dyz    Ryd( 7d)     0.00023
   103    I    3  dx2y2  Cor( 4d)     1.99664
   104    I    3  dx2y2  Ryd( 5d)     0.02058
   105    I    3  dx2y2  Ryd( 6d)     0.00146
   106    I    3  dx2y2  Ryd( 7d)     0.00015
   107    I    3  dz2    Cor( 4d)     1.99674
   108    I    3  dz2    Ryd( 5d)     0.02004
   109    I    3  dz2    Ryd( 6d)     0.00155
   110    I    3  dz2    Ryd( 7d)     0.00014
   111    I    3  f(0)   Ryd( 4f)     0.00267
   112    I    3  f(0)   Ryd( 5f)     0.00041
   113    I    3  f(C1)  Ryd( 4f)     0.00273
   114    I    3  f(C1)  Ryd( 5f)     0.00041
   115    I    3  f(S1)  Ryd( 4f)     0.00283
   116    I    3  f(S1)  Ryd( 5f)     0.00042
   117    I    3  f(C2)  Ryd( 4f)     0.00264
   118    I    3  f(C2)  Ryd( 5f)     0.00040
   119    I    3  f(S2)  Ryd( 4f)     0.00270
   120    I    3  f(S2)  Ryd( 5f)     0.00040
   121    I    3  f(C3)  Ryd( 4f)     0.00269
   122    I    3  f(C3)  Ryd( 5f)     0.00041
   123    I    3  f(S3)  Ryd( 4f)     0.00279
   124    I    3  f(S3)  Ryd( 5f)     0.00041

   125    H    4  S      Val( 1S)     0.40143
   126    H    4  S      Ryd( 2S)     0.00380
   127    H    4  S      Ryd( 3S)     0.00037
   128    H    4  S      Ryd( 4S)     0.00030
   129    H    4  px     Ryd( 2p)     0.00435
   130    H    4  px     Ryd( 3p)     0.00041
   131    H    4  px     Ryd( 4p)     0.00006
   132    H    4  py     Ryd( 2p)     0.00495
   133    H    4  py     Ryd( 3p)     0.00129
   134    H    4  py     Ryd( 4p)     0.00016
   135    H    4  pz     Ryd( 2p)     0.00462
   136    H    4  pz     Ryd( 3p)     0.00031
   137    H    4  pz     Ryd( 4p)     0.00005
   138    H    4  dxy    Ryd( 3d)     0.00040
   139    H    4  dxy    Ryd( 4d)     0.00008
   140    H    4  dxz    Ryd( 3d)     0.00025
   141    H    4  dxz    Ryd( 4d)     0.00004
   142    H    4  dyz    Ryd( 3d)     0.00042
   143    H    4  dyz    Ryd( 4d)     0.00008
   144    H    4  dx2y2  Ryd( 3d)     0.00025
   145    H    4  dx2y2  Ryd( 4d)     0.00013
   146    H    4  dz2    Ryd( 3d)     0.00025
   147    H    4  dz2    Ryd( 4d)     0.00007

 [ 28 electrons found in the effective core potential]

 WARNING:  5 low occupancy (<1.9990e) core orbitals found on  I    3


 Summary of Natural Population Analysis:                  
                                                          
                                       Natural Population 
                Natural  -----------------------------------------------
    Atom  No    Charge         Core      Valence    Rydberg      Total
 -----------------------------------------------------------------------
      O    1   -1.41875      1.99992     7.30258    0.11625     9.41875
      H    2    0.64353      0.00000     0.33926    0.01720     0.35647
      I    3   -0.80086     45.98327     7.65554    0.16205    53.80086
      H    4    0.57593      0.00000     0.40143    0.02264     0.42407
 =======================================================================
   * Total *   -1.00016     47.98320    15.69881    0.31815    64.00016

                                 Natural Population      
 --------------------------------------------------------
   Effective Core            28.00000
   Core                      19.98320 ( 99.9160% of  20)
   Valence                   15.69881 ( 98.1176% of  16)
   Natural Minimal Basis     63.68201 ( 99.5031% of  64)
   Natural Rydberg Basis      0.31815 (  0.4971% of  64)
 --------------------------------------------------------

    Atom  No          Natural Electron Configuration
 ----------------------------------------------------------------------------
      O    1      [core]2S( 1.91)2p( 5.39)3S( 0.01)3p( 0.06)3d( 0.04)
      H    2            1S( 0.34)2p( 0.01)
      I    3      [core]5S( 1.97)5p( 5.69)4f( 0.02)5d( 0.10)6p( 0.03)6d( 0.01)
      H    4            1S( 0.40)2p( 0.01)


 NATURAL BOND ORBITAL ANALYSIS:
 Warning:  a bond orbital has occupanc of -0.00001
 Warning:  a bond orbital has occupanc of -0.00033

                       Occupancies       Lewis Structure    Low   High
           Occ.    -------------------  -----------------   occ   occ
  Cycle   Thresh.   Lewis   Non-Lewis     CR  BD  3C  LP    (L)   (NL)   Dev
 =============================================================================
   1(1)    1.90    63.47124   0.52876     10   2   0   6     1      1    0.27
 Warning:  a bond orbital has occupanc of -0.00001
 Warning:  a bond orbital has occupanc of -0.00033
   2(2)    1.90    63.45083   0.54917     10   2   0   6     1      1    0.30
 Warning:  a bond orbital has occupanc of -0.00001
 Warning:  a bond orbital has occupanc of -0.00033
   3(3)    1.90    63.47124   0.52876     10   2   0   6     1      1    0.27
 Warning:  a bond orbital has occupanc of -0.00001
 Warning:  a bond orbital has occupanc of -0.00033
   4(1)    1.80    63.47124   0.52876     10   2   0   6     1      1    0.27
 Warning:  a bond orbital has occupanc of -0.00001
 Warning:  a bond orbital has occupanc of -0.00033
   5(2)    1.80    63.45083   0.54917     10   2   0   6     1      1    0.30
 Warning:  a bond orbital has occupanc of -0.00001
 Warning:  a bond orbital has occupanc of -0.00033
   6(3)    1.80    63.47124   0.52876     10   2   0   6     1      1    0.27
 Warning:  a bond orbital has occupanc of -0.00001
 Warning:  a bond orbital has occupanc of -0.00033
   7(1)    1.70    63.27767   0.72233     10   1   0   7     0      1    0.30
 Warning:  a bond orbital has occupanc of -0.00001
 Warning:  a bond orbital has occupanc of -0.00033
   8(2)    1.70    63.27767   0.72233     10   1   0   7     0      1    0.30
 Warning:  a bond orbital has occupanc of -0.00001
 Warning:  a bond orbital has occupanc of -0.00033
   9(1)    1.60    62.96247   1.03753     10   0   0   8     0      2    0.53
 Warning:  a bond orbital has occupanc of -0.00001
 Warning:  a bond orbital has occupanc of -0.00033
  10(2)    1.60    62.96247   1.03753     10   0   0   8     0      2    0.53
 Warning:  a bond orbital has occupanc of -0.00001
 Warning:  a bond orbital has occupanc of -0.00033
  11(1)    1.50    62.96247   1.03753     10   0   0   8     0      2    0.53
 Warning:  a bond orbital has occupanc of -0.00001
 Warning:  a bond orbital has occupanc of -0.00033
  12(2)    1.50    62.96247   1.03753     10   0   0   8     0      2    0.53
 Warning:  a bond orbital has occupanc of -0.00001
 Warning:  a bond orbital has occupanc of -0.00033
  13(1)    1.90    63.47124   0.52876     10   2   0   6     1      1    0.27
 -----------------------------------------------------------------------------

 Structure accepted: RESONANCE keyword permits strongly delocalized structure

 WARNING:  5 low occupancy (<1.9990e) core orbitals found on  I    3

 --------------------------------------------------------
   Effective Core           28.00000
   Core                     19.98319 ( 99.916% of  20)
   Valence Lewis            15.48805 ( 96.800% of  16)
  ==================       ============================
   Total Lewis              63.47124 ( 99.174% of  64)
  -----------------------------------------------------
   Valence non-Lewis         0.23290 (  0.364% of  64)
   Rydberg non-Lewis         0.29586 (  0.462% of  64)
  ==================       ============================
   Total non-Lewis           0.52876 (  0.826% of  64)
 --------------------------------------------------------


       (Occupancy)   Bond orbital/ Coefficients/ Hybrids
 ---------------------------------------------------------------------------------
     1. (1.95950) BD ( 1) O   1 - H   2  
                ( 83.49%)   0.9138* O   1 s( 14.10%)p 6.06( 85.54%)d 0.02(  0.35%)
                                                  f 0.00(  0.01%)
                                            0.0001  0.3755 -0.0023  0.0001 -0.0021
                                            0.9239 -0.0303 -0.0064 -0.0076 -0.0279
                                           -0.0041  0.0009 -0.0005  0.0000  0.0000
                                            0.0000  0.0000 -0.0134  0.0042 -0.0024
                                            0.0000  0.0000  0.0000  0.0000  0.0000
                                            0.0000  0.0490 -0.0033  0.0025 -0.0295
                                            0.0009 -0.0003  0.0000  0.0000 -0.0080
                                            0.0004 -0.0001  0.0002  0.0000  0.0000
                                            0.0000  0.0000  0.0044  0.0030  0.0004
                                           -0.0001
                ( 16.51%)   0.4063* H   2 s( 99.62%)p 0.00(  0.38%)d 0.00(  0.01%)
                                            0.9980 -0.0135  0.0004 -0.0006  0.0362
                                           -0.0474 -0.0032 -0.0150  0.0017 -0.0009
                                            0.0000  0.0000  0.0000  0.0006  0.0026
                                            0.0000  0.0000  0.0000  0.0000  0.0036
                                            0.0013 -0.0048 -0.0036
     2. (1.94234) BD ( 1) O   1 - H   4  
                ( 89.09%)   0.9439* O   1 s(  7.20%)p12.86( 92.57%)d 0.03(  0.22%)
                                                  f 0.00(  0.01%)
                                           -0.0001 -0.2682 -0.0039 -0.0001 -0.0015
                                            0.1367 -0.0090 -0.0010 -0.0017  0.9523
                                            0.0054 -0.0013 -0.0031  0.0000  0.0000
                                            0.0000  0.0000  0.0228 -0.0036  0.0011
                                            0.0000  0.0000  0.0000  0.0000  0.0000
                                            0.0000  0.0340 -0.0076  0.0024  0.0210
                                           -0.0044  0.0000  0.0000  0.0000 -0.0010
                                            0.0002 -0.0086  0.0034  0.0000  0.0000
                                            0.0000  0.0000 -0.0027  0.0006  0.0010
                                            0.0007
                ( 10.91%)   0.3303* H   4 s( 99.67%)p 0.00(  0.30%)d 0.00(  0.03%)
                                           -0.9983  0.0026  0.0052 -0.0126 -0.0371
                                           -0.0020 -0.0056  0.0117 -0.0347 -0.0164
                                            0.0000  0.0000  0.0000 -0.0019 -0.0026
                                            0.0000  0.0000  0.0000  0.0000  0.0100
                                            0.0072  0.0101  0.0034
     3. (1.99992) CR ( 1) O   1           s(100.00%)
                                            1.0000 -0.0002 -0.0000 -0.0000  0.0000
                                           -0.0000  0.0000  0.0000  0.0000  0.0001
                                            0.0000 -0.0000 -0.0000  0.0000  0.0000
                                            0.0000  0.0000  0.0000 -0.0000  0.0000
                                            0.0000  0.0000  0.0000  0.0000  0.0000
                                            0.0000 -0.0000 -0.0000  0.0000  0.0000
                                           -0.0000 -0.0000  0.0000  0.0000  0.0000
                                            0.0000 -0.0000  0.0000  0.0000  0.0000
                                            0.0000  0.0000 -0.0000 -0.0000 -0.0000
                                            0.0000
     4. (1.99979) CR ( 1) I   3           s(100.00%)
                                            1.0000 -0.0002 -0.0000 -0.0000  0.0000
                                            0.0000  0.0000  0.0000 -0.0000  0.0000
                                           -0.0000  0.0000  0.0001 -0.0000  0.0000
                                            0.0000  0.0000  0.0000  0.0000  0.0000
                                            0.0000  0.0000  0.0000 -0.0000  0.0000
                                            0.0000  0.0000  0.0000  0.0000  0.0000
                                            0.0000  0.0000  0.0000 -0.0000 -0.0000
                                           -0.0000 -0.0000 -0.0000 -0.0000 -0.0000
                                           -0.0000  0.0000  0.0000 -0.0000 -0.0000
                                           -0.0000 -0.0000  0.0000  0.0000  0.0000
                                            0.0000 -0.0000 -0.0000 -0.0000 -0.0000
     5. (2.00000) CR ( 2) I   3           s(  0.00%)p 1.00(100.00%)
                                            0.0000  0.0000  0.0000 -0.0000  0.0000
                                            0.0000  1.0000 -0.0004 -0.0000 -0.0000
                                            0.0000  0.0000  0.0001  0.0000  0.0000
                                            0.0000  0.0000  0.0000  0.0000  0.0000
                                            0.0000  0.0000 -0.0000  0.0000  0.0000
                                            0.0000  0.0000  0.0000  0.0000  0.0000
                                            0.0000  0.0000  0.0000  0.0000 -0.0000
                                           -0.0000  0.0000  0.0000  0.0000  0.0000
                                            0.0000  0.0000  0.0000  0.0000  0.0000
                                           -0.0000  0.0000  0.0000  0.0000  0.0000
                                            0.0000  0.0000  0.0000 -0.0000 -0.0000
     6. (1.99985) CR ( 3) I   3           s(  0.00%)p 1.00(100.00%)
                                            0.0000  0.0002  0.0000  0.0000 -0.0000
                                           -0.0000  0.0000  0.0001  0.0000  0.0000
                                           -0.0000  1.0000 -0.0001  0.0000 -0.0000
                                           -0.0000  0.0000  0.0000  0.0000  0.0000
                                            0.0000 -0.0000  0.0000 -0.0000 -0.0000
                                            0.0000  0.0000  0.0000  0.0000  0.0000
                                            0.0000  0.0000  0.0000  0.0000  0.0000
                                            0.0000 -0.0000  0.0000  0.0000 -0.0000
                                           -0.0000  0.0000  0.0000 -0.0000 -0.0000
                                            0.0000  0.0000  0.0000  0.0000  0.0000
                                            0.0000 -0.0000 -0.0000  0.0000  0.0000
     7. (2.00001) CR ( 4) I   3           s(  0.00%)p 1.00(100.00%)
                                            0.0000  0.0000  0.0000  0.0000  0.0000
                                            0.0000  0.0000  0.0000  0.0000  0.0000
                                            0.0000  0.0000  0.0000  0.0000  0.0000
                                            0.0000  1.0000 -0.0004 -0.0000 -0.0000
                                            0.0000  0.0000  0.0000  0.0000  0.0000
                                            0.0000 -0.0000 -0.0000  0.0000  0.0000
                                           -0.0000  0.0000  0.0000  0.0000  0.0000
                                            0.0000  0.0000  0.0000  0.0000  0.0000
                                            0.0000  0.0000  0.0000  0.0000  0.0000
                                            0.0000  0.0000  0.0000  0.0000 -0.0000
                                           -0.0000  0.0000  0.0000  0.0000  0.0000
     8. (1.99671) CR ( 5) I   3           s(  0.00%)p 0.00(  0.00%)d 1.00(100.00%)
                                            0.0000  0.0000  0.0000  0.0000 -0.0000
                                           -0.0000  0.0000  0.0000  0.0000  0.0000
                                           -0.0000 -0.0000 -0.0000  0.0000 -0.0000
                                           -0.0000  0.0000  0.0000  0.0000  0.0000
                                            0.0000  1.0000  0.0000 -0.0000 -0.0000
                                            0.0000  0.0000  0.0000  0.0000  0.0000
                                            0.0000  0.0000  0.0000  0.0000  0.0000
                                            0.0000 -0.0000  0.0000 -0.0000 -0.0000
                                           -0.0000  0.0000  0.0000 -0.0000 -0.0000
                                            0.0000  0.0000  0.0000  0.0000  0.0000
                                            0.0000 -0.0000 -0.0000  0.0000  0.0000
     9. (1.99679) CR ( 6) I   3           s(  0.00%)p 0.00(  0.00%)d 1.00(100.00%)
                                            0.0000  0.0000  0.0000  0.0000  0.0000
                                            0.0000  0.0000  0.0000  0.0000  0.0000
                                            0.0000  0.0000  0.0000  0.0000  0.0000
                                            0.0000  0.0000  0.0000  0.0000  0.0000
                                           -0.0000  0.0000  0.0000  0.0000  0.0000
                                            1.0000  0.0000  0.0000 -0.0000 -0.0000
                                            0.0000 -0.0000 -0.0000  0.0000  0.0000
                                            0.0000  0.0000  0.0000  0.0000  0.0000
                                            0.0000 -0.0000 -0.0000  0.0000  0.0000
                                            0.0000  0.0000 -0.0000 -0.0000  0.0000
                                            0.0000  0.0000  0.0000  0.0000  0.0000
    10. (1.99674) CR ( 7) I   3           s(  0.00%)p 0.00(  0.00%)d 1.00(100.00%)
                                            0.0000  0.0000  0.0000  0.0000  0.0000
                                            0.0000  0.0000  0.0000  0.0000  0.0000
                                            0.0000  0.0000  0.0000  0.0000  0.0000
                                            0.0000  0.0000  0.0000  0.0000  0.0000
                                           -0.0000  0.0000  0.0000  0.0000  0.0000
                                           -0.0000  0.0000  0.0000 -0.0000  1.0000
                                            0.0000 -0.0000 -0.0000  0.0000  0.0000
                                            0.0000  0.0000  0.0000  0.0000  0.0000
                                            0.0000 -0.0000 -0.0000  0.0000  0.0000
                                            0.0000  0.0000 -0.0000 -0.0000  0.0000
                                            0.0000  0.0000  0.0000  0.0000  0.0000
    11. (1.99664) CR ( 8) I   3           s(  0.00%)p 0.00(  0.00%)d 1.00(100.00%)
                                           -0.0000 -0.0001 -0.0000 -0.0000  0.0000
                                            0.0000  0.0000  0.0000  0.0000  0.0000
                                           -0.0000  0.0000  0.0000 -0.0000  0.0000
                                            0.0000  0.0000  0.0000  0.0000  0.0000
                                            0.0000  0.0000  0.0000 -0.0000 -0.0000
                                            0.0000  0.0000  0.0000  0.0000  0.0000
                                            0.0000  0.0000  0.0000  1.0000 -0.0000
                                           -0.0000 -0.0000 -0.0000 -0.0000 -0.0000
                                           -0.0000  0.0000  0.0000 -0.0000 -0.0000
                                           -0.0000 -0.0000  0.0000  0.0000  0.0000
                                            0.0000 -0.0000 -0.0000  0.0000  0.0000
    12. (1.99674) CR ( 9) I   3           s(  0.00%)p 0.00(  0.00%)d 1.00(100.00%)
                                           -0.0000 -0.0000 -0.0000 -0.0000  0.0000
                                            0.0000  0.0000  0.0000 -0.0000  0.0000
                                            0.0000  0.0000  0.0000 -0.0000  0.0000
                                            0.0000  0.0000  0.0000  0.0000  0.0000
                                            0.0000  0.0000  0.0000  0.0000  0.0000
                                            0.0000  0.0000  0.0000  0.0000  0.0000
                                            0.0000  0.0000  0.0000 -0.0000 -0.0000
                                           -0.0000 -0.0000  1.0000 -0.0000 -0.0000
                                           -0.0000  0.0000  0.0000 -0.0000 -0.0000
                                           -0.0000 -0.0000  0.0000  0.0000  0.0000
                                            0.0000 -0.0000 -0.0000 -0.0000 -0.0000
    13. (1.97187) LP ( 1) O   1           s( 78.65%)p 0.27( 21.31%)d 0.00(  0.04%)
                                                  f 0.00(  0.00%)
                                            0.0002  0.8869 -0.0005  0.0000  0.0002
                                           -0.3509 -0.0074 -0.0037  0.0019  0.2997
                                            0.0030  0.0036  0.0022  0.0000  0.0000
                                            0.0000  0.0000  0.0174 -0.0024 -0.0005
                                            0.0000  0.0000  0.0000  0.0000  0.0000
                                            0.0000 -0.0050  0.0013 -0.0009  0.0068
                                           -0.0028  0.0026  0.0000  0.0000  0.0015
                                           -0.0012 -0.0006 -0.0000  0.0000  0.0000
                                            0.0000  0.0000  0.0015 -0.0007  0.0017
                                           -0.0002
    14. (1.95475) LP ( 2) O   1           s(  0.00%)p 1.00( 99.83%)d 0.00(  0.16%)
                                                  f 0.00(  0.01%)
                                            0.0000  0.0000  0.0000  0.0000  0.0000
                                            0.0000  0.0000  0.0000  0.0000  0.0000
                                            0.0000  0.0000  0.0000  0.9989  0.0186
                                            0.0037  0.0081  0.0000  0.0000  0.0000
                                            0.0374 -0.0036 -0.0011 -0.0150  0.0023
                                            0.0007  0.0000  0.0000  0.0000  0.0000
                                            0.0000  0.0000 -0.0086  0.0029  0.0000
                                            0.0000  0.0000  0.0000  0.0030  0.0002
                                            0.0013 -0.0005  0.0000  0.0000  0.0000
                                            0.0000
    15. (1.97842) LP ( 1) I   3           s( 94.88%)p 0.05(  5.12%)d 0.00(  0.00%)
                                                  f 0.00(  0.00%)
                                            0.0003  0.9741  0.0003  0.0009 -0.0005
                                           -0.0002 -0.0000 -0.0442  0.0005 -0.0001
                                           -0.0000 -0.0002 -0.2219  0.0018 -0.0004
                                           -0.0002  0.0000  0.0000  0.0000  0.0000
                                            0.0000 -0.0000 -0.0006  0.0000 -0.0001
                                            0.0000  0.0000  0.0000  0.0000  0.0000
                                            0.0000  0.0000  0.0000  0.0001  0.0015
                                            0.0003  0.0001  0.0000  0.0008  0.0001
                                            0.0001  0.0000  0.0000  0.0000  0.0000
                                            0.0002  0.0002  0.0000  0.0000  0.0000
                                            0.0000  0.0002  0.0001  0.0003  0.0002
    16. (1.95222) LP ( 2) I   3           s(  0.00%)p 1.00( 99.99%)d 0.00(  0.01%)
                                                  f 0.00(  0.00%)
                                            0.0000  0.0000  0.0000  0.0000  0.0000
                                            0.0000  0.0000  0.0000  0.0000  0.0000
                                            0.0000  0.0000  0.0000  0.0000  0.0000
                                            0.0000  0.0004  0.9999  0.0047  0.0023
                                           -0.0005  0.0000  0.0000  0.0000  0.0000
                                           -0.0000  0.0019  0.0003 -0.0002 -0.0000
                                            0.0037 -0.0020 -0.0055  0.0000  0.0000
                                            0.0000  0.0000  0.0000  0.0000  0.0000
                                            0.0000 -0.0035 -0.0017  0.0000  0.0000
                                            0.0000  0.0000 -0.0037 -0.0015  0.0019
                                            0.0010  0.0000  0.0000  0.0000  0.0000
    17. (1.95201) LP ( 3) I   3           s(  0.00%)p 1.00( 99.99%)d 0.00(  0.01%)
                                                  f 0.00(  0.00%)
                                            0.0000  0.0021  0.0002 -0.0013  0.0011
                                            0.0001 -0.0004 -0.9789 -0.0056 -0.0027
                                            0.0009  0.0001  0.2042  0.0007  0.0002
                                            0.0003 -0.0000 -0.0000 -0.0000 -0.0000
                                           -0.0000  0.0000 -0.0042  0.0019  0.0050
                                           -0.0000 -0.0000 -0.0000 -0.0000 -0.0000
                                           -0.0000 -0.0000 -0.0000  0.0000 -0.0035
                                           -0.0001  0.0011 -0.0000  0.0005  0.0004
                                            0.0006 -0.0000 -0.0000  0.0015  0.0008
                                           -0.0002  0.0000 -0.0000 -0.0000 -0.0000
                                           -0.0000  0.0040  0.0015 -0.0032 -0.0014
    18. (1.77696) LP ( 4) I   3           s(  5.12%)p18.51( 94.70%)d 0.03(  0.15%)
                                                  f 0.01(  0.03%)
                                           -0.0000  0.2261 -0.0016 -0.0041  0.0022
                                            0.0009 -0.0000  0.1993 -0.0023 -0.0014
                                            0.0005  0.0000  0.9524 -0.0111 -0.0057
                                            0.0013  0.0000  0.0000  0.0000  0.0000
                                            0.0000 -0.0000  0.0138  0.0012 -0.0009
                                            0.0000  0.0000  0.0000  0.0000  0.0000
                                            0.0000  0.0000  0.0000  0.0000 -0.0306
                                           -0.0031  0.0019  0.0000 -0.0199 -0.0023
                                            0.0008  0.0000  0.0000 -0.0021 -0.0006
                                           -0.0100 -0.0029  0.0000  0.0000  0.0000
                                            0.0000 -0.0073 -0.0017 -0.0104 -0.0025
    19. (0.02485) RY*( 1) O   1           s(  0.00%)p 1.00( 98.98%)d 0.01(  0.99%)
                                                  f 0.00(  0.03%)
                                            0.0000  0.0000  0.0000  0.0000  0.0000
                                            0.0000  0.0000  0.0000  0.0000  0.0000
                                            0.0000  0.0000  0.0000 -0.0223  0.9942
                                           -0.0237 -0.0163  0.0000  0.0000  0.0000
                                            0.0796 -0.0194  0.0072 -0.0520  0.0184
                                           -0.0087  0.0000  0.0000  0.0000  0.0000
                                            0.0000  0.0000 -0.0122  0.0120  0.0000
                                            0.0000  0.0000  0.0000  0.0003  0.0000
                                            0.0001 -0.0015  0.0000  0.0000  0.0000
                                            0.0000
    20. (0.01930) RY*( 2) O   1           s( 11.12%)p 7.82( 86.95%)d 0.17(  1.88%)
                                                  f 0.00(  0.05%)
                                           -0.0000 -0.0085  0.3330  0.0090 -0.0119
                                           -0.0081 -0.5547  0.0029  0.0173 -0.0133
                                            0.7492 -0.0013 -0.0057  0.0000  0.0000
                                            0.0000  0.0000  0.1304 -0.0261  0.0103
                                            0.0000  0.0000  0.0000  0.0000  0.0000
                                            0.0000  0.0004 -0.0060  0.0027  0.0242
                                           -0.0177  0.0091  0.0000  0.0000 -0.0020
                                           -0.0028 -0.0043  0.0058  0.0000  0.0000
                                            0.0000  0.0000  0.0178 -0.0074  0.0076
                                           -0.0020
    21. (0.01242) RY*( 3) O   1           s(  0.51%)p99.99( 97.40%)d 3.85(  1.96%)
                                                  f 0.26(  0.13%)
                                            0.0000 -0.0126  0.0685 -0.0089  0.0126
                                           -0.0294 -0.7827  0.0025  0.0330 -0.0045
                                           -0.5985 -0.0061 -0.0323 -0.0000 -0.0000
                                           -0.0000 -0.0000 -0.0769 -0.0074  0.0033
                                           -0.0000 -0.0000 -0.0000 -0.0000 -0.0000
                                           -0.0000  0.1053  0.0454 -0.0207  0.0008
                                            0.0018  0.0064 -0.0000 -0.0000 -0.0110
                                           -0.0030  0.0094 -0.0109 -0.0000 -0.0000
                                           -0.0000 -0.0000  0.0288 -0.0127 -0.0039
                                           -0.0012
    22. (0.00717) RY*( 4) O   1           s( 59.15%)p 0.09(  5.21%)d 0.60( 35.25%)
                                                  f 0.01(  0.39%)
                                            0.0000  0.0088  0.7689 -0.0090  0.0106
                                            0.0181  0.1779  0.0103 -0.0116  0.0227
                                           -0.1281 -0.0222 -0.0498 -0.0000 -0.0000
                                           -0.0000 -0.0000 -0.4881 -0.0034 -0.0073
                                           -0.0000 -0.0000 -0.0000 -0.0000 -0.0000
                                           -0.0000 -0.2688  0.0094  0.0091  0.2003
                                            0.0395 -0.0140 -0.0000 -0.0000  0.0144
                                            0.0032  0.0354 -0.0284 -0.0000 -0.0000
                                           -0.0000 -0.0000 -0.0358  0.0046 -0.0024
                                           -0.0164
    23. (0.00638) RY*( 5) O   1           s(  0.00%)p 1.00(  0.03%)d99.99( 98.85%)
                                                  f43.92(  1.13%)
                                            0.0000  0.0000  0.0000  0.0000  0.0000
                                            0.0000  0.0000  0.0000  0.0000  0.0000
                                            0.0000  0.0000  0.0000 -0.0086 -0.0022
                                           -0.0131 -0.0025  0.0000  0.0000  0.0000
                                            0.5581  0.0303 -0.0067  0.8212  0.0421
                                           -0.0006  0.0000  0.0000  0.0000  0.0000
                                            0.0000  0.0000  0.0048 -0.0108  0.0000
                                            0.0000  0.0000  0.0000  0.0891 -0.0557
                                            0.0084  0.0026  0.0000  0.0000  0.0000
                                            0.0000
    24. (0.00605) RY*( 6) O   1           s(  0.00%)p 1.00(  1.10%)d89.37( 97.88%)
                                                  f 0.93(  1.02%)
                                            0.0000  0.0000  0.0000  0.0000  0.0000
                                            0.0000  0.0000  0.0000  0.0000  0.0000
                                            0.0000  0.0000  0.0000 -0.0378 -0.0930
                                            0.0247  0.0165  0.0000  0.0000  0.0000
                                            0.8127  0.0706 -0.0267 -0.5570 -0.0484
                                            0.0111  0.0000  0.0000  0.0000  0.0000
                                            0.0000  0.0000 -0.0723  0.0400  0.0000
                                            0.0000  0.0000  0.0000  0.0398 -0.0164
                                           -0.0359  0.0156  0.0000  0.0000  0.0000
                                            0.0000
    25. (0.00600) RY*( 7) O   1           s(  5.29%)p 0.68(  3.60%)d17.05( 90.28%)
                                                  f 0.16(  0.82%)
                                           -0.0000  0.0054  0.2297 -0.0110 -0.0015
                                            0.0189  0.1068 -0.0170 -0.0074 -0.0361
                                           -0.1491  0.0127 -0.0151  0.0000  0.0000
                                            0.0000  0.0000  0.6005  0.0190 -0.0014
                                            0.0000  0.0000  0.0000  0.0000  0.0000
                                            0.0000  0.2289  0.0174  0.0061  0.6948
                                            0.0758 -0.0253  0.0000  0.0000  0.0485
                                           -0.0221 -0.0445  0.0253  0.0000  0.0000
                                            0.0000  0.0000  0.0324 -0.0228  0.0331
                                           -0.0108
    26. (0.00562) RY*( 8) O   1           s(  8.97%)p 0.44(  3.94%)d 9.48( 85.04%)
                                                  f 0.23(  2.05%)
                                           -0.0000 -0.0053  0.2995 -0.0014 -0.0001
                                            0.0215  0.0468 -0.0114 -0.0147  0.0124
                                           -0.1877 -0.0097 -0.0293 -0.0000 -0.0000
                                           -0.0000 -0.0000  0.6000  0.0158 -0.0030
                                           -0.0000 -0.0000 -0.0000 -0.0000 -0.0000
                                           -0.0000 -0.4787 -0.0050  0.0157 -0.5091
                                           -0.0375  0.0106 -0.0000 -0.0000  0.0119
                                           -0.0091  0.0462 -0.0403 -0.0000 -0.0000
                                           -0.0000 -0.0000  0.0241 -0.0328  0.1040
                                           -0.0639
    27. (0.00317) RY*( 9) O   1           s( 13.78%)p 0.31(  4.22%)d 5.85( 80.69%)
                                                  f 0.10(  1.31%)
                                            0.0000 -0.0058  0.3709  0.0118 -0.0084
                                           -0.0450  0.1723  0.0898  0.0125 -0.0103
                                           -0.0362  0.0167 -0.0239  0.0000  0.0000
                                            0.0000  0.0000  0.0409 -0.0071  0.0034
                                            0.0000  0.0000  0.0000  0.0000  0.0000
                                            0.0000  0.7719  0.1046  0.0036 -0.4337
                                           -0.0996  0.0179  0.0000  0.0000 -0.0407
                                            0.0462 -0.0022  0.0043  0.0000  0.0000
                                            0.0000  0.0000  0.0591 -0.0609 -0.0383
                                            0.0248
    28. (0.00062) RY*(10) O   1           s( 14.84%)p 4.10( 60.85%)d 1.51( 22.34%)
                                                  f 0.13(  1.97%)
                                            0.0000 -0.0053  0.0150  0.3841 -0.0251
                                           -0.0024 -0.0095 -0.2741 -0.0229  0.0059
                                            0.0096  0.7268  0.0660  0.0000  0.0000
                                            0.0000  0.0000 -0.0101  0.3183 -0.0473
                                            0.0000  0.0000  0.0000  0.0000  0.0000
                                            0.0000 -0.0037  0.2339 -0.0080 -0.0310
                                            0.2526  0.0152  0.0000  0.0000 -0.0134
                                            0.0016  0.1150 -0.0125  0.0000  0.0000
                                            0.0000  0.0000 -0.0584  0.0093 -0.0453
                                            0.0234
    29. (0.00059) RY*(11) O   1           s(  0.00%)p 1.00( 42.57%)d 1.26( 53.69%)
                                                  f 0.09(  3.74%)
                                            0.0000  0.0000  0.0000  0.0000  0.0000
                                            0.0000  0.0000  0.0000  0.0000  0.0000
                                            0.0000  0.0000  0.0000  0.0032  0.0401
                                            0.6445 -0.0931  0.0000  0.0000  0.0000
                                           -0.0409  0.3582 -0.0114  0.0440 -0.6361
                                            0.0146  0.0000  0.0000  0.0000  0.0000
                                            0.0000  0.0000  0.1191 -0.0191  0.0000
                                            0.0000  0.0000  0.0000  0.1020 -0.0011
                                            0.1115  0.0018  0.0000  0.0000  0.0000
                                            0.0000
    30. (0.00057) RY*(12) O   1           s( 10.73%)p 0.50(  5.39%)d 7.48( 80.28%)
                                                  f 0.33(  3.59%)
                                           -0.0000 -0.0013  0.0122  0.3257 -0.0324
                                            0.0034  0.0071 -0.1633  0.0217 -0.0065
                                           -0.0306  0.1597  0.0155 -0.0000 -0.0000
                                           -0.0000 -0.0000 -0.0206 -0.0128 -0.0293
                                           -0.0000 -0.0000 -0.0000 -0.0000 -0.0000
                                           -0.0000 -0.0273 -0.2271 -0.0160  0.0998
                                           -0.8579  0.0537 -0.0000 -0.0000  0.0747
                                           -0.0068 -0.0022  0.0148 -0.0000 -0.0000
                                           -0.0000 -0.0000  0.1651  0.0188  0.0480
                                            0.0128
    31. (0.00053) RY*(13) O   1           s(  0.00%)p 1.00( 46.49%)d 1.06( 49.34%)
                                                  f 0.09(  4.16%)
                                            0.0000  0.0000  0.0000  0.0000  0.0000
[...]
                                            0.0000  0.0000  0.0000  0.0000  0.0000
                                            0.0000  0.0000  0.0000  0.0000  0.0000
                                            0.9896  0.0450 -0.0234  0.0000  0.0000
                                           -0.0220  0.0127 -0.1210  0.0523  0.0000
                                            0.0000  0.0000  0.0000
   126. (0.00431) RY*( 3) H   4           s( 17.53%)p 4.58( 80.36%)d 0.12(  2.11%)
                                           -0.0399  0.4068  0.0425  0.0804  0.7722
                                            0.0408 -0.0225 -0.4074  0.1979  0.0082
                                            0.0000  0.0000  0.0000 -0.1302 -0.0015
                                            0.0000  0.0000  0.0000  0.0000 -0.0250
                                            0.0452 -0.0138  0.0351
   127. (0.00363) RY*( 4) H   4           s( 66.92%)p 0.48( 32.19%)d 0.01(  0.90%)
                                            0.0091  0.8089 -0.1208  0.0096 -0.2220
                                            0.0892  0.0188  0.4746  0.1972  0.0118
                                            0.0000  0.0000  0.0000  0.0331 -0.0275
                                            0.0000  0.0000  0.0000  0.0000  0.0387
                                            0.0574  0.0338  0.0341
   128. (0.00186) RY*( 5) H   4           s( 16.58%)p 4.89( 81.02%)d 0.14(  2.40%)
                                           -0.0314 -0.2269 -0.0409  0.3341 -0.1949
                                            0.0965  0.0504 -0.1142  0.8589  0.0979
                                            0.0000  0.0000  0.0000  0.0824 -0.0624
                                            0.0000  0.0000  0.0000  0.0000 -0.0442
                                            0.0683 -0.0601  0.0554
   129. (0.00042) RY*( 6) H   4           s(  8.28%)p 9.16( 75.83%)d 1.92( 15.89%)
                                            0.0022 -0.0518  0.2432  0.1447 -0.0506
                                            0.8287 -0.1485  0.0632 -0.1257  0.1646
                                            0.0000  0.0000  0.0000 -0.3856  0.0432
                                            0.0000  0.0000  0.0000  0.0000 -0.0844
                                           -0.0311 -0.0043 -0.0137
   130. (0.00038) RY*( 7) H   4           s(  0.00%)p 1.00( 14.96%)d 5.68( 85.04%)
                                            0.0000  0.0000  0.0000  0.0000  0.0000
                                            0.0000  0.0000  0.0000  0.0000  0.0000
                                            0.1278 -0.2907  0.2209  0.0000  0.0000
                                            0.1272  0.0383  0.9092  0.0782  0.0000
                                            0.0000  0.0000  0.0000
   131. (0.00034) RY*( 8) H   4           s( 13.21%)p 0.82( 10.81%)d 5.75( 75.98%)
                                            0.0017 -0.0132  0.3606  0.0437  0.1298
                                            0.2655  0.1294  0.0360 -0.0393  0.0343
                                            0.0000  0.0000  0.0000  0.6649  0.0698
                                            0.0000  0.0000  0.0000  0.0000  0.5522
                                            0.0413  0.0775  0.0109
   132. (0.00030) RY*( 9) H   4           s(  0.00%)p 1.00( 88.78%)d 0.13( 11.22%)
                                            0.0000  0.0000  0.0000  0.0000  0.0000
                                            0.0000  0.0000  0.0000  0.0000  0.0000
                                           -0.0085  0.9416 -0.0341  0.0000  0.0000
                                            0.1722  0.0001  0.2814  0.0582  0.0000
                                            0.0000  0.0000  0.0000
   133. (0.00028) RY*(10) H   4           s( 35.28%)p 0.37( 13.15%)d 1.46( 51.57%)
                                            0.0084 -0.0107  0.5862 -0.0947 -0.0356
                                           -0.2908  0.0557  0.0994  0.1597  0.0848
                                            0.0000  0.0000  0.0000 -0.3444 -0.0625
                                            0.0000  0.0000  0.0000  0.0000  0.0906
                                            0.0848  0.6125 -0.0514
   134. (0.00025) RY*(11) H   4           s(  0.00%)p 1.00(  1.83%)d53.60( 98.17%)
                                            0.0000  0.0000  0.0000  0.0000  0.0000
                                            0.0000  0.0000  0.0000  0.0000  0.0000
                                            0.0094 -0.1288 -0.0405  0.0000  0.0000
                                            0.9498 -0.2344 -0.1564  0.0083  0.0000
                                            0.0000  0.0000  0.0000
   135. (0.00024) RY*(12) H   4           s(  3.67%)p 1.77(  6.49%)d24.48( 89.84%)
                                           -0.0077  0.0266 -0.1216  0.1454  0.0546
                                            0.1117  0.0596 -0.0336 -0.1032  0.1848
                                            0.0000  0.0000  0.0000  0.4337  0.0184
                                            0.0000  0.0000  0.0000  0.0000 -0.6191
                                           -0.0264  0.5178 -0.2405
   136. (0.00017) RY*(13) H   4           s( 15.38%)p 3.25( 49.92%)d 2.26( 34.71%)
                                           -0.0169  0.0842  0.3236 -0.2041 -0.0191
                                           -0.1671  0.1723  0.0186  0.0430  0.6626
                                           -0.0000 -0.0000 -0.0000  0.0568  0.1668
                                           -0.0000 -0.0000 -0.0000 -0.0000 -0.1937
                                           -0.2632 -0.4386 -0.1300
   137. (0.00013) RY*(14) H   4           s( 78.57%)p 0.18( 14.32%)d 0.09(  7.11%)
                                           -0.0007  0.0761  0.1907  0.8623 -0.0192
                                           -0.2706  0.0105  0.0871 -0.2343 -0.0837
                                            0.0000  0.0000  0.0000 -0.0658  0.1435
                                            0.0000  0.0000  0.0000  0.0000  0.0161
                                           -0.1437 -0.1322 -0.0882
   138. (0.00007) RY*(15) H   4           s(  0.00%)p 1.00(  8.24%)d11.14( 91.76%)
   139. (0.00005) RY*(16) H   4           s(  6.29%)p 4.31( 27.08%)d10.60( 66.63%)
   140. (0.00005) RY*(17) H   4           s(  3.09%)p 5.47( 16.89%)d25.91( 80.02%)
   141. (0.00003) RY*(18) H   4           s( 14.47%)p 1.15( 16.58%)d 4.77( 68.95%)
   142. (0.00003) RY*(19) H   4           s(  0.00%)p 1.00( 73.27%)d 0.36( 26.73%)
   143. (0.00003) RY*(20) H   4           s(  2.99%)p29.24( 87.39%)d 3.22(  9.63%)
   144. (0.00002) RY*(21) H   4           s(  0.00%)p 1.00( 14.72%)d 5.79( 85.28%)
   145. (0.00002) RY*(22) H   4           s(  4.75%)p 0.28(  1.35%)d19.78( 93.90%)
   146. (0.02050) BD*( 1) O   1 - H   2  
                ( 16.51%)   0.4063* O   1 s( 14.10%)p 6.06( 85.54%)d 0.02(  0.35%)
                                                  f 0.00(  0.01%)
                                           -0.0001 -0.3755  0.0023 -0.0001  0.0021
                                           -0.9239  0.0303  0.0064  0.0076  0.0279
                                            0.0041 -0.0009  0.0005 -0.0000 -0.0000
                                           -0.0000 -0.0000  0.0134 -0.0042  0.0024
                                           -0.0000 -0.0000 -0.0000 -0.0000 -0.0000
                                           -0.0000 -0.0490  0.0033 -0.0025  0.0295
                                           -0.0009  0.0003 -0.0000 -0.0000  0.0080
                                           -0.0004  0.0001 -0.0002 -0.0000 -0.0000
                                           -0.0000 -0.0000 -0.0044 -0.0030 -0.0004
                                            0.0001
                ( 83.49%)  -0.9138* H   2 s( 99.62%)p 0.00(  0.38%)d 0.00(  0.01%)
                                           -0.9980  0.0135 -0.0004  0.0006 -0.0362
                                            0.0474  0.0032  0.0150 -0.0017  0.0009
                                           -0.0000 -0.0000 -0.0000 -0.0006 -0.0026
                                           -0.0000 -0.0000 -0.0000 -0.0000 -0.0036
                                           -0.0013  0.0048  0.0036
   147. (0.21240) BD*( 1) O   1 - H   4  
                ( 10.91%)   0.3303* O   1 s(  7.20%)p12.86( 92.57%)d 0.03(  0.22%)
                                                  f 0.00(  0.01%)
                                            0.0001  0.2682  0.0039  0.0001  0.0015
                                           -0.1367  0.0090  0.0010  0.0017 -0.9523
                                           -0.0054  0.0013  0.0031 -0.0000 -0.0000
                                           -0.0000 -0.0000 -0.0228  0.0036 -0.0011
                                           -0.0000 -0.0000 -0.0000 -0.0000 -0.0000
                                           -0.0000 -0.0340  0.0076 -0.0024 -0.0210
                                            0.0044 -0.0000 -0.0000 -0.0000  0.0010
                                           -0.0002  0.0086 -0.0034 -0.0000 -0.0000
                                           -0.0000 -0.0000  0.0027 -0.0006 -0.0010
                                           -0.0007
                ( 89.09%)  -0.9439* H   4 s( 99.67%)p 0.00(  0.30%)d 0.00(  0.03%)
                                            0.9983 -0.0026 -0.0052  0.0126  0.0371
                                            0.0020  0.0056 -0.0117  0.0347  0.0164
                                           -0.0000 -0.0000 -0.0000  0.0019  0.0026
                                           -0.0000 -0.0000 -0.0000 -0.0000 -0.0100
                                           -0.0072 -0.0101 -0.0034


 NHO Directionality and "Bond Bending" (deviations from line of nuclear centers)

         [Thresholds for printing:  angular deviation  >  1.0 degree]
                                    hybrid p-character > 25.0%
                                    orbital occupancy  >  0.10e

                                Line of Centers        Hybrid 1              Hybrid 2
                                ---------------  -------------------   ------------------
                NBO               Theta   Phi    Theta   Phi    Dev    Theta   Phi    Dev
 ========================================================================================
     1. BD (   1) O   1 - H   2    90.0    0.0    90.0  357.9   2.1      --     --    --
     2. BD (   1) O   1 - H   4    90.0  258.1    90.0  262.5   4.4      --     --    --
    14. LP (   2) O   1             --     --      0.0    0.0   --       --     --    --
    16. LP (   2) I   3             --     --      0.0    0.0   --       --     --    --
    17. LP (   3) I   3             --     --     90.0  168.2   --       --     --    --
    18. LP (   4) I   3             --     --     90.0   78.2   --       --     --    --
   147. BD*(   1) O   1 - H   4    90.0  258.1    90.0  262.5   4.4      --     --    --


 Natural Bond Orbitals (Summary):

           NBO                  Occupancy  
 -----------------------------------------------
 Molecular unit  1  (H2O)
     1. BD (   1) O   1 - H   2          1.95950
     2. BD (   1) O   1 - H   4          1.94234
     3. CR (   1) O   1                  1.99992
    13. LP (   1) O   1                  1.97187
    14. LP (   2) O   1                  1.95475
    19. RY*(   1) O   1                  0.02485
    20. RY*(   2) O   1                  0.01930
    21. RY*(   3) O   1                  0.01242
    22. RY*(   4) O   1                  0.00717
    23. RY*(   5) O   1                  0.00638
    24. RY*(   6) O   1                  0.00605
    25. RY*(   7) O   1                  0.00600
    26. RY*(   8) O   1                  0.00562
    27. RY*(   9) O   1                  0.00317
    28. RY*(  10) O   1                  0.00062
    29. RY*(  11) O   1                  0.00059
    30. RY*(  12) O   1                  0.00057
    31. RY*(  13) O   1                  0.00053
    32. RY*(  14) O   1                  0.00047
    33. RY*(  15) O   1                  0.00047
    34. RY*(  16) O   1                  0.00048
    35. RY*(  17) O   1                  0.00047
    36. RY*(  18) O   1                  0.00045
    37. RY*(  19) O   1                  0.00044
    38. RY*(  20) O   1                  0.00043
    39. RY*(  21) O   1                  0.00042
    40. RY*(  22) O   1                  0.00043
    41. RY*(  23) O   1                  0.00039
    42. RY*(  24) O   1                  0.00032
    43. RY*(  25) O   1                  0.00025
    44. RY*(  26) O   1                  0.00016
    45. RY*(  27) O   1                  0.00011
    46. RY*(  28) O   1                  0.00008
    47. RY*(  29) O   1                  0.00008
    48. RY*(  30) O   1                  0.00008
    49. RY*(  31) O   1                  0.00009
    50. RY*(  32) O   1                  0.00008
    51. RY*(  33) O   1                  0.00008
    52. RY*(  34) O   1                  0.00007
    53. RY*(  35) O   1                  0.00007
    54. RY*(  36) O   1                  0.00006
    55. RY*(  37) O   1                  0.00006
    56. RY*(  38) O   1                  0.00004
    57. RY*(  39) O   1                  0.00003
    58. RY*(  40) O   1                 -0.00001
    59. RY*(  41) O   1                 -0.00033
    60. RY*(   1) H   2                  0.00511
    61. RY*(   2) H   2                  0.00506
    62. RY*(   3) H   2                  0.00264
    63. RY*(   4) H   2                  0.00127
    64. RY*(   5) H   2                  0.00039
    65. RY*(   6) H   2                  0.00023
    66. RY*(   7) H   2                  0.00018
    67. RY*(   8) H   2                  0.00016
    68. RY*(   9) H   2                  0.00014
    69. RY*(  10) H   2                  0.00013
    70. RY*(  11) H   2                  0.00012
    71. RY*(  12) H   2                  0.00010
    72. RY*(  13) H   2                  0.00008
    73. RY*(  14) H   2                  0.00006
    74. RY*(  15) H   2                  0.00006
    75. RY*(  16) H   2                  0.00003
    76. RY*(  17) H   2                  0.00004
    77. RY*(  18) H   2                  0.00003
    78. RY*(  19) H   2                  0.00004
    79. RY*(  20) H   2                  0.00001
    80. RY*(  21) H   2                  0.00002
    81. RY*(  22) H   2                  0.00002
   124. RY*(   1) H   4                  0.00559
   125. RY*(   2) H   4                  0.00471
   126. RY*(   3) H   4                  0.00431
   127. RY*(   4) H   4                  0.00363
   128. RY*(   5) H   4                  0.00186
   129. RY*(   6) H   4                  0.00042
   130. RY*(   7) H   4                  0.00038
   131. RY*(   8) H   4                  0.00034
   132. RY*(   9) H   4                  0.00030
   133. RY*(  10) H   4                  0.00028
   134. RY*(  11) H   4                  0.00025
   135. RY*(  12) H   4                  0.00024
   136. RY*(  13) H   4                  0.00017
   137. RY*(  14) H   4                  0.00013
   138. RY*(  15) H   4                  0.00007
   139. RY*(  16) H   4                  0.00005
   140. RY*(  17) H   4                  0.00005
   141. RY*(  18) H   4                  0.00003
   142. RY*(  19) H   4                  0.00003
   143. RY*(  20) H   4                  0.00003
   144. RY*(  21) H   4                  0.00002
   145. RY*(  22) H   4                  0.00002
   146. BD*(   1) O   1 - H   2          0.02050
   147. BD*(   1) O   1 - H   4          0.21240
       -------------------------------
              Total Lewis    9.82837  ( 96.3647%)
        Valence non-Lewis    0.23290  (  2.2835%)
        Rydberg non-Lewis    0.13787  (  1.3518%)
       -------------------------------
            Total unit  1   10.19914  (100.0000%)
           Charge unit  1   -0.19914

 Molecular unit  2  (I)
     4. CR (   1) I   3                  1.99979
     5. CR (   2) I   3                  2.00000
     6. CR (   3) I   3                  1.99985
     7. CR (   4) I   3                  2.00001
     8. CR (   5) I   3                  1.99671
     9. CR (   6) I   3                  1.99679
    10. CR (   7) I   3                  1.99674
    11. CR (   8) I   3                  1.99664
    12. CR (   9) I   3                  1.99674
    15. LP (   1) I   3                  1.97842
    16. LP (   2) I   3                  1.95222
    17. LP (   3) I   3                  1.95201
    18. LP (   4) I   3                  1.77696
    82. RY*(   1) I   3                  0.01955
    83. RY*(   2) I   3                  0.01955
    84. RY*(   3) I   3                  0.01945
    85. RY*(   4) I   3                  0.01922
    86. RY*(   5) I   3                  0.01907
    87. RY*(   6) I   3                  0.00997
    88. RY*(   7) I   3                  0.00993
    89. RY*(   8) I   3                  0.00835
    90. RY*(   9) I   3                  0.00273
    91. RY*(  10) I   3                  0.00273
    92. RY*(  11) I   3                  0.00271
    93. RY*(  12) I   3                  0.00271
    94. RY*(  13) I   3                  0.00262
    95. RY*(  14) I   3                  0.00262
    96. RY*(  15) I   3                  0.00258
    97. RY*(  16) I   3                  0.00204
    98. RY*(  17) I   3                  0.00157
    99. RY*(  18) I   3                  0.00157
   100. RY*(  19) I   3                  0.00117
   101. RY*(  20) I   3                  0.00115
   102. RY*(  21) I   3                  0.00105
   103. RY*(  22) I   3                  0.00067
   104. RY*(  23) I   3                  0.00067
   105. RY*(  24) I   3                  0.00056
   106. RY*(  25) I   3                  0.00040
   107. RY*(  26) I   3                  0.00040
   108. RY*(  27) I   3                  0.00040
   109. RY*(  28) I   3                  0.00040
   110. RY*(  29) I   3                  0.00037
   111. RY*(  30) I   3                  0.00034
   112. RY*(  31) I   3                  0.00034
   113. RY*(  32) I   3                  0.00028
   114. RY*(  33) I   3                  0.00013
   115. RY*(  34) I   3                  0.00013
   116. RY*(  35) I   3                  0.00010
   117. RY*(  36) I   3                  0.00011
   118. RY*(  37) I   3                  0.00011
   119. RY*(  38) I   3                  0.00006
   120. RY*(  39) I   3                  0.00005
   121. RY*(  40) I   3                  0.00006
   122. RY*(  41) I   3                  0.00004
   123. RY*(  42) I   3                  0.00001
       -------------------------------
              Total Lewis   53.64287  ( 99.7063%)
        Valence non-Lewis    0.00000  (  0.0000%)
        Rydberg non-Lewis    0.15799  (  0.2937%)
       -------------------------------
            Total unit  2   53.80086  (100.0000%)
           Charge unit  2   -0.80086
 Leave Link  607 at Tue Oct 12 16:25:27 2021, MaxMem=  1048576000 cpu:         8.8
 (Enter /usr/local/gaussian/g09/l9999.exe)
 1\1\GINC-KRYPTON\SP\RMP2-FC\Gen\H2I1O1(1-)\CGAVINH\12-Oct-2021\0\\#p p
 op=NBO SP NoSymm mp2/gen Pseudo=read density=current\\title\\-1,1\O\X,
 1,10.\H,1,0.9609077,2,90.\I,1,3.50850362,2,90.,3,101.85830594,0\H,1,1.
 45,2,90.,3,101.85830594,0\\Version=ES64L-G09RevE.01\HF=-370.7365068\MP
 2=-371.2585615\RMSD=8.407e-09\Dipole=0.3231347,-0.8050497,0.\Quadrupol
 e=9.5781057,-18.3573876,8.7792819,-5.4384039,0.,0.\PG=CS [SG(H2I1O1)]\
 \@


 FAULTILY FAULTLESS, ICILY REGULAR, SPLENDIDLY NULL...
           MAUDE BY TENNYSON
 Job cpu time:       0 days  0 hours  2 minutes 38.9 seconds.
 File lengths (MBytes):  RWF=     15 Int=      0 D2E=      0 Chk=      3 Scr=      1
 Normal termination of Gaussian 09 at Tue Oct 12 16:25:27 2021.
