title                                                                   
SP        RMP2-FC                                                     Gen                 
Number of atoms                            I                4
Info1-9                                    I   N=           9
         144         135           0           0           0         110
           1           2           1
Charge                                     I               -1
Multiplicity                               I                1
Number of electrons                        I               36
Number of alpha electrons                  I               18
Number of beta electrons                   I               18
Number of basis functions                  I              191
Number of independent functions            I              147
Number of point charges in /Mol/           I                0
Number of translation vectors              I                0
Atomic numbers                             I   N=           4
           8           1          53           1
Nuclear charges                            R   N=           4
  8.00000000E+00  1.00000000E+00  2.50000000E+01  1.00000000E+00
Current cartesian coordinates              R   N=          12
  0.00000000E+00  0.00000000E+00  0.00000000E+00  1.81585239E+00  0.00000000E+00
  0.00000000E+00 -1.36243524E+00 -6.48861632E+00  0.00000000E+00 -5.63069419E-01
 -2.68162576E+00  0.00000000E+00
Force Field                                I                0
Int Atom Types                             I   N=           4
           0           0           0           0
MM charges                                 R   N=           4
  0.00000000E+00  0.00000000E+00  0.00000000E+00  0.00000000E+00
Integer atomic weights                     I   N=           4
          16           2         127           1
Real atomic weights                        R   N=           4
  1.59949146E+01  2.01410179E+00  1.26900400E+02  1.00782504E+00
Atom fragment info                         I   N=           4
           0           0           0           0
Atom residue num                           I   N=           4
           0           0           0           0
Nuclear spins                              I   N=           4
           0           2           5           1
Nuclear ZEff                               R   N=           4
 -5.60000000E+00 -1.00000000E+00 -5.83000000E+03 -1.00000000E+00
Nuclear ZNuc                               R   N=           4
  8.00000000E+00  1.00000000E+00  5.30000000E+01  1.00000000E+00
Nuclear QMom                               R   N=           4
  0.00000000E+00  2.86000000E-01 -7.10000000E+01  0.00000000E+00
Nuclear GFac                               R   N=           4
  0.00000000E+00  8.57438000E-01  2.81328000E+00  2.79284600E+00
MicOpt                                     I   N=           4
          -1          -1          -1          -1
Number of contracted shells                I               65
Number of primitive shells                 I              119
Pure/Cartesian d shells                    I                0
Pure/Cartesian f shells                    I                0
Highest angular momentum                   I                3
Largest degree of contraction              I                9
Shell types                                I   N=          65
           0           0           0           0           0           1
           1           1           1          -2          -2          -2
          -3          -3           0           0           0           0
           0           0           0           1           1           1
           1           1           1          -2          -2          -2
          -2           0           0           0           0           0
           0           1           1           1           1           1
          -2          -2          -2          -2          -3          -3
           0           0           0           0           0           0
           0           1           1           1           1           1
           1          -2          -2          -2          -2
Number of primitives per shell             I   N=          65
           7           6           1           1           1           3
           1           1           1           1           1           1
           1           1           3           1           1           1
           1           1           1           1           1           1
           1           1           1           1           1           1
           1           9           8           1           1           1
           1           8           8           1           1           1
           9           1           1           1           1           1
           3           1           1           1           1           1
           1           1           1           1           1           1
           1           1           1           1           1
Shell to atom map                          I   N=          65
           1           1           1           1           1           1
           1           1           1           1           1           1
           1           1           2           2           2           2
           2           2           2           2           2           2
           2           2           2           2           2           2
           2           3           3           3           3           3
           3           3           3           3           3           3
           3           3           3           3           3           3
           4           4           4           4           4           4
           4           4           4           4           4           4
           4           4           4           4           4
Primitive exponents                        R   N=         119
  1.53300000E+04  2.29900000E+03  5.22400000E+02  1.47300000E+02  4.75500000E+01
  1.67600000E+01  6.20700000E+00  5.22400000E+02  1.47300000E+02  4.75500000E+01
  1.67600000E+01  6.20700000E+00  6.88200000E-01  1.75200000E+00  2.38400000E-01
  7.37600000E-02  3.44600000E+01  7.74900000E+00  2.28000000E+00  7.15600000E-01
  2.14000000E-01  5.97400000E-02  2.31400000E+00  6.45000000E-01  2.14000000E-01
  1.42800000E+00  5.00000000E-01  3.38700000E+01  5.09500000E+00  1.15900000E+00
  3.25800000E-01  1.02700000E-01  2.52600000E-02  3.25800000E-01  1.02700000E-01
  2.52600000E-02  1.40700000E+00  3.88000000E-01  1.02000000E-01  1.40700000E+00
  3.88000000E-01  1.02000000E-01  1.05700000E+00  2.47000000E-01  1.05700000E+00
  2.47000000E-01  5.54650000E+03  8.38214000E+02  1.82187000E+02  3.12123000E+01
  1.95314000E+01  8.24099000E+00  2.19455000E+00  1.10911000E+00  8.10610000E-02
  5.54650000E+03  8.38214000E+02  3.12123000E+01  1.95314000E+01  8.24099000E+00
  2.19455000E+00  1.10911000E+00  8.10610000E-02  3.74641000E-01  1.77080000E-01
  1.00100000E-01  4.12000000E-02  1.88988000E+02  2.12868000E+01  1.00396000E+01
  3.45180000E+00  1.97456000E+00  1.02420000E+00  4.49437000E-01  7.34810000E-02
  1.88988000E+02  1.00396000E+01  3.45180000E+00  1.97456000E+00  1.02420000E+00
  4.49437000E-01  1.86648000E-01  7.34810000E-02  5.98100000E-01  9.61800000E-02
  3.59000000E-02  1.32662000E+02  3.76054000E+01  1.03891000E+01  6.49017000E+00
  3.45451000E+00  1.84413000E+00  9.62478000E-01  4.72853000E-01  1.93200000E-01
  4.72853000E-01  1.93200000E-01  7.82000000E-02  4.06400000E-01  1.84800000E-01
  3.38700000E+01  5.09500000E+00  1.15900000E+00  3.25800000E-01  1.02700000E-01
  2.52600000E-02  3.25800000E-01  1.02700000E-01  2.52600000E-02  1.40700000E+00
  3.88000000E-01  1.02000000E-01  1.40700000E+00  3.88000000E-01  1.02000000E-01
  1.05700000E+00  2.47000000E-01  1.05700000E+00  2.47000000E-01
Contraction coefficients                   R   N=         119
  5.19808943E-04  4.02025621E-03  2.07128267E-02  8.10105536E-02  2.35962985E-01
  4.42653446E-01  3.57064423E-01 -4.42115008E-05 -1.22591041E-03 -1.05517725E-02
 -6.74452633E-02 -1.71198607E-01  1.07329856E+00  1.00000000E+00  1.00000000E+00
  1.00000000E+00  4.11634896E-02  2.57762836E-01  8.02419274E-01  1.00000000E+00
  1.00000000E+00  1.00000000E+00  1.00000000E+00  1.00000000E+00  1.00000000E+00
  1.00000000E+00  1.00000000E+00  2.54948632E-02  1.90362766E-01  8.52162022E-01
  1.00000000E+00  1.00000000E+00  1.00000000E+00  1.00000000E+00  1.00000000E+00
  1.00000000E+00  1.00000000E+00  1.00000000E+00  1.00000000E+00  1.00000000E+00
  1.00000000E+00  1.00000000E+00  1.00000000E+00  1.00000000E+00  1.00000000E+00
  1.00000000E+00  1.58603022E-04  1.00211458E-03  2.83966410E-03 -4.40310212E-02
  2.38198152E-01 -7.63568980E-01  8.96516870E-01  4.68371203E-01  2.16251781E-03
 -2.17177846E-05 -2.59237305E-04 -1.50376554E-02  2.42214079E-02  6.99888661E-02
 -5.50491335E-01 -5.69654432E-01  3.76065139E-01  1.00000000E+00  1.00000000E+00
  1.00000000E+00  1.00000000E+00  5.85232173E-04  3.69335916E-02 -2.35399435E-01
  3.41625365E-01  5.34991615E-01  2.65244797E-01  2.54463150E-02  3.82802808E-04
 -6.76097015E-05  8.33123161E-03 -4.66496478E-02 -5.27406452E-02 -2.91398344E-02
  3.65650039E-01  5.48502805E-01  2.34644635E-01  1.00000000E+00  1.00000000E+00
  1.00000000E+00  5.72000072E-04  4.40200055E-03 -4.09220051E-02  9.96610125E-02
  3.22663040E-01  4.00343050E-01  2.68306034E-01  8.48470106E-02  7.63200096E-03
  1.00000000E+00  1.00000000E+00  1.00000000E+00  1.00000000E+00  1.00000000E+00
  2.54948632E-02  1.90362766E-01  8.52162022E-01  1.00000000E+00  1.00000000E+00
  1.00000000E+00  1.00000000E+00  1.00000000E+00  1.00000000E+00  1.00000000E+00
  1.00000000E+00  1.00000000E+00  1.00000000E+00  1.00000000E+00  1.00000000E+00
  1.00000000E+00  1.00000000E+00  1.00000000E+00  1.00000000E+00
Coordinates of each shell                  R   N=         195
  0.00000000E+00  0.00000000E+00  0.00000000E+00  0.00000000E+00  0.00000000E+00
  0.00000000E+00  0.00000000E+00  0.00000000E+00  0.00000000E+00  0.00000000E+00
  0.00000000E+00  0.00000000E+00  0.00000000E+00  0.00000000E+00  0.00000000E+00
  0.00000000E+00  0.00000000E+00  0.00000000E+00  0.00000000E+00  0.00000000E+00
  0.00000000E+00  0.00000000E+00  0.00000000E+00  0.00000000E+00  0.00000000E+00
  0.00000000E+00  0.00000000E+00  0.00000000E+00  0.00000000E+00  0.00000000E+00
  0.00000000E+00  0.00000000E+00  0.00000000E+00  0.00000000E+00  0.00000000E+00
  0.00000000E+00  0.00000000E+00  0.00000000E+00  0.00000000E+00  0.00000000E+00
  0.00000000E+00  0.00000000E+00  1.81585239E+00  0.00000000E+00  0.00000000E+00
  1.81585239E+00  0.00000000E+00  0.00000000E+00  1.81585239E+00  0.00000000E+00
  0.00000000E+00  1.81585239E+00  0.00000000E+00  0.00000000E+00  1.81585239E+00
  0.00000000E+00  0.00000000E+00  1.81585239E+00  0.00000000E+00  0.00000000E+00
  1.81585239E+00  0.00000000E+00  0.00000000E+00  1.81585239E+00  0.00000000E+00
  0.00000000E+00  1.81585239E+00  0.00000000E+00  0.00000000E+00  1.81585239E+00
  0.00000000E+00  0.00000000E+00  1.81585239E+00  0.00000000E+00  0.00000000E+00
  1.81585239E+00  0.00000000E+00  0.00000000E+00  1.81585239E+00  0.00000000E+00
  0.00000000E+00  1.81585239E+00  0.00000000E+00  0.00000000E+00  1.81585239E+00
  0.00000000E+00  0.00000000E+00  1.81585239E+00  0.00000000E+00  0.00000000E+00
  1.81585239E+00  0.00000000E+00  0.00000000E+00 -1.36243524E+00 -6.48861632E+00
  0.00000000E+00 -1.36243524E+00 -6.48861632E+00  0.00000000E+00 -1.36243524E+00
 -6.48861632E+00  0.00000000E+00 -1.36243524E+00 -6.48861632E+00  0.00000000E+00
 -1.36243524E+00 -6.48861632E+00  0.00000000E+00 -1.36243524E+00 -6.48861632E+00
  0.00000000E+00 -1.36243524E+00 -6.48861632E+00  0.00000000E+00 -1.36243524E+00
 -6.48861632E+00  0.00000000E+00 -1.36243524E+00 -6.48861632E+00  0.00000000E+00
 -1.36243524E+00 -6.48861632E+00  0.00000000E+00 -1.36243524E+00 -6.48861632E+00
  0.00000000E+00 -1.36243524E+00 -6.48861632E+00  0.00000000E+00 -1.36243524E+00
 -6.48861632E+00  0.00000000E+00 -1.36243524E+00 -6.48861632E+00  0.00000000E+00
 -1.36243524E+00 -6.48861632E+00  0.00000000E+00 -1.36243524E+00 -6.48861632E+00
  0.00000000E+00 -1.36243524E+00 -6.48861632E+00  0.00000000E+00 -5.63069419E-01
 -2.68162576E+00  0.00000000E+00 -5.63069419E-01 -2.68162576E+00  0.00000000E+00
 -5.63069419E-01 -2.68162576E+00  0.00000000E+00 -5.63069419E-01 -2.68162576E+00
  0.00000000E+00 -5.63069419E-01 -2.68162576E+00  0.00000000E+00 -5.63069419E-01
 -2.68162576E+00  0.00000000E+00 -5.63069419E-01 -2.68162576E+00  0.00000000E+00
 -5.63069419E-01 -2.68162576E+00  0.00000000E+00 -5.63069419E-01 -2.68162576E+00
  0.00000000E+00 -5.63069419E-01 -2.68162576E+00  0.00000000E+00 -5.63069419E-01
 -2.68162576E+00  0.00000000E+00 -5.63069419E-01 -2.68162576E+00  0.00000000E+00
 -5.63069419E-01 -2.68162576E+00  0.00000000E+00 -5.63069419E-01 -2.68162576E+00
  0.00000000E+00 -5.63069419E-01 -2.68162576E+00  0.00000000E+00 -5.63069419E-01
 -2.68162576E+00  0.00000000E+00 -5.63069419E-01 -2.68162576E+00  0.00000000E+00
Constraint Structure                       R   N=          12
  0.00000000E+00  0.00000000E+00  0.00000000E+00  1.81585239E+00  0.00000000E+00
  0.00000000E+00 -1.36243524E+00 -6.48861632E+00  0.00000000E+00 -5.63069419E-01
 -2.68162576E+00  0.00000000E+00
Num ILSW                                   I              100
ILSW                                       I   N=         100
           0           0           0           0           2           0
           0           0           0           0           0          -1
           0           0           0           0           0           0
           0           0           0           0           0           0
           1           1           0           0           0           0
           0           0      100000           0          -1           0
           0           0           0           0           0           0
           0           0           0           1           0           0
           0           0           1           0           0           0
           0           0           4          41           0           0
           0           0           0           0           0           0
           0           0           0           4           0           0
           0           0           0           0           0           0
           0           0           0           0           0           0
           0           0           0           0           0           0
           0           0           0           0           0           0
           0           0           0           0
Num RLSW                                   I               41
RLSW                                       R   N=          41
  1.00000000E+00  1.00000000E+00  1.00000000E+00  1.00000000E+00  1.00000000E+00
  0.00000000E+00  0.00000000E+00  1.00000000E+00  0.00000000E+00  0.00000000E+00
  0.00000000E+00  0.00000000E+00  1.00000000E+00  0.00000000E+00  0.00000000E+00
  0.00000000E+00  0.00000000E+00  1.00000000E+00  0.00000000E+00  0.00000000E+00
  0.00000000E+00  0.00000000E+00  1.00000000E+00  0.00000000E+00  0.00000000E+00
  0.00000000E+00  0.00000000E+00  1.00000000E+00  0.00000000E+00  0.00000000E+00
  0.00000000E+00  0.00000000E+00  1.00000000E+00  0.00000000E+00  0.00000000E+00
  0.00000000E+00  0.00000000E+00  0.00000000E+00  1.00000000E+00  1.00000000E+00
  0.00000000E+00
ECP-MxAtEC                                 I           250000
ECP-MaxLECP                                I               10
ECP-MaxAtL                                 I          2250000
ECP-MxTECP                                 I         11250000
ECP-LenNCZ                                 I               16
ECP-KFirst                                 I   N=          40
           0           0           1           0           0           0
           2           0           0           0           5           0
           0           0           9           0           0           0
          13           0           0           0           0           0
           0           0           0           0           0           0
           0           0           0           0           0           0
           0           0           0           0
ECP-KLast                                  I   N=          40
           0           0           1           0           0           0
           4           0           0           0           8           0
           0           0          12           0           0           0
          16           0           0           0           0           0
           0           0           0           0           0           0
           0           0           0           0           0           0
           0           0           0           0
ECP-LMax                                   I   N=           4
           0           0           4           0
ECP-LPSkip                                 I   N=           4
           1           1           0           1
ECP-RNFroz                                 R   N=           4
  0.00000000E+00  0.00000000E+00  2.80000000E+01  0.00000000E+00
ECP-NLP                                    I   N=          16
           2           2           2           2           2           2
           2           2           2           2           2           2
           2           2           2           2
ECP-CLP1                                   R   N=          16
  0.00000000E+00  4.99896490E+01  2.81006556E+02  6.14167390E+01  6.74162390E+01
  1.34807696E+02  1.45665480E+01  2.89684220E+01  3.55387560E+01  5.33397590E+01
  9.71646600E+00  1.49775000E+01 -2.01766180E+01 -2.60880770E+01 -2.20434000E-01
 -2.21646000E-01
ECP-CLP2                                   R   N=          16
  0.00000000E+00  0.00000000E+00  0.00000000E+00  0.00000000E+00  0.00000000E+00
  0.00000000E+00  0.00000000E+00  0.00000000E+00  0.00000000E+00  0.00000000E+00
  0.00000000E+00  0.00000000E+00  0.00000000E+00  0.00000000E+00  0.00000000E+00
  0.00000000E+00
ECP-ZLP                                    R   N=          16
  1.00000000E+00  4.00333760E+01  1.73005760E+01  8.85172000E+00  1.57201410E+01
  1.52082220E+01  8.29418600E+00  7.75394900E+00  1.38177510E+01  1.35878050E+01
  6.94763000E+00  6.96009900E+00  1.85229500E+01  1.82510350E+01  7.55790100E+00
  7.59740400E+00
MxBond                                     I                1
NBond                                      I   N=           4
           1           1           0           0
IBond                                      I   N=           4
           2           1           0           0
RBond                                      R   N=           4
  1.00000000E+00  1.00000000E+00  0.00000000E+00  0.00000000E+00
Virial Ratio                               R      2.987593687025094E+00
SCF Energy                                 R     -3.707365067731537E+02
MP2 Energy                                 R     -3.712585615380656E+02
Total Energy                               R     -3.712585615380656E+02
Post-SCF wavefunction norm                 R      1.084443202105917E+00
RMS Density                                R      8.406997001298953E-09
Job Status                                 I                1
Nuclear derivative order                   I                0
External E-field                           R   N=          35
  0.00000000E+00  0.00000000E+00  0.00000000E+00  0.00000000E+00  0.00000000E+00
  0.00000000E+00  0.00000000E+00  0.00000000E+00  0.00000000E+00  0.00000000E+00
  0.00000000E+00  0.00000000E+00  0.00000000E+00  0.00000000E+00  0.00000000E+00
  0.00000000E+00  0.00000000E+00  0.00000000E+00  0.00000000E+00  0.00000000E+00
  0.00000000E+00  0.00000000E+00  0.00000000E+00  0.00000000E+00  0.00000000E+00
  0.00000000E+00  0.00000000E+00  0.00000000E+00  0.00000000E+00  0.00000000E+00
  0.00000000E+00  0.00000000E+00  0.00000000E+00  0.00000000E+00  0.00000000E+00
IOpCl                                      I                0
IROHF                                      I                0
Alpha Orbital Energies                     R   N=         147
 -2.03418591E+01 -7.50268827E+00 -5.32958366E+00 -5.32732142E+00 -5.32726762E+00
 -2.05749285E+00 -2.05628094E+00 -2.05622133E+00 -2.05374608E+00 -2.05374585E+00
 -1.06279551E+00 -6.67995600E-01 -4.14063814E-01 -3.30809942E-01 -2.66037918E-01
 -1.74633548E-01 -1.73033226E-01 -1.72588262E-01  1.45699444E-01  1.68104421E-01
  2.26570630E-01  2.39110246E-01  2.41422527E-01  2.82128362E-01  3.01253826E-01
  3.09645245E-01  3.15444372E-01  3.43250557E-01  3.59888198E-01  3.60820060E-01
  3.63514212E-01  3.89643359E-01  3.94999288E-01  4.40763124E-01  4.54224168E-01
  4.67428235E-01  4.93044493E-01  5.54159193E-01  5.76674660E-01  6.20892634E-01
  6.61561687E-01  7.09345201E-01  7.51670984E-01  7.52427456E-01  7.58149365E-01
  7.72913496E-01  7.73723574E-01  7.83870931E-01  8.15425013E-01  8.28188986E-01
  8.43304455E-01  8.58886945E-01  8.59723643E-01  8.61233254E-01  8.77588202E-01
  9.18669420E-01  9.25575206E-01  9.40403320E-01  9.57538394E-01  9.97104148E-01
  1.04582706E+00  1.08296240E+00  1.09588782E+00  1.12536950E+00  1.14151301E+00
  1.14226055E+00  1.18661980E+00  1.21179125E+00  1.22980123E+00  1.24564553E+00
  1.26451966E+00  1.37402896E+00  1.37418340E+00  1.49204278E+00  1.49944741E+00
  1.51588719E+00  1.57878756E+00  1.67324806E+00  1.72085914E+00  1.72195196E+00
  1.72497162E+00  1.73116319E+00  1.74034501E+00  1.74922393E+00  1.76857217E+00
  1.82284773E+00  1.87456649E+00  1.91055605E+00  1.98355553E+00  2.02540544E+00
  2.02842756E+00  2.03256770E+00  2.06328194E+00  2.11368378E+00  2.16738243E+00
  2.33865084E+00  2.43595781E+00  2.50329067E+00  2.56821910E+00  2.56960256E+00
  2.61533838E+00  2.62551713E+00  2.73065346E+00  2.78013536E+00  2.86546129E+00
  2.88772890E+00  2.98256790E+00  3.01518439E+00  3.20558638E+00  3.39869200E+00
  3.40027530E+00  3.60151693E+00  3.89813724E+00  4.13232311E+00  4.14465692E+00
  4.30413689E+00  4.31560459E+00  4.35626703E+00  4.39613267E+00  4.44023953E+00
  4.52659245E+00  4.55965170E+00  4.58396407E+00  4.60888100E+00  4.75503379E+00
  4.81732802E+00  5.06765846E+00  5.16458501E+00  5.40156571E+00  5.52465418E+00
  5.58491369E+00  6.00503898E+00  6.51129038E+00  6.91932761E+00  7.00794615E+00
  7.06474147E+00  7.11685486E+00  7.43509557E+00  7.46818023E+00  7.52650676E+00
  7.54031839E+00  7.55345134E+00  7.75701813E+00  7.87705669E+00  8.47807202E+00
  1.45243693E+01  5.91844159E+01
Alpha MO coefficients                      R   N=       28077
  9.76865699E-01 -9.05369808E-03  4.32899228E-02  2.33157883E-03  1.32518105E-03
  1.37022392E-03 -7.06464135E-04 -1.28797605E-16 -1.28846636E-03  6.31095142E-04
  4.33965009E-16 -5.06917063E-05 -6.05820873E-04  3.55539518E-15  2.27658105E-06
 -4.46698952E-04  1.24746737E-17 -7.48806692E-06 -1.14265815E-15  4.97009067E-16
  8.94152045E-05 -6.18313982E-06  3.88690110E-04  1.03546277E-15 -4.32327872E-16
 -3.57551280E-04 -1.05404144E-04 -9.75893236E-05  1.82647947E-15  6.53662720E-16
  1.16694447E-04 -7.25572726E-05  3.65487513E-16  2.26277106E-05 -6.91474618E-06
 -7.37873480E-16 -3.06113620E-16 -1.59012158E-05  2.34872156E-06 -6.09891641E-16
  4.60106830E-05 -7.16386099E-06  8.41456094E-16  3.63376170E-16 -1.18441880E-04
 -2.06154723E-05  5.35647947E-04  6.23572764E-04  2.29676732E-05  5.46075015E-06
  6.23572764E-04  2.29676732E-05  5.46075015E-06 -1.30144164E-04 -1.08095949E-05
 -7.18700728E-16 -5.37582901E-04  6.46324609E-05 -1.31360334E-15 -1.33729597E-04
  7.31913363E-05 -1.57305399E-15 -1.30144164E-04 -1.08095949E-05  1.40669889E-15
 -5.37582901E-04  6.46324609E-05 -2.20562490E-15 -1.33729597E-04  7.31913363E-05
  1.26743778E-16  2.14264891E-05 -1.91678432E-16  9.57551395E-17 -3.71217400E-05
  8.48314155E-06 -1.22821946E-04  8.51882815E-16 -2.89062959E-16  2.47362881E-04
 -5.44598678E-05  2.14264891E-05  5.83627188E-17  1.43893396E-17 -3.71217400E-05
  8.48314155E-06 -1.22821946E-04  8.84559658E-16 -2.83861231E-16  2.47362881E-04
 -5.44598678E-05  4.24274433E-06 -1.98352924E-06  8.34100097E-05  7.00330155E-04
 -3.65169589E-03 -8.29338090E-04 -2.23369442E-05 -1.12153393E-04  3.95091095E-16
 -1.35498031E-04 -7.07690132E-04  1.12404904E-15  5.72394046E-05  2.77479906E-04
 -7.47828829E-16 -5.25062508E-04 -2.05371486E-03 -1.39205638E-15 -5.58670735E-05
 -1.93611432E-04  2.93262546E-16 -8.21696916E-07 -1.11549038E-17 -2.88752647E-17
 -3.57777493E-06 -4.50120877E-07 -9.99759732E-06  5.35529447E-17  9.31543197E-17
 -3.50298004E-06  1.41009923E-05  2.68782695E-04 -1.72987125E-16 -4.44607865E-16
  3.88783053E-04 -2.17010785E-04  2.43918204E-04  7.31117585E-17 -1.49599350E-16
  3.89110133E-04 -2.34122884E-04 -2.63043843E-17  8.24586437E-06  3.99243364E-05
 -8.01191948E-17 -3.84521557E-17  1.92172485E-05  3.99413259E-05  2.89495652E-16
  1.38075827E-05  2.66537766E-05  4.22486512E-16 -1.89737227E-17  6.39475305E-05
  1.46911676E-05 -7.62360068E-05 -8.30546934E-06  1.05560991E-03  1.13244740E-04
 -8.30546934E-06  1.05560991E-03  1.13244740E-04  2.08648860E-06  1.00855023E-05
 -6.15135690E-17  1.51377045E-07  1.08290685E-04  1.19794919E-16 -2.68076788E-04
 -1.76926655E-03  2.61444049E-16  2.08648860E-06  1.00855023E-05 -6.15135690E-17
  1.51377045E-07  1.08290685E-04  1.19794919E-16 -2.68076788E-04 -1.76926655E-03
  1.98032892E-16 -3.66660048E-05  5.41350771E-17  4.70885729E-17 -6.53993223E-05
  1.98454390E-05 -1.48702336E-04 -1.82986000E-16 -5.08278175E-16 -2.30352854E-04
  7.58200125E-05 -3.66660048E-05  6.16616404E-17  4.16039195E-17 -6.53993223E-05
  1.98454390E-05 -1.48702336E-04 -1.80268798E-16  5.11126274E-17 -2.30352854E-04
  7.58200125E-05  2.84808656E-06 -2.84338614E-06 -5.14095346E-06  1.65477775E-04
  1.33752420E-04  2.51389945E-06  1.21488639E-05 -4.23230598E-16 -7.53234344E-06
 -2.41912597E-05  7.19715388E-16  4.28488038E-05  5.48490926E-06  3.67507653E-15
  4.95139869E-05 -4.25653075E-05  2.14595531E-15  4.41221044E-07 -7.64124824E-16
 -5.26316948E-16  7.12866647E-07 -1.05396493E-06 -4.05424181E-06  1.67229898E-15
  7.17082503E-16 -6.84339944E-06  8.97849742E-06  6.16915075E-06  5.10697889E-16
 -1.70172049E-15  4.76891422E-05 -6.94014630E-06 -5.40185156E-17  1.08289968E-06
  2.70971157E-06  2.20848715E-16  4.39292086E-16  5.51823993E-07  2.11911600E-06
 -3.53402990E-16 -3.55020186E-06 -1.00196601E-05  7.04792436E-17  6.49953070E-17
 -1.06758807E-06 -2.48109948E-06 -4.43348406E-07 -2.26915981E-05 -4.26296436E-05
 -5.47269604E-05 -2.26915981E-05 -4.26296436E-05 -5.47269604E-05 -5.99847724E-07
  5.96543534E-07  2.28032733E-16  2.48581693E-06 -9.35036574E-06 -3.51219302E-17
  3.23413298E-06 -2.42240191E-07  4.20433663E-16 -5.99847721E-07  5.96543535E-07
 -2.41699263E-16  2.48581693E-06 -9.35036574E-06 -2.38131090E-15  3.23413298E-06
 -2.42240193E-07 -1.46439627E-15 -2.54423475E-07 -1.40477805E-16 -7.48642028E-18
  2.73265854E-10  1.58983740E-06 -2.97475165E-06 -1.31463493E-16 -1.02688201E-16
  1.71184438E-06 -3.68349099E-07 -2.54423475E-07  7.74370994E-16  8.18162600E-17
  2.73265878E-10  1.58983740E-06 -2.97475165E-06  1.14662986E-15 -2.27837255E-16
  1.71184438E-06 -3.68349099E-07  9.83165915E-01 -2.61186352E-03  2.29128660E-02
 -5.92180671E-03  1.82991185E-03 -8.05492618E-04  2.20210486E-04  8.67963123E-04
 -1.19201189E-15 -1.42452031E-05 -5.33269355E-05 -3.50549754E-15  4.39812636E-05
  1.79603370E-04  1.77652022E-15  3.59636412E-05  1.61561438E-04  3.28967212E-15
 -1.39231454E-05 -1.10308194E-04 -3.55998869E-16 -2.11151461E-04 -6.10975052E-17
  4.12853896E-16 -3.17202807E-04  1.46559965E-04 -2.23999677E-05 -3.47980395E-16
 -5.39058553E-16 -3.40359685E-05  1.56949921E-05  1.15158104E-05  2.18201964E-16
  3.78079560E-16  1.40665707E-05 -8.13790006E-06 -1.38653791E-05  1.24159244E-16
 -1.55626648E-16 -1.46415888E-05  1.30249277E-05 -2.76365876E-16  2.21618023E-06
  9.73147550E-06 -4.18271482E-16  2.14528637E-16  6.86988105E-06  8.91677876E-06
  5.48028387E-16 -2.98301665E-06 -1.17326767E-05  7.56571319E-16 -1.95468184E-16
 -8.51501324E-06 -9.31896766E-06  3.02172033E-05  6.65690078E-05 -2.01180437E-04
  1.65740296E-04  6.65690078E-05 -2.01180437E-04  1.65740296E-04 -7.37998330E-07
 -1.51201621E-06 -2.08104597E-16 -2.45298427E-06 -2.14124146E-05  3.98251525E-16
 -9.13706726E-06  1.88770655E-06 -1.66142136E-15 -7.37998330E-07 -1.51201621E-06
 -2.08104597E-16 -2.45298427E-06 -2.14124146E-05  3.98251525E-16 -9.13706726E-06
  1.88770655E-06 -2.05575799E-15  5.31403299E-08  5.08384266E-17  7.53659046E-17
  7.65706067E-07  1.15455527E-07  3.00137424E-05 -3.03888454E-16 -6.41126725E-16
  4.54714176E-05 -2.13919460E-05  5.31403299E-08 -8.44086217E-18  1.00087865E-16
  7.65706067E-07  1.15455527E-07  3.00137424E-05 -3.14445247E-16 -1.10579613E-15
  4.54714176E-05 -2.13919460E-05  6.84470224E-06 -3.04831093E-06 -6.66130717E-06
  1.28672633E-04  1.47247469E-04  2.70216040E-06  1.93378147E-05  3.60086444E-16
  7.47653237E-06  8.64436144E-06  4.78215492E-16  1.01238083E-04 -2.01533000E-05
 -8.62524333E-15  3.85157834E-05 -3.78499374E-05 -4.10522595E-15 -4.36229003E-08
 -3.46864484E-16  3.80998039E-16 -8.84338114E-07  3.35286360E-07 -1.60442998E-06
 -1.14645788E-16 -6.56159542E-16  1.31842561E-05 -4.25050088E-07 -3.78928004E-05
 -2.85981219E-15  3.56325976E-15 -3.75034642E-06  1.82697055E-05  6.85694333E-17
 -9.62355995E-08 -1.64485906E-06  2.59828952E-16 -6.13784954E-16 -1.00103247E-06
 -1.82247527E-06  6.94015387E-16 -4.19508089E-06  2.57829241E-06  2.69863333E-16
  4.64083249E-16  6.67302888E-06  4.86610517E-06 -2.57857354E-07 -5.60582924E-05
 -1.13965920E-04 -2.28676536E-05 -5.60582924E-05 -1.13965920E-04 -2.28676536E-05
  1.43933207E-06  2.22439759E-08 -2.71110122E-16  1.59994117E-05 -2.38260060E-06
  1.96303000E-15  2.95015882E-05 -1.06402862E-06  2.70818031E-15  1.43933207E-06
  2.22439805E-08  4.25663792E-17  1.59994117E-05 -2.38260060E-06  1.16754694E-15