 Entering Gaussian System, Link 0=g16
 Input=ihod_rOH_105_sp.gjf
 Output=ihod_rOH_105_sp.log
 Initial command:
 /sw/contrib/gaussian/g16/B01/g16/l1.exe "/scr/Gau-26408.inp" -scrdir="/scr/"
 Entering Link 1 = /sw/contrib/gaussian/g16/B01/g16/l1.exe PID=     26410.
  
 Copyright (c) 1988-2017, Gaussian, Inc.  All Rights Reserved.
  
 This is part of the Gaussian(R) 16 program.  It is based on
 the Gaussian(R) 09 system (copyright 2009, Gaussian, Inc.),
 the Gaussian(R) 03 system (copyright 2003, Gaussian, Inc.),
 the Gaussian(R) 98 system (copyright 1998, Gaussian, Inc.),
 the Gaussian(R) 94 system (copyright 1995, Gaussian, Inc.),
 the Gaussian 92(TM) system (copyright 1992, Gaussian, Inc.),
 the Gaussian 90(TM) system (copyright 1990, Gaussian, Inc.),
 the Gaussian 88(TM) system (copyright 1988, Gaussian, Inc.),
 the Gaussian 86(TM) system (copyright 1986, Carnegie Mellon
 University), and the Gaussian 82(TM) system (copyright 1983,
 Carnegie Mellon University). Gaussian is a federally registered
 trademark of Gaussian, Inc.
  
 This software contains proprietary and confidential information,
 including trade secrets, belonging to Gaussian, Inc.
  
 This software is provided under written license and may be
 used, copied, transmitted, or stored only in accord with that
 written license.
  
 The following legend is applicable only to US Government
 contracts under FAR:
  
                    RESTRICTED RIGHTS LEGEND
  
 Use, reproduction and disclosure by the US Government is
 subject to restrictions as set forth in subparagraphs (a)
 and (c) of the Commercial Computer Software - Restricted
 Rights clause in FAR 52.227-19.
  
 Gaussian, Inc.
 340 Quinnipiac St., Bldg. 40, Wallingford CT 06492
  
  
 ---------------------------------------------------------------
 Warning -- This program may not be used in any manner that
 competes with the business of Gaussian, Inc. or will provide
 assistance to any competitor of Gaussian, Inc.  The licensee
 of this program is prohibited from giving any competitor of
 Gaussian, Inc. access to this program.  By using this program,
 the user acknowledges that Gaussian, Inc. is engaged in the
 business of creating and licensing software in the field of
 computational chemistry and represents and warrants to the
 licensee that it is not a competitor of Gaussian, Inc. and that
 it will not use this program in any manner prohibited above.
 ---------------------------------------------------------------
  

 Cite this work as:
 Gaussian 16, Revision B.01,
 M. J. Frisch, G. W. Trucks, H. B. Schlegel, G. E. Scuseria, 
 M. A. Robb, J. R. Cheeseman, G. Scalmani, V. Barone, 
 G. A. Petersson, H. Nakatsuji, X. Li, M. Caricato, A. V. Marenich, 
 J. Bloino, B. G. Janesko, R. Gomperts, B. Mennucci, H. P. Hratchian, 
 J. V. Ortiz, A. F. Izmaylov, J. L. Sonnenberg, D. Williams-Young, 
 F. Ding, F. Lipparini, F. Egidi, J. Goings, B. Peng, A. Petrone, 
 T. Henderson, D. Ranasinghe, V. G. Zakrzewski, J. Gao, N. Rega, 
 G. Zheng, W. Liang, M. Hada, M. Ehara, K. Toyota, R. Fukuda, 
 J. Hasegawa, M. Ishida, T. Nakajima, Y. Honda, O. Kitao, H. Nakai, 
 T. Vreven, K. Throssell, J. A. Montgomery, Jr., J. E. Peralta, 
 F. Ogliaro, M. J. Bearpark, J. J. Heyd, E. N. Brothers, K. N. Kudin, 
 V. N. Staroverov, T. A. Keith, R. Kobayashi, J. Normand, 
 K. Raghavachari, A. P. Rendell, J. C. Burant, S. S. Iyengar, 
 J. Tomasi, M. Cossi, J. M. Millam, M. Klene, C. Adamo, R. Cammi, 
 J. W. Ochterski, R. L. Martin, K. Morokuma, O. Farkas, 
 J. B. Foresman, and D. J. Fox, Gaussian, Inc., Wallingford CT, 2016.
 
 ******************************************
 Gaussian 16:  ES64L-G16RevB.01 20-Dec-2017
                26-Oct-2021 
 ******************************************
 %nproc=28
 Will use up to   28 processors via shared memory.
 %mem=120GB
 %chk=/gscratch/ilahie/mccoygrp/coire_hocl/rOH_s_oop_0/ihod/ihod_rOH_105.chk
 --------------------------------------------------------
 #p pop=NBO SP NoSymm mp2/gen Pseudo=read density=current
 --------------------------------------------------------
 1/30=1,38=1,172=1/1;
 2/12=2,15=1,17=6,18=5,40=1/2;
 3/5=7,11=9,16=1,17=8,25=1,30=1,71=1/1,2,3;
 4//1;
 5/5=2,38=5/2;
 8/6=4,10=1/1;
 9/15=1,16=-3/6;
 10/5=1,13=10,31=1/2;
 6/7=2,8=2,9=2,10=2,22=-1,40=1/1,7;
 99/5=1,9=1/99;
 Leave Link    1 at Tue Oct 26 13:21:05 2021, MaxMem= 16106127360 cpu:               3.5 elap:               0.1
 (Enter /sw/contrib/gaussian/g16/B01/g16/l101.exe)
 -----
 title
 -----
 Symbolic Z-matrix:
 Charge = -1 Multiplicity = 1
 O
 X                    1     10. 
 H(iso=2)             1    r1       2     90. 
 I                    1    r2       2     90.      3    a1       0
 H                    1    r3       2    oop      3    a1       0
       Variables:
  r1                    0.96091                  
  r2                    3.5085                   
  r3                    1.05                     
  a1                  101.85832                  
  OOP                  90.                       
 
 ITRead=  0  0  0  0
 MicOpt= -1 -1 -1 -1
 NAtoms=      4 NQM=        4 NQMF=       0 NMMI=      0 NMMIF=      0
                NMic=       0 NMicF=      0.
                    Isotopes and Nuclear Properties:
 (Nuclear quadrupole moments (NQMom) in fm**2, nuclear magnetic moments (NMagM)
  in nuclear magnetons)

  Atom         1           2           3           4
 IAtWgt=          16           2         127           1
 AtmWgt=  15.9949146   2.0141018 126.9004000   1.0078250
 NucSpn=           0           2           5           1
 AtZEff=  -0.0000000  -0.0000000  -0.0000000  -0.0000000
 NQMom=    0.0000000   0.2860000 -71.0000000   0.0000000
 NMagM=    0.0000000   0.8574380   2.8132800   2.7928460
 AtZNuc=   8.0000000   1.0000000  53.0000000   1.0000000
 Leave Link  101 at Tue Oct 26 13:21:06 2021, MaxMem= 16106127360 cpu:               2.1 elap:               0.1
 (Enter /sw/contrib/gaussian/g16/B01/g16/l202.exe)
                          Input orientation:                          
 ---------------------------------------------------------------------
 Center     Atomic      Atomic             Coordinates (Angstroms)
 Number     Number       Type             X           Y           Z
 ---------------------------------------------------------------------
      1          8           0        0.000000    0.000000    0.000000
      2          1           0        0.960908    0.000000    0.000000
      3         53           0       -0.720970   -3.433626    0.000000
      4          1           0       -0.215767   -1.027592    0.000000
 ---------------------------------------------------------------------
                    Distance matrix (angstroms):
                    1          2          3          4
     1  O    0.000000
     2  H    0.960908   0.000000
     3  I    3.508501   3.823414   0.000000
     4  H    1.050000   1.562213   2.458501   0.000000
 Symmetry turned off by external request.
 Stoichiometry    H2IO(1-)
 Framework group  CS[SG(H2IO)]
 Deg. of freedom     5
 Full point group                 CS      NOp   2
 Rotational constants (GHZ):         322.7276232           2.5152257           2.4957745
 Leave Link  202 at Tue Oct 26 13:21:06 2021, MaxMem= 16106127360 cpu:               0.2 elap:               0.0
 (Enter /sw/contrib/gaussian/g16/B01/g16/l301.exe)
 General basis read from cards:  (5D, 7F)
 Centers:       1      2      4
 aug-cc-pVTZ
 ****
 Centers:       3
 S 11 1.00
     Exponent=  5.5465000000D+03 Coefficients=  1.5600000000D-04
     Exponent=  8.3821400000D+02 Coefficients=  9.8600000000D-04
     Exponent=  1.8218700000D+02 Coefficients=  2.7920000000D-03
     Exponent=  3.1212300000D+01 Coefficients= -4.3251000000D-02
     Exponent=  1.9531400000D+01 Coefficients=  2.3413400000D-01
     Exponent=  8.2409900000D+00 Coefficients= -7.5094300000D-01
     Exponent=  2.1945500000D+00 Coefficients=  8.8296800000D-01
     Exponent=  1.1091100000D+00 Coefficients=  4.6206100000D-01
     Exponent=  3.7464100000D-01 Coefficients=  2.2286000000D-02
     Exponent=  1.7708000000D-01 Coefficients= -4.3530000000D-03
     Exponent=  8.1061000000D-02 Coefficients=  1.1020000000D-03
 S 11 1.00
     Exponent=  5.5465000000D+03 Coefficients= -7.3000000000D-05
     Exponent=  8.3821400000D+02 Coefficients= -5.0800000000D-04
     Exponent=  1.8218700000D+02 Coefficients= -1.1580000000D-03
     Exponent=  3.1212300000D+01 Coefficients=  1.2193000000D-02
     Exponent=  1.9531400000D+01 Coefficients= -8.7854000000D-02
     Exponent=  8.2409900000D+00 Coefficients=  3.3820000000D-01
     Exponent=  2.1945500000D+00 Coefficients= -5.7655000000D-01
     Exponent=  1.1091100000D+00 Coefficients= -4.0929800000D-01
     Exponent=  3.7464100000D-01 Coefficients=  5.6745900000D-01
     Exponent=  1.7708000000D-01 Coefficients=  6.1248900000D-01
     Exponent=  8.1061000000D-02 Coefficients=  1.4323100000D-01
 S 1 1.00
     Exponent=  3.7464100000D-01 Coefficients=  1.0000000000D+00
 S 1 1.00
     Exponent=  1.7708000000D-01 Coefficients=  1.0000000000D+00
 S 1 1.00
     Exponent=  1.0010000000D-01 Coefficients=  1.0000000000D+00
 S 1 1.00
     Exponent=  4.1200000000D-02 Coefficients=  1.0000000000D+00
 P 9 1.00
     Exponent=  1.8898800000D+02 Coefficients=  5.8500000000D-04
     Exponent=  2.1286800000D+01 Coefficients=  3.6923000000D-02
     Exponent=  1.0039600000D+01 Coefficients= -2.3532400000D-01
     Exponent=  3.4518000000D+00 Coefficients=  3.4148300000D-01
     Exponent=  1.9745600000D+00 Coefficients=  5.3478800000D-01
     Exponent=  1.0242000000D+00 Coefficients=  2.6514100000D-01
     Exponent=  4.4943700000D-01 Coefficients=  2.5787000000D-02
     Exponent=  1.8664800000D-01 Coefficients=  5.2200000000D-04
     Exponent=  7.3481000000D-02 Coefficients=  6.0600000000D-04
 P 9 1.00
     Exponent=  1.8898800000D+02 Coefficients= -2.5600000000D-04
     Exponent=  2.1286800000D+01 Coefficients= -1.1682000000D-02
     Exponent=  1.0039600000D+01 Coefficients=  8.3192000000D-02
     Exponent=  3.4518000000D+00 Coefficients= -1.5697000000D-01
     Exponent=  1.9745600000D+00 Coefficients= -2.2451800000D-01
     Exponent=  1.0242000000D+00 Coefficients= -1.1445100000D-01
     Exponent=  4.4943700000D-01 Coefficients=  3.7535600000D-01
     Exponent=  1.8664800000D-01 Coefficients=  5.7513600000D-01
     Exponent=  7.3481000000D-02 Coefficients=  2.4591700000D-01
 P 1 1.00
     Exponent=  5.9810000000D-01 Coefficients=  1.0000000000D+00
 P 1 1.00
     Exponent=  9.6180000000D-02 Coefficients=  1.0000000000D+00
 P 1 1.00
     Exponent=  3.5900000000D-02 Coefficients=  1.0000000000D+00
 D 9 1.00
     Exponent=  1.3266200000D+02 Coefficients=  5.7200000000D-04
     Exponent=  3.7605400000D+01 Coefficients=  4.4020000000D-03
     Exponent=  1.0389100000D+01 Coefficients= -4.0922000000D-02
     Exponent=  6.4901700000D+00 Coefficients=  9.9661000000D-02
     Exponent=  3.4545100000D+00 Coefficients=  3.2266300000D-01
     Exponent=  1.8441300000D+00 Coefficients=  4.0034300000D-01
     Exponent=  9.6247800000D-01 Coefficients=  2.6830600000D-01
     Exponent=  4.7285300000D-01 Coefficients=  8.4847000000D-02
     Exponent=  1.9320000000D-01 Coefficients=  7.6320000000D-03
 D 1 1.00
     Exponent=  4.7285300000D-01 Coefficients=  1.0000000000D+00
 D 1 1.00
     Exponent=  1.9320000000D-01 Coefficients=  1.0000000000D+00
 D 1 1.00
     Exponent=  7.8200000000D-02 Coefficients=  1.0000000000D+00
 F 1 1.00
     Exponent=  4.0640000000D-01 Coefficients=  1.0000000000D+00
 F 1 1.00
     Exponent=  1.8480000000D-01 Coefficients=  1.0000000000D+00
 ****
 ======================================================================================================
                                       Pseudopotential Parameters
 ======================================================================================================
  Center     Atomic      Valence      Angular      Power
  Number     Number     Electrons     Momentum     of R      Exponent        Coefficient   SO-Coeffient
 ======================================================================================================
    1          8
                                   No pseudopotential on this center.
    2          1
                                   No pseudopotential on this center.
    3         53           25
                                      G and up 
                                                     2        1.0000000        0.00000000    0.00000000
                                      S - G
                                                     2       40.0333760       49.98964900    0.00000000
                                                     2       17.3005760      281.00655600    0.00000000
                                                     2        8.8517200       61.41673900    0.00000000
                                      P - G
                                                     2       15.7201410       67.41623900    0.00000000
                                                     2       15.2082220      134.80769600    0.00000000
                                                     2        8.2941860       14.56654800    0.00000000
                                                     2        7.7539490       28.96842200    0.00000000
                                      D - G
                                                     2       13.8177510       35.53875600    0.00000000
                                                     2       13.5878050       53.33975900    0.00000000
                                                     2        6.9476300        9.71646600    0.00000000
                                                     2        6.9600990       14.97750000    0.00000000
                                      F - G
                                                     2       18.5229500      -20.17661800    0.00000000
                                                     2       18.2510350      -26.08807700    0.00000000
                                                     2        7.5579010       -0.22043400    0.00000000
                                                     2        7.5974040       -0.22164600    0.00000000
    4          1
                                   No pseudopotential on this center.
 ======================================================================================================
 Ernie: Thresh=  0.10000D-02 Tol=  0.10000D-05 Strict=F.
 Ernie:  10 primitive shells out of 113 were deleted.
   147 basis functions,   296 primitive gaussians,   170 cartesian basis functions
    18 alpha electrons       18 beta electrons
       nuclear repulsion energy        47.7828376828 Hartrees.
 IExCor=    0 DFT=F Ex=HF Corr=None ExCW=0 ScaHFX=  1.000000
 ScaDFX=  1.000000  1.000000  1.000000  1.000000 ScalE2=  1.000000  1.000000
 IRadAn=      5 IRanWt=     -1 IRanGd=            0 ICorTp=0 IEmpDi=  4
 NAtoms=    4 NActive=    4 NUniq=    4 SFac= 1.00D+00 NAtFMM=   60 NAOKFM=F Big=F
 Integral buffers will be    131072 words long.
 Raffenetti 1 integral format.
 Two-electron integral symmetry is turned off.
 Leave Link  301 at Tue Oct 26 13:21:06 2021, MaxMem= 16106127360 cpu:               3.4 elap:               0.2
 (Enter /sw/contrib/gaussian/g16/B01/g16/l302.exe)
 NPDir=0 NMtPBC=     1 NCelOv=     1 NCel=       1 NClECP=     1 NCelD=      1
         NCelK=      1 NCelE2=     1 NClLst=     1 CellRange=     0.0.
 One-electron integrals computed using PRISM.
   1 Symmetry operations used in ECPInt.
 ECPInt:  NShTT=    1225 NPrTT=    5557 LenC2=    1226 LenP2D=    4931.
 LDataN:  DoStor=T MaxTD1= 7 Len=  274
 NBasis=   147 RedAO= T EigKep=  3.09D-04  NBF=   147
 NBsUse=   147 1.00D-06 EigRej= -1.00D+00 NBFU=   147
 Leave Link  302 at Tue Oct 26 13:21:06 2021, MaxMem= 16106127360 cpu:               6.5 elap:               0.3
 (Enter /sw/contrib/gaussian/g16/B01/g16/l303.exe)
 DipDrv:  MaxL=1.
 Leave Link  303 at Tue Oct 26 13:21:06 2021, MaxMem= 16106127360 cpu:               1.3 elap:               0.1
 (Enter /sw/contrib/gaussian/g16/B01/g16/l401.exe)
 ExpMin= 2.53D-02 ExpMax= 1.53D+04 ExpMxC= 5.22D+02 IAcc=3 IRadAn=         5 AccDes= 0.00D+00
 Harris functional with IExCor=  205 and IRadAn=       5 diagonalized for initial guess.
 HarFok:  IExCor=  205 AccDes= 0.00D+00 IRadAn=         5 IDoV= 1 UseB2=F ITyADJ=14
 ICtDFT=  3500011 ScaDFX=  1.000000  1.000000  1.000000  1.000000
 Defaulting to unpruned grid for atomic number  53.
 FoFCou: FMM=F IPFlag=           0 FMFlag=      100000 FMFlg1=           0
         NFxFlg=           0 DoJE=T BraDBF=F KetDBF=T FulRan=T
         wScrn=  0.000000 ICntrl=       500 IOpCl=  0 I1Cent=   200000004 NGrid=           0
         NMat0=    1 NMatS0=      1 NMatT0=    0 NMatD0=    1 NMtDS0=    0 NMtDT0=    0
 Symmetry not used in FoFCou.
 Harris En= -372.678144528790    
 JPrj=0 DoOrth=F DoCkMO=F.
 Leave Link  401 at Tue Oct 26 13:21:06 2021, MaxMem= 16106127360 cpu:               6.4 elap:               0.3
 (Enter /sw/contrib/gaussian/g16/B01/g16/l502.exe)
 Keep R1 ints in memory in canonical form, NReq=117069251.
 FoFCou: FMM=F IPFlag=           0 FMFlag=           0 FMFlg1=           0
         NFxFlg=           0 DoJE=F BraDBF=F KetDBF=F FulRan=T
         wScrn=  0.000000 ICntrl=       600 IOpCl=  0 I1Cent=           0 NGrid=           0
         NMat0=    1 NMatS0=  10878 NMatT0=    0 NMatD0=    1 NMtDS0=    0 NMtDT0=    0
 Symmetry not used in FoFCou.
 Two-electron integral symmetry not used.
 Closed shell SCF:
 Using DIIS extrapolation, IDIIS=  1040.
 NGot= 16106127360 LenX= 16046892795 LenY= 16046863454
 Requested convergence on RMS density matrix=1.00D-08 within 128 cycles.
 Requested convergence on MAX density matrix=1.00D-06.
 Requested convergence on             energy=1.00D-06.
 No special actions if energy rises.

 Cycle   1  Pass 1  IDiag  1:
 E= -370.649705127632    
 DIIS: error= 3.90D-02 at cycle   1 NSaved=   1.
 NSaved= 1 IEnMin= 1 EnMin= -370.649705127632     IErMin= 1 ErrMin= 3.90D-02
 ErrMax= 3.90D-02  0.00D+00 EMaxC= 1.00D-01 BMatC= 3.69D-01 BMatP= 3.69D-01
 IDIUse=3 WtCom= 6.10D-01 WtEn= 3.90D-01
 Coeff-Com:  0.100D+01
 Coeff-En:   0.100D+01
 Coeff:      0.100D+01
 Gap=     0.415 Goal=   None    Shift=    0.000
 GapD=    0.415 DampG=2.000 DampE=0.500 DampFc=1.0000 IDamp=-1.
 RMSDP=3.76D-03 MaxDP=1.03D-01              OVMax= 1.27D-01

 Cycle   2  Pass 1  IDiag  1:
 E= -370.762829862010     Delta-E=       -0.113124734378 Rises=F Damp=F
 DIIS: error= 2.78D-02 at cycle   2 NSaved=   2.
 NSaved= 2 IEnMin= 2 EnMin= -370.762829862010     IErMin= 2 ErrMin= 2.78D-02
 ErrMax= 2.78D-02  0.00D+00 EMaxC= 1.00D-01 BMatC= 7.50D-02 BMatP= 3.69D-01
 IDIUse=3 WtCom= 7.22D-01 WtEn= 2.78D-01
 Coeff-Com:  0.275D+00 0.725D+00
 Coeff-En:   0.000D+00 0.100D+01
 Coeff:      0.199D+00 0.801D+00
 Gap=     0.276 Goal=   None    Shift=    0.000
 RMSDP=1.71D-03 MaxDP=7.32D-02 DE=-1.13D-01 OVMax= 7.85D-02

 Cycle   3  Pass 1  IDiag  1:
 E= -370.803671743165     Delta-E=       -0.040841881155 Rises=F Damp=F
 DIIS: error= 1.01D-02 at cycle   3 NSaved=   3.
 NSaved= 3 IEnMin= 3 EnMin= -370.803671743165     IErMin= 3 ErrMin= 1.01D-02
 ErrMax= 1.01D-02  0.00D+00 EMaxC= 1.00D-01 BMatC= 1.02D-02 BMatP= 7.50D-02
 IDIUse=3 WtCom= 8.99D-01 WtEn= 1.01D-01
 Coeff-Com: -0.188D-02 0.262D+00 0.740D+00
 Coeff-En:   0.000D+00 0.000D+00 0.100D+01
 Coeff:     -0.169D-02 0.235D+00 0.766D+00
 Gap=     0.277 Goal=   None    Shift=    0.000
 RMSDP=4.18D-04 MaxDP=2.03D-02 DE=-4.08D-02 OVMax= 2.19D-02

 Cycle   4  Pass 1  IDiag  1:
 E= -370.809977726058     Delta-E=       -0.006305982894 Rises=F Damp=F
 DIIS: error= 1.14D-03 at cycle   4 NSaved=   4.
 NSaved= 4 IEnMin= 4 EnMin= -370.809977726058     IErMin= 4 ErrMin= 1.14D-03
 ErrMax= 1.14D-03  0.00D+00 EMaxC= 1.00D-01 BMatC= 1.16D-04 BMatP= 1.02D-02
 IDIUse=3 WtCom= 9.89D-01 WtEn= 1.14D-02
 Coeff-Com: -0.826D-02-0.499D-02 0.949D-01 0.918D+00
 Coeff-En:   0.000D+00 0.000D+00 0.000D+00 0.100D+01
 Coeff:     -0.816D-02-0.493D-02 0.938D-01 0.919D+00
 Gap=     0.279 Goal=   None    Shift=    0.000
 RMSDP=1.01D-04 MaxDP=6.11D-03 DE=-6.31D-03 OVMax= 3.59D-03

 Cycle   5  Pass 1  IDiag  1:
 E= -370.810084262470     Delta-E=       -0.000106536412 Rises=F Damp=F
 DIIS: error= 1.62D-04 at cycle   5 NSaved=   5.
 NSaved= 5 IEnMin= 5 EnMin= -370.810084262470     IErMin= 5 ErrMin= 1.62D-04
 ErrMax= 1.62D-04  0.00D+00 EMaxC= 1.00D-01 BMatC= 5.35D-06 BMatP= 1.16D-04
 IDIUse=3 WtCom= 9.98D-01 WtEn= 1.62D-03
 Coeff-Com:  0.147D-02-0.168D-01-0.518D-01 0.501D-02 0.106D+01
 Coeff-En:   0.000D+00 0.000D+00 0.000D+00 0.000D+00 0.100D+01
 Coeff:      0.147D-02-0.168D-01-0.517D-01 0.501D-02 0.106D+01
 Gap=     0.278 Goal=   None    Shift=    0.000
 RMSDP=4.80D-05 MaxDP=1.60D-03 DE=-1.07D-04 OVMax= 1.69D-03

 Cycle   6  Pass 1  IDiag  1:
 E= -370.810096205120     Delta-E=       -0.000011942650 Rises=F Damp=F
 DIIS: error= 7.73D-05 at cycle   6 NSaved=   6.
 NSaved= 6 IEnMin= 6 EnMin= -370.810096205120     IErMin= 6 ErrMin= 7.73D-05
 ErrMax= 7.73D-05  0.00D+00 EMaxC= 1.00D-01 BMatC= 4.78D-07 BMatP= 5.35D-06
 IDIUse=1 WtCom= 1.00D+00 WtEn= 0.00D+00
 Coeff-Com:  0.110D-03 0.541D-02 0.691D-02-0.100D+00-0.222D+00 0.131D+01
 Coeff:      0.110D-03 0.541D-02 0.691D-02-0.100D+00-0.222D+00 0.131D+01
 Gap=     0.278 Goal=   None    Shift=    0.000
 RMSDP=1.53D-05 MaxDP=9.56D-04 DE=-1.19D-05 OVMax= 9.11D-04

 Cycle   7  Pass 1  IDiag  1:
 E= -370.810097806805     Delta-E=       -0.000001601685 Rises=F Damp=F
 DIIS: error= 1.11D-05 at cycle   7 NSaved=   7.
 NSaved= 7 IEnMin= 7 EnMin= -370.810097806805     IErMin= 7 ErrMin= 1.11D-05
 ErrMax= 1.11D-05  0.00D+00 EMaxC= 1.00D-01 BMatC= 1.79D-08 BMatP= 4.78D-07
 IDIUse=1 WtCom= 1.00D+00 WtEn= 0.00D+00
 Coeff-Com: -0.854D-04-0.664D-03 0.372D-03 0.305D-01 0.121D-02-0.352D+00
 Coeff-Com:  0.132D+01
 Coeff:     -0.854D-04-0.664D-03 0.372D-03 0.305D-01 0.121D-02-0.352D+00
 Coeff:      0.132D+01
 Gap=     0.278 Goal=   None    Shift=    0.000
 RMSDP=2.97D-06 MaxDP=1.33D-04 DE=-1.60D-06 OVMax= 1.58D-04

 Cycle   8  Pass 1  IDiag  1:
 E= -370.810097866941     Delta-E=       -0.000000060136 Rises=F Damp=F
 DIIS: error= 3.22D-06 at cycle   8 NSaved=   8.
 NSaved= 8 IEnMin= 8 EnMin= -370.810097866941     IErMin= 8 ErrMin= 3.22D-06
 ErrMax= 3.22D-06  0.00D+00 EMaxC= 1.00D-01 BMatC= 5.84D-10 BMatP= 1.79D-08
 IDIUse=1 WtCom= 1.00D+00 WtEn= 0.00D+00
 Coeff-Com:  0.695D-05-0.108D-03-0.214D-03-0.408D-03 0.720D-02-0.133D-02
 Coeff-Com: -0.169D+00 0.116D+01
 Coeff:      0.695D-05-0.108D-03-0.214D-03-0.408D-03 0.720D-02-0.133D-02
 Coeff:     -0.169D+00 0.116D+01
 Gap=     0.278 Goal=   None    Shift=    0.000
 RMSDP=4.90D-07 MaxDP=1.95D-05 DE=-6.01D-08 OVMax= 2.01D-05

 Cycle   9  Pass 1  IDiag  1:
 E= -370.810097868625     Delta-E=       -0.000000001685 Rises=F Damp=F
 DIIS: error= 4.59D-07 at cycle   9 NSaved=   9.
 NSaved= 9 IEnMin= 9 EnMin= -370.810097868625     IErMin= 9 ErrMin= 4.59D-07
 ErrMax= 4.59D-07  0.00D+00 EMaxC= 1.00D-01 BMatC= 4.07D-11 BMatP= 5.84D-10
 IDIUse=1 WtCom= 1.00D+00 WtEn= 0.00D+00
 Coeff-Com:  0.538D-05 0.523D-04-0.181D-04-0.206D-02-0.491D-03 0.234D-01
 Coeff-Com: -0.677D-01-0.152D+00 0.120D+01
 Coeff:      0.538D-05 0.523D-04-0.181D-04-0.206D-02-0.491D-03 0.234D-01
 Coeff:     -0.677D-01-0.152D+00 0.120D+01
 Gap=     0.278 Goal=   None    Shift=    0.000
 RMSDP=1.30D-07 MaxDP=6.48D-06 DE=-1.68D-09 OVMax= 6.73D-06

 Cycle  10  Pass 1  IDiag  1:
 E= -370.810097868756     Delta-E=       -0.000000000131 Rises=F Damp=F
 DIIS: error= 1.34D-07 at cycle  10 NSaved=  10.
 NSaved=10 IEnMin=10 EnMin= -370.810097868756     IErMin=10 ErrMin= 1.34D-07
 ErrMax= 1.34D-07  0.00D+00 EMaxC= 1.00D-01 BMatC= 2.61D-12 BMatP= 4.07D-11
 IDIUse=1 WtCom= 1.00D+00 WtEn= 0.00D+00
 Coeff-Com: -0.103D-05 0.499D-05 0.143D-04 0.123D-03-0.444D-03-0.688D-03
 Coeff-Com:  0.113D-01-0.513D-01-0.837D-01 0.112D+01
 Coeff:     -0.103D-05 0.499D-05 0.143D-04 0.123D-03-0.444D-03-0.688D-03
 Coeff:      0.113D-01-0.513D-01-0.837D-01 0.112D+01
 Gap=     0.278 Goal=   None    Shift=    0.000
 RMSDP=4.04D-08 MaxDP=2.14D-06 DE=-1.31D-10 OVMax= 1.54D-06

 Cycle  11  Pass 1  IDiag  1:
 E= -370.810097868761     Delta-E=       -0.000000000005 Rises=F Damp=F
 DIIS: error= 3.41D-08 at cycle  11 NSaved=  11.
 NSaved=11 IEnMin=11 EnMin= -370.810097868761     IErMin=11 ErrMin= 3.41D-08
 ErrMax= 3.41D-08  0.00D+00 EMaxC= 1.00D-01 BMatC= 1.84D-13 BMatP= 2.61D-12
 IDIUse=1 WtCom= 1.00D+00 WtEn= 0.00D+00
 Coeff-Com: -0.432D-06-0.317D-05 0.320D-05 0.154D-03-0.107D-04-0.161D-02
 Coeff-Com:  0.497D-02 0.106D-01-0.102D+00 0.783D-01 0.101D+01
 Coeff:     -0.432D-06-0.317D-05 0.320D-05 0.154D-03-0.107D-04-0.161D-02
 Coeff:      0.497D-02 0.106D-01-0.102D+00 0.783D-01 0.101D+01
 Gap=     0.278 Goal=   None    Shift=    0.000
 RMSDP=1.27D-08 MaxDP=7.46D-07 DE=-4.95D-12 OVMax= 5.20D-07

 Cycle  12  Pass 1  IDiag  1:
 E= -370.810097868764     Delta-E=       -0.000000000003 Rises=F Damp=F
 DIIS: error= 1.15D-08 at cycle  12 NSaved=  12.
 NSaved=12 IEnMin=12 EnMin= -370.810097868764     IErMin=12 ErrMin= 1.15D-08
 ErrMax= 1.15D-08  0.00D+00 EMaxC= 1.00D-01 BMatC= 1.00D-14 BMatP= 1.84D-13
 IDIUse=1 WtCom= 1.00D+00 WtEn= 0.00D+00
 Coeff-Com:  0.139D-06 0.281D-06-0.825D-06-0.342D-04 0.243D-04 0.308D-03
 Coeff-Com: -0.155D-02 0.270D-02 0.172D-01-0.842D-01-0.118D+00 0.118D+01
 Coeff:      0.139D-06 0.281D-06-0.825D-06-0.342D-04 0.243D-04 0.308D-03
 Coeff:     -0.155D-02 0.270D-02 0.172D-01-0.842D-01-0.118D+00 0.118D+01
 Gap=     0.278 Goal=   None    Shift=    0.000
 RMSDP=3.36D-09 MaxDP=1.86D-07 DE=-2.90D-12 OVMax= 1.08D-07

 SCF Done:  E(RHF) =  -370.810097869     A.U. after   12 cycles
            NFock= 12  Conv=0.34D-08     -V/T= 2.9857
 KE= 1.867401598771D+02 PE=-9.091622746468D+02 EE= 3.038291792181D+02
 Leave Link  502 at Tue Oct 26 13:21:08 2021, MaxMem= 16106127360 cpu:              30.9 elap:               2.1
 (Enter /sw/contrib/gaussian/g16/B01/g16/l801.exe)
 ExpMin= 2.53D-02 ExpMax= 1.53D+04 ExpMxC= 5.22D+02 IAcc=3 IRadAn=         5 AccDes= 0.00D+00
 HarFok:  IExCor=  205 AccDes= 0.00D+00 IRadAn=         5 IDoV=-2 UseB2=F ITyADJ=14
 ICtDFT= 12500011 ScaDFX=  1.000000  1.000000  1.000000  1.000000
 Defaulting to unpruned grid for atomic number  53.
 Largest valence mixing into a core orbital is  1.29D-04
 Largest core mixing into a valence orbital is  2.22D-05
 Range of M.O.s used for correlation:     6   147
 NBasis=   147 NAE=    18 NBE=    18 NFC=     5 NFV=     0
 NROrb=    142 NOA=    13 NOB=    13 NVA=   129 NVB=   129

 **** Warning!!: The largest alpha MO coefficient is  0.15540793D+02

 Leave Link  801 at Tue Oct 26 13:21:09 2021, MaxMem= 16106127360 cpu:               2.1 elap:               0.1
 (Enter /sw/contrib/gaussian/g16/B01/g16/l906.exe)
 Frozen-core derivative calculation, NFC=   5 NFV=   0.
 FulOut=F Deriv=T AODrv=F NAtomX=     4
   MMem=         225  MDisk=          13 MDiskD=          13
  W3Min=      449820 MinDsk=      818995 NBas6D=         170
 NBas2D=       14925    NTT=       14535    LW2=    26219120
    MDV= 16105851561 MDiskM=      473642 NBas2p=       14925
 Fully in-core method, ICMem=   303093605.
 IMap=   1   2   3   4   5   6   7   8   9  10  11  12  13  14  15  16  17  18
 JobTyp=1 Pass  1 fully in-core, NPsUse= 28.
 Compute canonical integrals.
 FoFCou: FMM=F IPFlag=           0 FMFlag=           0 FMFlg1=           0
         NFxFlg=           0 DoJE=F BraDBF=F KetDBF=F FulRan=T
         wScrn=  0.000000 ICntrl=       600 IOpCl=  1 I1Cent=           0 NGrid=           0
         NMat0=    1 NMatS0=  14925 NMatT0=    0 NMatD0=    1 NMtDS0=    0 NMtDT0=    0
 Symmetry not used in FoFCou.
 Spin components of T(2) and E(2):
     alpha-alpha T2 =       0.2201674157D-01 E2=     -0.6798501660D-01
     alpha-beta  T2 =       0.1151253414D+00 E2=     -0.3647079009D+00
     beta-beta   T2 =       0.2201674157D-01 E2=     -0.6798501660D-01
 The integrals were generated   1 times.
 ANorm=    0.1076642385D+01
 E2 =    -0.5006779341D+00 EUMP2 =    -0.37131077580291D+03
 Leave Link  906 at Tue Oct 26 13:21:12 2021, MaxMem= 16106127360 cpu:              83.6 elap:               3.0
 (Enter /sw/contrib/gaussian/g16/B01/g16/l1002.exe)
 Minotr:  Closed shell wavefunction.
          Computing MP2/KS-MP2 derivatives.
          Using Z-Vector for PSCF gradient.
          Skipping F1 and S1 gradient terms here.
          Frozen-core window.
          Direct CPHF calculation.
          Differentiating once with respect to electric field.
                with respect to dipole field.
          Electric field/nuclear overlap derivatives assumed to be zero.
          Requested convergence is 1.0D-10 RMS, and 1.0D-09 maximum.
          NewPWx=F KeepS1=T KeepF1=T KeepIn=T MapXYZ=F SortEE=F KeepMc=T.
 Keep R1 ints in memory in canonical form, NReq=117072071.
 FoFCou: FMM=F IPFlag=           0 FMFlag=           0 FMFlg1=           0
         NFxFlg=           0 DoJE=F BraDBF=F KetDBF=F FulRan=T
         wScrn=  0.000000 ICntrl=       600 IOpCl=  0 I1Cent=           0 NGrid=           0
         NMat0=    1 NMatS0=  10878 NMatT0=    0 NMatD0=    1 NMtDS0=    0 NMtDT0=    0
 Symmetry not used in FoFCou.
 Two-electron integral symmetry not used.
          MDV=   16106127360 using IRadAn=       5.
          Solving linear equations separately, MaxMat=       0.
          There are     1 degrees of freedom in the 1st order CPHF.  IDoFFX=0 NUNeed=     1.
 LinEq1:  Iter=  0 NonCon=     1 RMS=2.80D-03 Max=5.19D-02 NDo=     1
 AX will form     1 AO Fock derivatives at one time.
 LinEq1:  Iter=  1 NonCon=     1 RMS=4.57D-04 Max=5.86D-03 NDo=     1
 LinEq1:  Iter=  2 NonCon=     1 RMS=1.98D-04 Max=2.63D-03 NDo=     1
 LinEq1:  Iter=  3 NonCon=     1 RMS=4.88D-05 Max=8.15D-04 NDo=     1
 LinEq1:  Iter=  4 NonCon=     1 RMS=1.35D-05 Max=1.39D-04 NDo=     1
 LinEq1:  Iter=  5 NonCon=     1 RMS=3.92D-06 Max=5.01D-05 NDo=     1
 LinEq1:  Iter=  6 NonCon=     1 RMS=8.71D-07 Max=1.33D-05 NDo=     1
 LinEq1:  Iter=  7 NonCon=     1 RMS=1.86D-07 Max=2.46D-06 NDo=     1
 LinEq1:  Iter=  8 NonCon=     1 RMS=5.07D-08 Max=6.07D-07 NDo=     1
 LinEq1:  Iter=  9 NonCon=     1 RMS=1.04D-08 Max=1.71D-07 NDo=     1
 LinEq1:  Iter= 10 NonCon=     1 RMS=1.75D-09 Max=2.32D-08 NDo=     1
 LinEq1:  Iter= 11 NonCon=     1 RMS=3.24D-10 Max=4.94D-09 NDo=     1
 LinEq1:  Iter= 12 NonCon=     1 RMS=9.05D-11 Max=1.52D-09 NDo=     1
 LinEq1:  Iter= 13 NonCon=     0 RMS=1.70D-11 Max=1.66D-10 NDo=     1
 Linear equations converged to 1.000D-10 1.000D-09 after    13 iterations.
 End of Minotr F.D. properties file   721 does not exist.
 End of Minotr F.D. properties file   722 does not exist.
 End of Minotr F.D. properties file   788 does not exist.
 Leave Link 1002 at Tue Oct 26 13:21:14 2021, MaxMem= 16106127360 cpu:              32.8 elap:               2.4
 (Enter /sw/contrib/gaussian/g16/B01/g16/l601.exe)
 Copying SCF densities to generalized density rwf, IOpCl= 0 IROHF=0.

 **********************************************************************

            Population analysis using the MP2 Density.

 **********************************************************************

 Alpha  occ. eigenvalues --  -20.40124  -7.46968  -5.29532  -5.29494  -5.29489
 Alpha  occ. eigenvalues --   -2.02281  -2.02258  -2.02252  -2.02212  -2.02212
 Alpha  occ. eigenvalues --   -1.16525  -0.63180  -0.52043  -0.41703  -0.33910
 Alpha  occ. eigenvalues --   -0.15069  -0.14488  -0.14449
 Alpha virt. eigenvalues --    0.13333   0.17010   0.23289   0.24528   0.25159
 Alpha virt. eigenvalues --    0.27109   0.29056   0.29377   0.31253   0.33786
 Alpha virt. eigenvalues --    0.36639   0.37142   0.37533   0.39533   0.40890
 Alpha virt. eigenvalues --    0.42176   0.44274   0.47639   0.53303   0.54464
 Alpha virt. eigenvalues --    0.57174   0.59673   0.66909   0.71643   0.77601
 Alpha virt. eigenvalues --    0.77611   0.78498   0.79621   0.79795   0.79928
 Alpha virt. eigenvalues --    0.82796   0.83729   0.85400   0.85687   0.86465
 Alpha virt. eigenvalues --    0.87732   0.88217   0.88949   0.89942   0.91239
 Alpha virt. eigenvalues --    0.93384   0.97128   1.01298   1.05380   1.07023
 Alpha virt. eigenvalues --    1.09830   1.10937   1.11994   1.14606   1.16499
 Alpha virt. eigenvalues --    1.16855   1.19094   1.32133   1.36215   1.38058
 Alpha virt. eigenvalues --    1.43060   1.48680   1.52134   1.55909   1.67298
 Alpha virt. eigenvalues --    1.71513   1.73362   1.74944   1.75011   1.76649
 Alpha virt. eigenvalues --    1.77569   1.81064   1.85087   1.88668   1.88989
 Alpha virt. eigenvalues --    2.03767   2.04091   2.05404   2.06647   2.10432
 Alpha virt. eigenvalues --    2.10715   2.14981   2.31032   2.44579   2.51024
 Alpha virt. eigenvalues --    2.55588   2.58695   2.60137   2.63582   2.66635
 Alpha virt. eigenvalues --    2.80956   2.89876   2.93386   2.98006   3.01259
 Alpha virt. eigenvalues --    3.05943   3.27822   3.29000   3.70301   3.86940
 Alpha virt. eigenvalues --    4.18454   4.25089   4.29245   4.29832   4.40900
 Alpha virt. eigenvalues --    4.42312   4.53048   4.57106   4.57641   4.72630
 Alpha virt. eigenvalues --    4.92559   5.04371   5.16873   5.23840   5.39534
 Alpha virt. eigenvalues --    5.44924   5.59660   5.75659   6.34521   6.71516
 Alpha virt. eigenvalues --    6.87737   7.04000   7.20954   7.38755   7.41092
 Alpha virt. eigenvalues --    7.44707   7.52845   7.57869   7.75334   8.01241
 Alpha virt. eigenvalues --    8.07397   8.74818  15.25432  59.21967
          Condensed to atoms (all electrons):
               1          2          3          4
     1  O    8.313674   0.199140  -0.062447   0.101635
     2  H    0.199140   0.600637   0.005429   0.024909
     3  I   -0.062447   0.005429  25.908494   0.035282
     4  H    0.101635   0.024909   0.035282   0.569300
 Mulliken charges:
               1
     1  O   -0.552002
     2  H    0.169885
     3  I   -0.886758
     4  H    0.268875
 Sum of Mulliken charges =  -1.00000
 Mulliken charges with hydrogens summed into heavy atoms:
               1
     1  O   -0.113242
     3  I   -0.886758
 Electronic spatial extent (au):  <R**2>=           1235.3537
 Charge=             -1.0000 electrons
 Dipole moment (field-independent basis, Debye):
    X=              4.0656    Y=             13.3211    Z=             -0.0000  Tot=             13.9278
 Quadrupole moment (field-independent basis, Debye-Ang):
   XX=            -41.3176   YY=            -90.5386   ZZ=            -41.8703
   XY=             -9.6760   XZ=              0.0000   YZ=             -0.0000
 Traceless Quadrupole moment (field-independent basis, Debye-Ang):
   XX=             16.5912   YY=            -32.6297   ZZ=             16.0385
   XY=             -9.6760   XZ=              0.0000   YZ=             -0.0000
 Octapole moment (field-independent basis, Debye-Ang**2):
  XXX=             73.9646  YYY=            518.3135  ZZZ=             -0.0000  XYY=             58.0048
  XXY=            123.0757  XXZ=             -0.0000  XZZ=             23.5307  YZZ=            115.9956
  YYZ=              0.0000  XYZ=             -0.0000
 Hexadecapole moment (field-independent basis, Debye-Ang**3):
 XXXX=           -179.4551 YYYY=          -3028.0879 ZZZZ=            -75.8440 XXXY=           -252.9629
 XXXZ=              0.0000 YYYX=           -364.2059 YYYZ=             -0.0000 ZZZX=              0.0000
 ZZZY=             -0.0000 XXYY=           -463.0363 XXZZ=            -42.7500 YYZZ=           -421.9705
 XXYZ=             -0.0000 YYXZ=              0.0000 ZZXY=            -82.7404
 N-N= 4.778283768284D+01 E-N=-9.085991435831D+02  KE= 1.869394666471D+02
 No NMR shielding tensors so no spin-rotation constants.
 Leave Link  601 at Tue Oct 26 13:21:14 2021, MaxMem= 16106127360 cpu:               4.1 elap:               0.2
 (Enter /sw/contrib/gaussian/g16/B01/g16/l607.exe)
 ******************************Gaussian NBO Version 3.1******************************
             N A T U R A L   A T O M I C   O R B I T A L   A N D
          N A T U R A L   B O N D   O R B I T A L   A N A L Y S I S
 ******************************Gaussian NBO Version 3.1******************************
       /RESON  / : Allow strongly delocalized NBO set

 Analyzing the MP2 density

 Job title: title                                                           

 Storage needed:     65577 in NPA,     86948 in NBO (********** available)
 GSVD:  LWork=       -1281 too small for GESVD, short by       46116 words or       46116 for optimal perf.


 NATURAL POPULATIONS:  Natural atomic orbital occupancies 
                                                          
   NAO  Atom  No  lang   Type(AO)    Occupancy
 --------------------------------------------
     1    O    1  S      Cor( 1S)     1.99969
     2    O    1  S      Val( 2S)     1.75719
     3    O    1  S      Ryd( 3S)     0.00690
     4    O    1  S      Ryd( 4S)     0.00053
     5    O    1  S      Ryd( 5S)     0.00024
     6    O    1  px     Val( 2p)     1.52540
     7    O    1  px     Ryd( 3p)     0.01050
     8    O    1  px     Ryd( 4p)     0.00058
     9    O    1  px     Ryd( 5p)     0.00008
    10    O    1  py     Val( 2p)     1.65888
    11    O    1  py     Ryd( 3p)     0.01197
    12    O    1  py     Ryd( 4p)     0.00064
    13    O    1  py     Ryd( 5p)     0.00015
    14    O    1  pz     Val( 2p)     1.95315
    15    O    1  pz     Ryd( 3p)     0.02235
    16    O    1  pz     Ryd( 4p)     0.00060
    17    O    1  pz     Ryd( 5p)     0.00000
    18    O    1  dxy    Ryd( 3d)     0.00858
    19    O    1  dxy    Ryd( 4d)     0.00052
    20    O    1  dxy    Ryd( 5d)     0.00012
    21    O    1  dxz    Ryd( 3d)     0.00964
    22    O    1  dxz    Ryd( 4d)     0.00094
    23    O    1  dxz    Ryd( 5d)     0.00017
    24    O    1  dyz    Ryd( 3d)     0.00752
    25    O    1  dyz    Ryd( 4d)     0.00051
    26    O    1  dyz    Ryd( 5d)     0.00013
    27    O    1  dx2y2  Ryd( 3d)     0.01255
    28    O    1  dx2y2  Ryd( 4d)     0.00034
    29    O    1  dx2y2  Ryd( 5d)     0.00015
    30    O    1  dz2    Ryd( 3d)     0.00890
    31    O    1  dz2    Ryd( 4d)     0.00050
    32    O    1  dz2    Ryd( 5d)     0.00012
    33    O    1  f(0)   Ryd( 4f)     0.00087
    34    O    1  f(0)   Ryd( 5f)     0.00015
    35    O    1  f(C1)  Ryd( 4f)     0.00055
    36    O    1  f(C1)  Ryd( 5f)     0.00009
    37    O    1  f(S1)  Ryd( 4f)     0.00063
    38    O    1  f(S1)  Ryd( 5f)     0.00010
    39    O    1  f(C2)  Ryd( 4f)     0.00055
    40    O    1  f(C2)  Ryd( 5f)     0.00011
    41    O    1  f(S2)  Ryd( 4f)     0.00046
    42    O    1  f(S2)  Ryd( 5f)     0.00008
    43    O    1  f(C3)  Ryd( 4f)     0.00042
    44    O    1  f(C3)  Ryd( 5f)     0.00012
    45    O    1  f(S3)  Ryd( 4f)     0.00049
    46    O    1  f(S3)  Ryd( 5f)     0.00012

    47    H    2  S      Val( 1S)     0.54684
    48    H    2  S      Ryd( 2S)     0.00179
    49    H    2  S      Ryd( 3S)     0.00041
    50    H    2  S      Ryd( 4S)     0.00015
    51    H    2  px     Ryd( 3p)     0.00028
    52    H    2  px     Ryd( 2p)     0.00076
    53    H    2  px     Ryd( 4p)     0.00016
    54    H    2  py     Ryd( 2p)     0.00055
    55    H    2  py     Ryd( 3p)     0.00018
    56    H    2  py     Ryd( 4p)     0.00008
    57    H    2  pz     Ryd( 2p)     0.00139
    58    H    2  pz     Ryd( 3p)     0.00016
    59    H    2  pz     Ryd( 4p)     0.00005
    60    H    2  dxy    Ryd( 3d)     0.00011
    61    H    2  dxy    Ryd( 4d)     0.00007
    62    H    2  dxz    Ryd( 3d)     0.00038
    63    H    2  dxz    Ryd( 4d)     0.00008
    64    H    2  dyz    Ryd( 3d)     0.00011
    65    H    2  dyz    Ryd( 4d)     0.00005
    66    H    2  dx2y2  Ryd( 3d)     0.00014
    67    H    2  dx2y2  Ryd( 4d)     0.00005
    68    H    2  dz2    Ryd( 3d)     0.00014
    69    H    2  dz2    Ryd( 4d)     0.00006

    70    I    3  S      Cor( 4S)     1.99998
    71    I    3  S      Val( 5S)     1.97562
    72    I    3  S      Ryd( 6S)     0.00268
    73    I    3  S      Ryd( 7S)     0.00053
    74    I    3  S      Ryd( 8S)     0.00007
    75    I    3  S      Ryd( 9S)     0.00000
    76    I    3  px     Cor( 4p)     2.00005
    77    I    3  px     Val( 5p)     1.94880
    78    I    3  px     Ryd( 6p)     0.01086
    79    I    3  px     Ryd( 7p)     0.00074
    80    I    3  px     Ryd( 8p)     0.00008
    81    I    3  py     Cor( 4p)     1.99994
    82    I    3  py     Val( 5p)     1.89723
    83    I    3  py     Ryd( 6p)     0.00956
    84    I    3  py     Ryd( 7p)     0.00066
    85    I    3  py     Ryd( 8p)     0.00018
    86    I    3  pz     Cor( 4p)     2.00005
    87    I    3  pz     Val( 5p)     1.95161
    88    I    3  pz     Ryd( 6p)     0.01087
    89    I    3  pz     Ryd( 7p)     0.00074
    90    I    3  pz     Ryd( 8p)     0.00007
    91    I    3  dxy    Cor( 4d)     1.99673
    92    I    3  dxy    Ryd( 5d)     0.02014
    93    I    3  dxy    Ryd( 6d)     0.00140
    94    I    3  dxy    Ryd( 7d)     0.00018
    95    I    3  dxz    Cor( 4d)     1.99678
    96    I    3  dxz    Ryd( 5d)     0.02012
    97    I    3  dxz    Ryd( 6d)     0.00165
    98    I    3  dxz    Ryd( 7d)     0.00016
    99    I    3  dyz    Cor( 4d)     1.99675
   100    I    3  dyz    Ryd( 5d)     0.02018
   101    I    3  dyz    Ryd( 6d)     0.00138
   102    I    3  dyz    Ryd( 7d)     0.00018
   103    I    3  dx2y2  Cor( 4d)     1.99667
   104    I    3  dx2y2  Ryd( 5d)     0.01967
   105    I    3  dx2y2  Ryd( 6d)     0.00157
   106    I    3  dx2y2  Ryd( 7d)     0.00019
   107    I    3  dz2    Cor( 4d)     1.99674
   108    I    3  dz2    Ryd( 5d)     0.01996
   109    I    3  dz2    Ryd( 6d)     0.00164
   110    I    3  dz2    Ryd( 7d)     0.00017
   111    I    3  f(0)   Ryd( 4f)     0.00272
   112    I    3  f(0)   Ryd( 5f)     0.00043
   113    I    3  f(C1)  Ryd( 4f)     0.00275
   114    I    3  f(C1)  Ryd( 5f)     0.00043
   115    I    3  f(S1)  Ryd( 4f)     0.00276
   116    I    3  f(S1)  Ryd( 5f)     0.00045
   117    I    3  f(C2)  Ryd( 4f)     0.00271
   118    I    3  f(C2)  Ryd( 5f)     0.00043
   119    I    3  f(S2)  Ryd( 4f)     0.00277
   120    I    3  f(S2)  Ryd( 5f)     0.00043
   121    I    3  f(C3)  Ryd( 4f)     0.00268
   122    I    3  f(C3)  Ryd( 5f)     0.00044
   123    I    3  f(S3)  Ryd( 4f)     0.00272
   124    I    3  f(S3)  Ryd( 5f)     0.00044

   125    H    4  S      Val( 1S)     0.49444
   126    H    4  S      Ryd( 2S)     0.00692
   127    H    4  S      Ryd( 3S)     0.00046
   128    H    4  S      Ryd( 4S)     0.00011
   129    H    4  px     Ryd( 2p)     0.00382
   130    H    4  px     Ryd( 3p)     0.00038
   131    H    4  px     Ryd( 4p)     0.00010
   132    H    4  py     Ryd( 2p)     0.00384
   133    H    4  py     Ryd( 3p)     0.00057
   134    H    4  py     Ryd( 4p)     0.00021
   135    H    4  pz     Ryd( 2p)     0.00410
   136    H    4  pz     Ryd( 3p)     0.00040
   137    H    4  pz     Ryd( 4p)     0.00010
   138    H    4  dxy    Ryd( 3d)     0.00026
   139    H    4  dxy    Ryd( 4d)     0.00010
   140    H    4  dxz    Ryd( 3d)     0.00017
   141    H    4  dxz    Ryd( 4d)     0.00006
   142    H    4  dyz    Ryd( 3d)     0.00026
   143    H    4  dyz    Ryd( 4d)     0.00010
   144    H    4  dx2y2  Ryd( 3d)     0.00025
   145    H    4  dx2y2  Ryd( 4d)     0.00009
   146    H    4  dz2    Ryd( 3d)     0.00021
   147    H    4  dz2    Ryd( 4d)     0.00007

 [ 28 electrons found in the effective core potential]

 WARNING:  5 low occupancy (<1.9990e) core orbitals found on  I    3


 Summary of Natural Population Analysis:                  
                                                          
                                       Natural Population 
                Natural  -----------------------------------------------
    Atom  No    Charge         Core      Valence    Rydberg      Total
 -----------------------------------------------------------------------
      O    1   -1.00428      1.99969     6.89463    0.10996     9.00428
      H    2    0.44602      0.00000     0.54684    0.00714     0.55398
      I    3   -0.92477     45.98372     7.77326    0.16779    53.92477
      H    4    0.48298      0.00000     0.49444    0.02259     0.51702
 =======================================================================
   * Total *   -1.00005     47.98341    15.70916    0.30748    64.00005

                                 Natural Population      
 --------------------------------------------------------
   Effective Core            28.00000
   Core                      19.98341 ( 99.9170% of  20)
   Valence                   15.70916 ( 98.1823% of  16)
   Natural Minimal Basis     63.69257 ( 99.5196% of  64)
   Natural Rydberg Basis      0.30748 (  0.4804% of  64)
 --------------------------------------------------------

    Atom  No          Natural Electron Configuration
 ----------------------------------------------------------------------------
      O    1      [core]2S( 1.76)2p( 5.14)3S( 0.01)3p( 0.04)3d( 0.05)
      H    2            1S( 0.55)
      I    3      [core]5S( 1.98)5p( 5.80)4f( 0.02)5d( 0.10)6p( 0.03)6d( 0.01)
      H    4            1S( 0.49)2S( 0.01)2p( 0.01)


 NATURAL BOND ORBITAL ANALYSIS:
 Warning:  a bond orbital has occupanc of -0.00013

                       Occupancies       Lewis Structure    Low   High
           Occ.    -------------------  -----------------   occ   occ
  Cycle   Thresh.   Lewis   Non-Lewis     CR  BD  3C  LP    (L)   (NL)   Dev
 =============================================================================
   1(1)    1.90    63.61814   0.38186     10   2   0   6     1      0    0.09
 Warning:  a bond orbital has occupanc of -0.00013
   2(2)    1.90    63.61814   0.38186     10   2   0   6     1      0    0.09
 Warning:  a bond orbital has occupanc of -0.00013
   3(1)    1.80    63.61814   0.38186     10   2   0   6     0      0    0.09
 -----------------------------------------------------------------------------

 Structure accepted: No low occupancy Lewis orbitals

 WARNING:  5 low occupancy (<1.9990e) core orbitals found on  I    3

 --------------------------------------------------------
   Effective Core           28.00000
   Core                     19.98340 ( 99.917% of  20)
   Valence Lewis            15.63473 ( 97.717% of  16)
  ==================       ============================
   Total Lewis              63.61814 ( 99.403% of  64)
  -----------------------------------------------------
   Valence non-Lewis         0.10281 (  0.161% of  64)
   Rydberg non-Lewis         0.27905 (  0.436% of  64)
  ==================       ============================
   Total non-Lewis           0.38186 (  0.597% of  64)
 --------------------------------------------------------


       (Occupancy)   Bond orbital/ Coefficients/ Hybrids
 ---------------------------------------------------------------------------------
     1. (1.96545) BD ( 1) O   1 - H   2  
                ( 72.95%)   0.8541* O   1 s( 21.33%)p 3.67( 78.19%)d 0.02(  0.46%)
                                                  f 0.00(  0.01%)
                                            0.0002  0.4618 -0.0105 -0.0000 -0.0044
                                            0.8823 -0.0357  0.0082 -0.0018  0.0452
                                           -0.0132  0.0014 -0.0039  0.0000  0.0000
                                            0.0000  0.0000 -0.0190  0.0021  0.0015
                                            0.0000  0.0000  0.0000  0.0000  0.0000
                                            0.0000  0.0548 -0.0045  0.0042 -0.0342
                                            0.0010 -0.0002  0.0000  0.0000 -0.0096
                                           -0.0001 -0.0003  0.0000  0.0000  0.0000
                                            0.0000  0.0000  0.0034  0.0033  0.0015
                                           -0.0003
                ( 27.05%)   0.5201* H   2 s( 99.88%)p 0.00(  0.11%)d 0.00(  0.01%)
                                            0.9994  0.0038 -0.0003  0.0001  0.0010
                                            0.0323 -0.0041  0.0015 -0.0010 -0.0008
                                            0.0000  0.0000  0.0000  0.0014 -0.0024
                                            0.0000  0.0000  0.0000  0.0000  0.0087
                                           -0.0021 -0.0065  0.0004
     2. (1.96441) BD ( 1) O   1 - H   4  
                ( 78.05%)   0.8835* O   1 s( 23.55%)p 3.23( 76.02%)d 0.02(  0.41%)
                                                  f 0.00(  0.01%)
                                           -0.0003 -0.4853  0.0004  0.0010  0.0005
                                            0.2080 -0.0178  0.0006  0.0014  0.8465
                                           -0.0092  0.0078 -0.0050  0.0000  0.0000
                                            0.0000  0.0000  0.0067 -0.0055  0.0034
                                            0.0000  0.0000  0.0000  0.0000  0.0000
                                            0.0000  0.0526 -0.0043 -0.0008  0.0352
                                           -0.0015 -0.0033  0.0000  0.0000 -0.0022
                                            0.0002 -0.0103  0.0010  0.0000  0.0000
                                            0.0000  0.0000 -0.0031 -0.0013  0.0006
                                           -0.0034
                ( 21.95%)   0.4685* H   4 s( 99.88%)p 0.00(  0.11%)d 0.00(  0.00%)
                                           -0.9990 -0.0295 -0.0013  0.0015 -0.0186
                                           -0.0009 -0.0009  0.0077 -0.0247 -0.0090
                                            0.0000  0.0000  0.0000 -0.0008  0.0035
                                            0.0000  0.0000  0.0000  0.0000 -0.0047
                                            0.0018  0.0032  0.0005
     3. (1.99969) CR ( 1) O   1           s(100.00%)
                                            1.0000 -0.0004  0.0000  0.0000  0.0000
                                           -0.0001  0.0000 -0.0000  0.0000  0.0001
                                           -0.0000  0.0000 -0.0000  0.0000  0.0000
                                            0.0000  0.0000 -0.0000 -0.0000  0.0000
                                            0.0000  0.0000  0.0000  0.0000  0.0000
                                            0.0000 -0.0000 -0.0000 -0.0000  0.0000
                                           -0.0000 -0.0000  0.0000  0.0000  0.0000
                                            0.0000 -0.0000 -0.0000  0.0000  0.0000
                                            0.0000  0.0000 -0.0000 -0.0000 -0.0000
                                           -0.0000
     4. (1.99998) CR ( 1) I   3           s(100.00%)p 0.00(  0.00%)
                                            1.0000  0.0000 -0.0000 -0.0000  0.0000
                                            0.0000 -0.0000  0.0001 -0.0000 -0.0000
                                           -0.0000 -0.0000  0.0004 -0.0000 -0.0000
                                            0.0000  0.0000  0.0000  0.0000  0.0000
                                            0.0000 -0.0000  0.0000 -0.0000 -0.0000
                                            0.0000  0.0000  0.0000  0.0000  0.0000
                                            0.0000  0.0000  0.0000  0.0000 -0.0000
                                            0.0000  0.0000  0.0000 -0.0000  0.0000
                                            0.0000  0.0000  0.0000 -0.0000 -0.0000
                                           -0.0000 -0.0000  0.0000  0.0000  0.0000
                                            0.0000 -0.0000 -0.0000 -0.0000 -0.0000
     5. (2.00005) CR ( 2) I   3           s(  0.00%)p 1.00(100.00%)
                                           -0.0000  0.0000  0.0000 -0.0000  0.0000
                                            0.0000  1.0000 -0.0002 -0.0000 -0.0000
                                            0.0000 -0.0000  0.0001 -0.0000 -0.0000
                                            0.0000  0.0000  0.0000  0.0000  0.0000
                                            0.0000 -0.0000 -0.0000  0.0000  0.0000
                                            0.0000  0.0000  0.0000  0.0000  0.0000
                                            0.0000  0.0000  0.0000  0.0000 -0.0000
                                            0.0000  0.0000  0.0000 -0.0000  0.0000
                                            0.0000  0.0000  0.0000  0.0000  0.0000
                                           -0.0000 -0.0000  0.0000  0.0000  0.0000
                                            0.0000  0.0000  0.0000 -0.0000 -0.0000
     6. (1.99994) CR ( 3) I   3           s(  0.00%)p 1.00(100.00%)
                                           -0.0000  0.0002 -0.0000 -0.0000  0.0000
                                            0.0000 -0.0000  0.0001  0.0000 -0.0000
                                           -0.0000  1.0000  0.0004 -0.0000 -0.0000
                                            0.0000  0.0000  0.0000  0.0000  0.0000
                                            0.0000 -0.0000  0.0000 -0.0000 -0.0000
                                            0.0000  0.0000  0.0000  0.0000  0.0000
                                            0.0000  0.0000  0.0000  0.0000 -0.0000
                                            0.0000  0.0000  0.0000 -0.0000  0.0000
                                            0.0000  0.0000  0.0000 -0.0000 -0.0000
                                           -0.0000 -0.0000  0.0000  0.0000  0.0000
                                            0.0000 -0.0000 -0.0000 -0.0000 -0.0000
     7. (2.00005) CR ( 4) I   3           s(  0.00%)p 1.00(100.00%)
                                            0.0000  0.0000  0.0000  0.0000  0.0000
                                            0.0000  0.0000  0.0000  0.0000  0.0000
                                            0.0000  0.0000  0.0000  0.0000  0.0000
                                            0.0000  1.0000 -0.0002 -0.0000 -0.0000
                                            0.0000  0.0000  0.0000  0.0000  0.0000
                                            0.0000 -0.0000  0.0000 -0.0000  0.0000
                                           -0.0000  0.0000  0.0000  0.0000  0.0000
                                            0.0000  0.0000  0.0000  0.0000  0.0000
                                            0.0000  0.0000  0.0000  0.0000  0.0000
                                            0.0000  0.0000  0.0000  0.0000 -0.0000
                                           -0.0000  0.0000  0.0000  0.0000  0.0000
     8. (1.99673) CR ( 5) I   3           s(  0.00%)p 0.00(  0.00%)d 1.00(100.00%)
                                           -0.0000  0.0001 -0.0000 -0.0000  0.0000
                                            0.0000 -0.0000  0.0001  0.0000 -0.0000
                                           -0.0000 -0.0000  0.0002 -0.0000 -0.0000
                                            0.0000  0.0000  0.0000  0.0000  0.0000
                                            0.0000  1.0000  0.0000 -0.0000 -0.0000
                                            0.0000  0.0000  0.0000  0.0000  0.0000
                                            0.0000  0.0000  0.0000  0.0000 -0.0000
                                            0.0000  0.0000  0.0000 -0.0000  0.0000
                                            0.0000  0.0000  0.0000 -0.0000 -0.0000
                                           -0.0000 -0.0000  0.0000  0.0000  0.0000
                                            0.0000 -0.0000 -0.0000 -0.0000 -0.0000
     9. (1.99678) CR ( 6) I   3           s(  0.00%)p 0.00(  0.00%)d 1.00(100.00%)
                                            0.0000  0.0000  0.0000  0.0000  0.0000
                                            0.0000  0.0000  0.0000  0.0000  0.0000
                                            0.0000  0.0000  0.0000  0.0000  0.0000
                                            0.0000  0.0000  0.0000  0.0000  0.0000
                                           -0.0000  0.0000  0.0000  0.0000  0.0000
                                            1.0000  0.0000 -0.0000  0.0000 -0.0000
                                            0.0000 -0.0000 -0.0000  0.0000  0.0000
                                            0.0000  0.0000  0.0000  0.0000  0.0000
                                            0.0000 -0.0000 -0.0000  0.0000  0.0000
                                            0.0000  0.0000 -0.0000 -0.0000  0.0000
                                            0.0000  0.0000  0.0000  0.0000  0.0000
    10. (1.99675) CR ( 7) I   3           s(  0.00%)p 0.00(  0.00%)d 1.00(100.00%)
                                            0.0000  0.0000  0.0000  0.0000  0.0000
                                            0.0000  0.0000  0.0000  0.0000  0.0000
                                            0.0000  0.0000  0.0000  0.0000  0.0000
                                            0.0000  0.0000  0.0000  0.0000  0.0000
                                           -0.0000  0.0000  0.0000  0.0000  0.0000
                                           -0.0000  0.0000 -0.0000  0.0000  1.0000
                                            0.0000 -0.0000 -0.0000  0.0000  0.0000
                                            0.0000  0.0000  0.0000  0.0000  0.0000
                                            0.0000 -0.0000 -0.0000  0.0000  0.0000
                                            0.0000  0.0000 -0.0000 -0.0000  0.0000
                                            0.0000  0.0000  0.0000  0.0000  0.0000
    11. (1.99667) CR ( 8) I   3           s(  0.00%)p 0.00(  0.00%)d 1.00(100.00%)
                                           -0.0000  0.0001 -0.0000 -0.0000  0.0000
                                            0.0000 -0.0000  0.0001 -0.0000 -0.0000
                                           -0.0000 -0.0000  0.0004 -0.0000 -0.0000
                                            0.0000 -0.0000 -0.0000 -0.0000 -0.0000
                                           -0.0000 -0.0000  0.0000 -0.0000 -0.0000
                                           -0.0000 -0.0000 -0.0000 -0.0000 -0.0000
                                           -0.0000 -0.0000 -0.0000 -1.0000 -0.0000
                                            0.0000  0.0000  0.0000 -0.0000  0.0000
                                            0.0000 -0.0000 -0.0000 -0.0000 -0.0000
                                           -0.0000 -0.0000 -0.0000 -0.0000 -0.0000
                                           -0.0000 -0.0000 -0.0000 -0.0000 -0.0000
    12. (1.99674) CR ( 9) I   3           s(  0.00%)p 0.00(  0.00%)d 1.00(100.00%)
                                            0.0000 -0.0001  0.0000  0.0000 -0.0000
                                           -0.0000  0.0000 -0.0001  0.0000  0.0000
                                            0.0000  0.0000 -0.0003  0.0000  0.0000
                                           -0.0000  0.0000  0.0000  0.0000  0.0000
                                            0.0000  0.0000 -0.0000  0.0000  0.0000
                                            0.0000  0.0000  0.0000  0.0000  0.0000
                                            0.0000  0.0000  0.0000 -0.0000  0.0000
                                           -0.0000 -0.0000  1.0000  0.0000 -0.0000
                                           -0.0000  0.0000  0.0000  0.0000  0.0000
                                            0.0000  0.0000  0.0000  0.0000  0.0000
                                            0.0000  0.0000  0.0000  0.0000  0.0000
    13. (1.96986) LP ( 1) O   1           s( 55.04%)p 0.81( 44.84%)d 0.00(  0.11%)
                                                  f 0.00(  0.00%)
                                            0.0002  0.7419  0.0041  0.0006  0.0019
                                           -0.4142 -0.0017  0.0035 -0.0012  0.5261
                                            0.0084 -0.0042 -0.0000  0.0000  0.0000
                                            0.0000  0.0000  0.0301 -0.0039 -0.0023
                                            0.0000  0.0000  0.0000  0.0000  0.0000
                                            0.0000  0.0047  0.0004 -0.0032  0.0130
                                           -0.0024  0.0018  0.0000  0.0000  0.0023
                                           -0.0005 -0.0035  0.0013  0.0000  0.0000
                                            0.0000  0.0000  0.0011 -0.0004  0.0034
                                           -0.0019
    14. (1.96073) LP ( 2) O   1           s(  0.00%)p 1.00( 99.71%)d 0.00(  0.27%)
                                                  f 0.00(  0.03%)
                                            0.0000  0.0000  0.0000  0.0000  0.0000
                                            0.0000  0.0000  0.0000  0.0000  0.0000
                                            0.0000  0.0000  0.0000  0.9981  0.0298
                                           -0.0068  0.0036  0.0000  0.0000  0.0000
                                            0.0413 -0.0129  0.0070 -0.0269  0.0007
                                            0.0054  0.0000  0.0000  0.0000  0.0000
                                            0.0000  0.0000 -0.0140  0.0054  0.0000
                                            0.0000  0.0000  0.0000  0.0049 -0.0029
                                            0.0022 -0.0004  0.0000  0.0000  0.0000
                                            0.0000
    15. (1.97906) LP ( 1) I   3           s( 96.10%)p 0.04(  3.90%)d 0.00(  0.00%)
                                                  f 0.00(  0.00%)
                                            0.0001  0.9803  0.0002  0.0004 -0.0003
                                           -0.0001 -0.0000 -0.0388  0.0003 -0.0001
                                            0.0002 -0.0001 -0.1937  0.0006 -0.0006
                                            0.0001  0.0000  0.0000  0.0000  0.0000
                                            0.0000 -0.0000  0.0002 -0.0002 -0.0001
                                            0.0000  0.0000  0.0000  0.0000  0.0000
                                            0.0000  0.0000  0.0000  0.0000 -0.0004
                                            0.0003  0.0000  0.0000 -0.0004  0.0002
                                            0.0001  0.0000  0.0000 -0.0001 -0.0001
                                           -0.0004 -0.0003  0.0000  0.0000  0.0000
                                            0.0000 -0.0002 -0.0002 -0.0003 -0.0002
    16. (1.95171) LP ( 2) I   3           s(  0.00%)p 1.00(100.00%)d 0.00(  0.00%)
                                                  f 0.00(  0.00%)
                                            0.0000  0.0000  0.0000  0.0000  0.0000
                                            0.0000  0.0000  0.0000  0.0000  0.0000
                                            0.0000  0.0000  0.0000  0.0000  0.0000
                                            0.0000  0.0002  1.0000  0.0014  0.0011
                                           -0.0001  0.0000  0.0000  0.0000  0.0000
                                           -0.0000  0.0024 -0.0011  0.0008 -0.0000
                                            0.0047 -0.0005 -0.0020  0.0000  0.0000
                                            0.0000  0.0000  0.0000  0.0000  0.0000
                                            0.0000 -0.0019 -0.0012  0.0000  0.0000
                                            0.0000  0.0000 -0.0018 -0.0009  0.0012
                                            0.0009  0.0000  0.0000  0.0000  0.0000
    17. (1.95150) LP ( 3) I   3           s(  0.00%)p 1.00( 99.99%)d 0.00(  0.01%)
                                                  f 0.00(  0.00%)
                                           -0.0000  0.0031  0.0008 -0.0021  0.0018
                                           -0.0001 -0.0002 -0.9773 -0.0027 -0.0016
                                            0.0007  0.0000  0.2115 -0.0005 -0.0004
                                            0.0006 -0.0000 -0.0000 -0.0000 -0.0000
                                           -0.0000  0.0000 -0.0052  0.0005  0.0016
                                           -0.0000 -0.0000 -0.0000 -0.0000 -0.0000
                                           -0.0000 -0.0000 -0.0000  0.0000 -0.0041
                                            0.0013 -0.0003 -0.0000  0.0008 -0.0006
                                            0.0009 -0.0000 -0.0000  0.0009  0.0006
                                           -0.0001 -0.0000 -0.0000 -0.0000 -0.0000
                                           -0.0000  0.0018  0.0007 -0.0020 -0.0013
    18. (1.89202) LP ( 4) I   3           s(  3.90%)p24.63( 96.06%)d 0.01(  0.03%)
                                                  f 0.00(  0.00%)
                                           -0.0004  0.1975 -0.0009 -0.0022  0.0014
                                            0.0003 -0.0001  0.2079 -0.0001 -0.0005
                                           -0.0002 -0.0005  0.9578 -0.0041 -0.0029
                                            0.0007  0.0000  0.0000  0.0000  0.0000
                                            0.0000 -0.0002  0.0075 -0.0009 -0.0004
                                            0.0000  0.0000  0.0000  0.0000  0.0000
                                            0.0000  0.0000  0.0000  0.0004 -0.0131
                                            0.0013  0.0021  0.0003 -0.0094  0.0014
                                            0.0005  0.0000  0.0000 -0.0009 -0.0004
                                           -0.0041 -0.0020  0.0000  0.0000  0.0000
                                            0.0000 -0.0029 -0.0008 -0.0039 -0.0015
    19. (0.02104) RY*( 1) O   1           s(  0.00%)p 1.00( 97.61%)d 0.02(  2.31%)
                                                  f 0.00(  0.08%)
                                            0.0000  0.0000  0.0000  0.0000  0.0000
                                            0.0000  0.0000  0.0000  0.0000  0.0000
                                            0.0000  0.0000  0.0000 -0.0374  0.9865
                                            0.0318 -0.0206  0.0000  0.0000  0.0000
                                            0.1304 -0.0345  0.0165 -0.0670  0.0124
                                            0.0001  0.0000  0.0000  0.0000  0.0000
                                            0.0000  0.0000 -0.0198  0.0164  0.0000
                                            0.0000  0.0000  0.0000  0.0083 -0.0065
                                           -0.0016 -0.0010  0.0000  0.0000  0.0000
                                            0.0000
    20. (0.01613) RY*( 2) O   1           s( 21.41%)p 3.51( 75.19%)d 0.15(  3.27%)
                                                  f 0.01(  0.14%)
                                            0.0000 -0.0078  0.4625  0.0083 -0.0070
                                            0.0065 -0.4682 -0.0102  0.0046 -0.0119
                                            0.7294  0.0094 -0.0165  0.0000  0.0000
                                            0.0000  0.0000  0.1760 -0.0216 -0.0011
                                            0.0000  0.0000  0.0000  0.0000  0.0000
                                            0.0000  0.0109  0.0036 -0.0072  0.0302
                                           -0.0121  0.0041  0.0000  0.0000  0.0011
                                           -0.0016 -0.0004  0.0044  0.0000  0.0000
                                            0.0000  0.0000  0.0237 -0.0084  0.0243
                                           -0.0118
    21. (0.00764) RY*( 3) O   1           s(  8.58%)p 7.95( 68.21%)d 2.66( 22.78%)
                                                  f 0.05(  0.44%)
                                           -0.0000  0.0011  0.2884 -0.0452  0.0237
                                           -0.0538 -0.6403 -0.0140 -0.0133 -0.0246
                                           -0.5175 -0.0135 -0.0141 -0.0000 -0.0000
                                           -0.0000 -0.0000 -0.3394  0.0027 -0.0133
                                           -0.0000 -0.0000 -0.0000 -0.0000 -0.0000
                                           -0.0000  0.3201  0.0685 -0.0329  0.0632
                                            0.0143  0.0005 -0.0000 -0.0000 -0.0247
                                            0.0089 -0.0002 -0.0040 -0.0000 -0.0000
                                           -0.0000 -0.0000  0.0127 -0.0069 -0.0545
                                            0.0225
    22. (0.00639) RY*( 4) O   1           s( 14.28%)p 0.69(  9.83%)d 5.25( 74.96%)
                                                  f 0.07(  0.93%)
                                           -0.0000  0.0159  0.3770  0.0183 -0.0048
                                            0.0215  0.2828  0.0172 -0.0091  0.0335
                                            0.1272  0.0065 -0.0132 -0.0000 -0.0000
                                           -0.0000 -0.0000 -0.7560 -0.0409  0.0137
                                           -0.0000 -0.0000 -0.0000 -0.0000 -0.0000
                                           -0.0000 -0.3842 -0.0298  0.0101  0.1634
                                            0.0274 -0.0109 -0.0000 -0.0000  0.0005
                                            0.0073  0.0299 -0.0141 -0.0000 -0.0000
                                           -0.0000 -0.0000 -0.0851  0.0279 -0.0129
                                           -0.0041
    23. (0.00637) RY*( 5) O   1           s(  0.00%)p 1.00(  0.25%)d99.99( 98.50%)
                                                  f 5.03(  1.25%)
                                            0.0000  0.0000  0.0000  0.0000  0.0000
                                            0.0000  0.0000  0.0000  0.0000  0.0000
                                            0.0000  0.0000  0.0000 -0.0096 -0.0484
                                           -0.0057 -0.0031  0.0000  0.0000  0.0000
                                            0.7192  0.0618 -0.0185  0.6787  0.0538
                                           -0.0094  0.0000  0.0000  0.0000  0.0000
                                            0.0000  0.0000  0.0029 -0.0044  0.0000
                                            0.0000  0.0000  0.0000  0.1020 -0.0427
                                           -0.0131  0.0073  0.0000  0.0000  0.0000
                                            0.0000
    24. (0.00593) RY*( 6) O   1           s(  0.00%)p 1.00(  2.05%)d47.40( 97.14%)
                                                  f 0.39(  0.81%)
                                            0.0000  0.0000  0.0000  0.0000  0.0000
                                            0.0000  0.0000  0.0000  0.0000  0.0000
                                            0.0000  0.0000  0.0000  0.0428  0.1359
                                            0.0121  0.0070  0.0000  0.0000  0.0000
                                           -0.6653 -0.0827  0.0256  0.7181  0.0739
                                           -0.0073  0.0000  0.0000  0.0000  0.0000
                                            0.0000  0.0000  0.0743 -0.0301  0.0000
                                            0.0000  0.0000  0.0000 -0.0014 -0.0032
                                            0.0384 -0.0134  0.0000  0.0000  0.0000
                                            0.0000
    25. (0.00573) RY*( 7) O   1           s(  6.05%)p 0.98(  5.92%)d14.44( 87.38%)
                                                  f 0.11(  0.65%)
                                            0.0000  0.0196  0.2451 -0.0065 -0.0023
                                            0.0365  0.1803  0.0181 -0.0071 -0.0383
                                           -0.1520 -0.0137 -0.0148  0.0000  0.0000
                                            0.0000  0.0000  0.3195  0.0309 -0.0065
                                            0.0000  0.0000  0.0000  0.0000  0.0000
                                            0.0000  0.0616  0.0090  0.0032  0.8687
                                            0.1099 -0.0122  0.0000  0.0000  0.0545
                                           -0.0208 -0.0511  0.0211  0.0000  0.0000
                                            0.0000  0.0000  0.0056 -0.0024  0.0054
                                            0.0015
    26. (0.00374) RY*( 8) O   1           s( 17.73%)p 0.93( 16.41%)d 3.64( 64.51%)
                                                  f 0.08(  1.36%)
                                           -0.0000 -0.0068  0.4209  0.0031  0.0066
                                            0.0359 -0.0667  0.0299 -0.0377  0.0299
                                           -0.3863 -0.0171 -0.0751 -0.0000 -0.0000
                                           -0.0000 -0.0000  0.3893  0.0629 -0.0063
                                           -0.0000 -0.0000 -0.0000 -0.0000 -0.0000
                                           -0.0000 -0.6429 -0.0416 -0.0348 -0.2681
                                           -0.0380 -0.0036 -0.0000 -0.0000  0.0247
                                           -0.0123  0.0525 -0.0321 -0.0000 -0.0000
                                           -0.0000 -0.0000  0.0099 -0.0135  0.0861
                                           -0.0364
    27. (0.00234) RY*( 9) O   1           s( 30.41%)p 0.82( 24.91%)d 1.45( 44.00%)
                                                  f 0.02(  0.67%)
                                           -0.0000 -0.0051  0.5490  0.0037 -0.0521
                                           -0.0162  0.4893  0.0529 -0.0013 -0.0092
                                           -0.0528 -0.0230 -0.0570  0.0000  0.0000
                                            0.0000  0.0000  0.0910  0.0375 -0.0192
                                            0.0000  0.0000  0.0000  0.0000  0.0000
                                            0.0000  0.5366  0.1239  0.0830 -0.3265
                                           -0.1077 -0.0393  0.0000  0.0000 -0.0210
                                            0.0371  0.0135 -0.0082  0.0000  0.0000
                                            0.0000  0.0000  0.0467 -0.0464 -0.0185
                                            0.0028
    28. (0.00076) RY*(10) O   1           s( 54.48%)p 0.66( 35.96%)d 0.15(  8.31%)
                                                  f 0.02(  1.25%)
                                           -0.0000 -0.0043 -0.0278  0.7376  0.0037
                                           -0.0009 -0.0374  0.0129 -0.0595 -0.0004
                                           -0.0079 -0.5846 -0.1127  0.0000  0.0000
                                            0.0000  0.0000 -0.0268  0.0583 -0.0865
                                            0.0000  0.0000  0.0000  0.0000  0.0000
                                            0.0000  0.0225 -0.0921  0.1193  0.0363
                                           -0.1588  0.1473  0.0000  0.0000  0.0202
                                            0.0033  0.0449  0.0257  0.0000  0.0000
                                            0.0000  0.0000  0.0270  0.0290  0.0839
                                            0.0289
    29. (0.00057) RY*(11) O   1           s(  0.00%)p 1.00(  4.48%)d17.60( 78.90%)
                                                  f 3.71( 16.62%)
                                            0.0000  0.0000  0.0000  0.0000  0.0000
                                            0.0000  0.0000  0.0000  0.0000  0.0000
                                            0.0000  0.0000  0.0000  0.0157  0.0576
                                           -0.2010  0.0295  0.0000  0.0000  0.0000
                                           -0.0433  0.8273  0.0284  0.0392 -0.3167
                                            0.0023  0.0000  0.0000  0.0000  0.0000
                                            0.0000  0.0000  0.2966 -0.0339  0.0000
                                            0.0000  0.0000  0.0000 -0.2472  0.0327
                                            0.1217  0.0090  0.0000  0.0000  0.0000
                                            0.0000
    30. (0.00054) RY*(12) O   1           s(  0.62%)p59.72( 36.91%)d79.83( 49.34%)
                                                  f21.26( 13.14%)
                                           -0.0000 -0.0053 -0.0376 -0.0262  0.0637
                                           -0.0058 -0.0282  0.5920 -0.0793  0.0073
                                            0.0557 -0.0914 -0.0048  0.0000  0.0000
                                            0.0000  0.0000 -0.0049  0.5744  0.0248
                                            0.0000  0.0000  0.0000  0.0000  0.0000
                                            0.0000  0.0069  0.1241  0.0008 -0.0394
                                            0.3807  0.0281  0.0000  0.0000 -0.0085
                                            0.0075  0.2204  0.0009  0.0000  0.0000
                                            0.0000  0.0000 -0.2129  0.0128 -0.1926
                                            0.0107
    31. (0.00054) RY*(13) O   1           s(  0.00%)p 1.00( 62.99%)d 0.45( 28.47%)
                                                  f 0.14(  8.54%)
                                            0.0000  0.0000  0.0000  0.0000  0.0000
                                            0.0000  0.0000  0.0000  0.0000  0.0000
                                            0.0000  0.0000  0.0000  0.0085 -0.0201
                                            0.7841  0.1208  0.0000  0.0000  0.0000
                                            0.0127  0.2643  0.0509 -0.0209  0.4570
                                            0.0528  0.0000  0.0000  0.0000  0.0000
                                            0.0000  0.0000  0.0207  0.0099  0.0000
                                            0.0000  0.0000  0.0000 -0.2897  0.0132
                                            0.0257 -0.0064  0.0000  0.0000  0.0000
                                            0.0000
    32. (0.00046) RY*(14) O   1           s(  0.00%)p 1.00( 15.86%)d 1.01( 15.95%)
                                                  f 4.30( 68.19%)
                                            0.0000  0.0000  0.0000  0.0000  0.0000
                                            0.0000  0.0000  0.0000  0.0000  0.0000
                                            0.0000  0.0000  0.0000 -0.0008  0.0088
                                           -0.3799 -0.1191  0.0000  0.0000  0.0000
                                           -0.0055  0.0828  0.0260  0.0257  0.3698
                                            0.1207  0.0000  0.0000  0.0000  0.0000
                                            0.0000  0.0000 -0.2167 -0.0308  0.0000
                                            0.0000  0.0000  0.0000 -0.4684 -0.0324
                                           -0.6399 -0.0643  0.0000  0.0000  0.0000
                                            0.0000
    33. (0.00046) RY*(15) O   1           s(  5.94%)p 4.77( 28.35%)d 5.46( 32.43%)
                                                  f 5.61( 33.29%)
                                            0.0000  0.0024 -0.0232  0.1813  0.1611
                                           -0.0014 -0.0181  0.1862 -0.0419 -0.0029
                                           -0.0068  0.4964 -0.0138 -0.0000 -0.0000
                                           -0.0000 -0.0000 -0.0259  0.1360 -0.0490
                                           -0.0000 -0.0000 -0.0000 -0.0000 -0.0000
                                           -0.0000  0.0305 -0.2017  0.0017  0.0901
                                           -0.5021  0.0289 -0.0000 -0.0000  0.2748
                                            0.0367  0.4489  0.0594 -0.0000 -0.0000
                                           -0.0000 -0.0000  0.2099  0.0320 -0.0733
                                            0.0231
[...]
                                            0.0000  0.0000  0.0000  0.0000  0.0000
                                            0.9824  0.1560 -0.0092  0.0000  0.0000
                                            0.0315 -0.0139 -0.0690  0.0678  0.0000
                                            0.0000  0.0000  0.0000
   126. (0.00404) RY*( 3) H   4           s(  3.41%)p28.08( 95.64%)d 0.28(  0.95%)
                                           -0.0232  0.0900  0.1591  0.0108  0.7950
                                            0.0019 -0.0097 -0.5670  0.0474 -0.0245
                                            0.0000  0.0000  0.0000 -0.0737  0.0145
                                            0.0000  0.0000  0.0000  0.0000  0.0312
                                            0.0100 -0.0523  0.0093
   127. (0.00270) RY*( 4) H   4           s( 21.89%)p 3.52( 77.07%)d 0.05(  1.05%)
                                           -0.0118  0.3930  0.2495  0.0450 -0.5590
                                            0.0218 -0.0110 -0.6364  0.2273 -0.0311
                                           -0.0000 -0.0000 -0.0000  0.0423 -0.0435
                                           -0.0000 -0.0000 -0.0000 -0.0000  0.0422
                                            0.0510  0.0435  0.0226
   128. (0.00047) RY*( 5) H   4           s( 18.30%)p 3.67( 67.20%)d 0.79( 14.50%)
                                           -0.0017 -0.0853  0.3736 -0.1901  0.0322
                                            0.7597 -0.1048  0.1807  0.1788 -0.1349
                                            0.0000  0.0000  0.0000 -0.1050  0.0611
                                            0.0000  0.0000  0.0000  0.0000  0.3008
                                            0.1103  0.1357  0.0958
   129. (0.00036) RY*( 6) H   4           s(  1.93%)p33.96( 65.67%)d16.75( 32.40%)
                                            0.0023  0.1175 -0.0640 -0.0380 -0.0429
                                            0.4882  0.0615 -0.1310 -0.4040  0.4820
                                           -0.0000 -0.0000 -0.0000  0.2012  0.2184
                                           -0.0000 -0.0000 -0.0000 -0.0000 -0.3164
                                           -0.1668 -0.2899 -0.1543
   130. (0.00035) RY*( 7) H   4           s(  0.00%)p 1.00( 73.76%)d 0.36( 26.24%)
                                            0.0000  0.0000  0.0000  0.0000  0.0000
                                            0.0000  0.0000  0.0000  0.0000  0.0000
                                           -0.1159  0.8409  0.1310  0.0000  0.0000
                                            0.1763 -0.0204  0.4589  0.1425  0.0000
                                            0.0000  0.0000  0.0000
   131. (0.00029) RY*( 8) H   4           s(  2.10%)p 5.93( 12.42%)d40.79( 85.49%)
                                           -0.0009 -0.0232  0.1075 -0.0941  0.0364
                                           -0.0828  0.3075  0.0111 -0.1224 -0.0795
                                            0.0000  0.0000  0.0000  0.7174 -0.1105
                                            0.0000  0.0000  0.0000  0.0000  0.5328
                                           -0.1144 -0.1755  0.0141
   132. (0.00024) RY*( 9) H   4           s(  0.00%)p 1.00( 31.86%)d 2.14( 68.14%)
                                            0.0000  0.0000  0.0000  0.0000  0.0000
                                            0.0000  0.0000  0.0000  0.0000  0.0000
                                            0.1373 -0.4709  0.2792  0.0000  0.0000
                                            0.1292 -0.0619  0.8036 -0.1227  0.0000
                                            0.0000  0.0000  0.0000
   133. (0.00022) RY*(10) H   4           s( 28.39%)p 2.10( 59.72%)d 0.42( 11.88%)
                                           -0.0147 -0.0778  0.4480 -0.2774  0.0604
                                           -0.2136  0.1811  0.1835  0.5316  0.4460
                                            0.0000  0.0000  0.0000  0.0958  0.0138
                                            0.0000  0.0000  0.0000  0.0000 -0.2631
                                           -0.1872  0.0035 -0.0722
   134. (0.00017) RY*(11) H   4           s( 23.33%)p 1.38( 32.14%)d 1.91( 44.53%)
                                            0.0107  0.0017  0.4828  0.0078 -0.0925
                                           -0.2373  0.0772  0.0400 -0.4838  0.1221
                                           -0.0000 -0.0000 -0.0000 -0.4889  0.0672
                                           -0.0000 -0.0000 -0.0000 -0.0000  0.3386
                                           -0.2537 -0.0546 -0.1408
   135. (0.00017) RY*(12) H   4           s(  0.00%)p 1.00(  0.79%)d99.99( 99.21%)
                                            0.0000  0.0000  0.0000  0.0000  0.0000
                                            0.0000  0.0000  0.0000  0.0000  0.0000
                                           -0.0272 -0.0845  0.0069  0.0000  0.0000
                                            0.9700  0.0751 -0.2060 -0.0560  0.0000
                                            0.0000  0.0000  0.0000
   136. (0.00016) RY*(13) H   4           s(  3.04%)p 3.17(  9.62%)d28.74( 87.34%)
                                            0.0094  0.0168  0.1563  0.0747  0.0523
                                           -0.0178  0.1003 -0.0250 -0.2862 -0.0243
                                            0.0000  0.0000  0.0000  0.2599  0.1504
                                            0.0000  0.0000  0.0000  0.0000 -0.2022
                                           -0.0697  0.8584  0.0228
   137. (0.00011) RY*(14) H   4           s(  0.00%)p 1.00( 57.23%)d 0.75( 42.77%)
                                            0.0000  0.0000  0.0000  0.0000  0.0000
                                            0.0000  0.0000  0.0000  0.0000  0.0000
                                           -0.0336 -0.1025  0.7488  0.0000  0.0000
                                           -0.0257  0.0031 -0.2160  0.6167  0.0000
                                            0.0000  0.0000  0.0000
   138. (0.00010) RY*(15) H   4           s( 13.59%)p 2.81( 38.13%)d 3.55( 48.28%)
   139. (0.00009) RY*(16) H   4           s( 70.45%)p 0.24( 16.96%)d 0.18( 12.59%)
   140. (0.00007) RY*(17) H   4           s( 16.08%)p 1.39( 22.31%)d 3.83( 61.60%)
   141. (0.00006) RY*(18) H   4           s(  0.00%)p 1.00(  4.85%)d19.60( 95.15%)
   142. (0.00004) RY*(19) H   4           s(  8.87%)p 5.07( 44.98%)d 5.20( 46.15%)
   143. (0.00004) RY*(20) H   4           s(  2.39%)p12.65( 30.19%)d28.24( 67.42%)
   144. (0.00004) RY*(21) H   4           s(  0.00%)p 1.00( 32.55%)d 2.07( 67.45%)
   145. (0.00004) RY*(22) H   4           s(  5.62%)p 1.60(  8.99%)d15.19( 85.39%)
   146. (0.02158) BD*( 1) O   1 - H   2  
                ( 27.05%)   0.5201* O   1 s( 21.33%)p 3.67( 78.19%)d 0.02(  0.46%)
                                                  f 0.00(  0.01%)
                                           -0.0002 -0.4618  0.0105  0.0000  0.0044
                                           -0.8823  0.0357 -0.0082  0.0018 -0.0452
                                            0.0132 -0.0014  0.0039 -0.0000 -0.0000
                                           -0.0000 -0.0000  0.0190 -0.0021 -0.0015
                                           -0.0000 -0.0000 -0.0000 -0.0000 -0.0000
                                           -0.0000 -0.0548  0.0045 -0.0042  0.0342
                                           -0.0010  0.0002 -0.0000 -0.0000  0.0096
                                            0.0001  0.0003 -0.0000 -0.0000 -0.0000
                                           -0.0000 -0.0000 -0.0034 -0.0033 -0.0015
                                            0.0003
                ( 72.95%)  -0.8541* H   2 s( 99.88%)p 0.00(  0.11%)d 0.00(  0.01%)
                                           -0.9994 -0.0038  0.0003 -0.0001 -0.0010
                                           -0.0323  0.0041 -0.0015  0.0010  0.0008
                                           -0.0000 -0.0000 -0.0000 -0.0014  0.0024
                                           -0.0000 -0.0000 -0.0000 -0.0000 -0.0087
                                            0.0021  0.0065 -0.0004
   147. (0.08123) BD*( 1) O   1 - H   4  
                ( 21.95%)   0.4685* O   1 s( 23.55%)p 3.23( 76.02%)d 0.02(  0.41%)
                                                  f 0.00(  0.01%)
                                            0.0003  0.4853 -0.0004 -0.0010 -0.0005
                                           -0.2080  0.0178 -0.0006 -0.0014 -0.8465
                                            0.0092 -0.0078  0.0050 -0.0000 -0.0000
                                           -0.0000 -0.0000 -0.0067  0.0055 -0.0034
                                           -0.0000 -0.0000 -0.0000 -0.0000 -0.0000
                                           -0.0000 -0.0526  0.0043  0.0008 -0.0352
                                            0.0015  0.0033 -0.0000 -0.0000  0.0022
                                           -0.0002  0.0103 -0.0010 -0.0000 -0.0000
                                           -0.0000 -0.0000  0.0031  0.0013 -0.0006
                                            0.0034
                ( 78.05%)  -0.8835* H   4 s( 99.88%)p 0.00(  0.11%)d 0.00(  0.00%)
                                            0.9990  0.0295  0.0013 -0.0015  0.0186
                                            0.0009  0.0009 -0.0077  0.0247  0.0090
                                           -0.0000 -0.0000 -0.0000  0.0008 -0.0035
                                           -0.0000 -0.0000 -0.0000 -0.0000  0.0047
                                           -0.0018 -0.0032 -0.0005


 NHO Directionality and "Bond Bending" (deviations from line of nuclear centers)

         [Thresholds for printing:  angular deviation  >  1.0 degree]
                                    hybrid p-character > 25.0%
                                    orbital occupancy  >  0.10e

                                Line of Centers        Hybrid 1              Hybrid 2
                                ---------------  -------------------   ------------------
                NBO               Theta   Phi    Theta   Phi    Dev    Theta   Phi    Dev
 ========================================================================================
     1. BD (   1) O   1 - H   2    90.0    0.0    90.0    2.0   2.0      --     --    --
     2. BD (   1) O   1 - H   4    90.0  258.1    90.0  257.1   1.0      --     --    --
    13. LP (   1) O   1             --     --     90.0  128.0   --       --     --    --
    14. LP (   2) O   1             --     --      0.0    0.0   --       --     --    --
    16. LP (   2) I   3             --     --      0.0    0.0   --       --     --    --
    17. LP (   3) I   3             --     --     90.0  167.8   --       --     --    --
    18. LP (   4) I   3             --     --     90.0   77.7   --       --     --    --


 Natural Bond Orbitals (Summary):

           NBO                  Occupancy  
 -----------------------------------------------
 Molecular unit  1  (H2O)
     1. BD (   1) O   1 - H   2          1.96545
     2. BD (   1) O   1 - H   4          1.96441
     3. CR (   1) O   1                  1.99969
    13. LP (   1) O   1                  1.96986
    14. LP (   2) O   1                  1.96073
    19. RY*(   1) O   1                  0.02104
    20. RY*(   2) O   1                  0.01613
    21. RY*(   3) O   1                  0.00764
    22. RY*(   4) O   1                  0.00639
    23. RY*(   5) O   1                  0.00637
    24. RY*(   6) O   1                  0.00593
    25. RY*(   7) O   1                  0.00573
    26. RY*(   8) O   1                  0.00374
    27. RY*(   9) O   1                  0.00234
    28. RY*(  10) O   1                  0.00076
    29. RY*(  11) O   1                  0.00057
    30. RY*(  12) O   1                  0.00054
    31. RY*(  13) O   1                  0.00054
    32. RY*(  14) O   1                  0.00046
    33. RY*(  15) O   1                  0.00046
    34. RY*(  16) O   1                  0.00046
    35. RY*(  17) O   1                  0.00044
    36. RY*(  18) O   1                  0.00043
    37. RY*(  19) O   1                  0.00044
    38. RY*(  20) O   1                  0.00041
    39. RY*(  21) O   1                  0.00038
    40. RY*(  22) O   1                  0.00037
    41. RY*(  23) O   1                  0.00031
    42. RY*(  24) O   1                  0.00031
    43. RY*(  25) O   1                  0.00025
    44. RY*(  26) O   1                  0.00015
    45. RY*(  27) O   1                  0.00008
    46. RY*(  28) O   1                  0.00009
    47. RY*(  29) O   1                  0.00008
    48. RY*(  30) O   1                  0.00007
    49. RY*(  31) O   1                  0.00007
    50. RY*(  32) O   1                  0.00007
    51. RY*(  33) O   1                  0.00007
    52. RY*(  34) O   1                  0.00006
    53. RY*(  35) O   1                  0.00006
    54. RY*(  36) O   1                  0.00005
    55. RY*(  37) O   1                  0.00005
    56. RY*(  38) O   1                  0.00004
    57. RY*(  39) O   1                  0.00001
    58. RY*(  40) O   1                  0.00001
    59. RY*(  41) O   1                 -0.00013
    60. RY*(   1) H   2                  0.00187
    61. RY*(   2) H   2                  0.00176
    62. RY*(   3) H   2                  0.00087
    63. RY*(   4) H   2                  0.00057
    64. RY*(   5) H   2                  0.00030
    65. RY*(   6) H   2                  0.00020
    66. RY*(   7) H   2                  0.00014
    67. RY*(   8) H   2                  0.00011
    68. RY*(   9) H   2                  0.00010
    69. RY*(  10) H   2                  0.00010
    70. RY*(  11) H   2                  0.00011
    71. RY*(  12) H   2                  0.00007
    72. RY*(  13) H   2                  0.00006
    73. RY*(  14) H   2                  0.00004
    74. RY*(  15) H   2                  0.00003
    75. RY*(  16) H   2                  0.00003
    76. RY*(  17) H   2                  0.00003
    77. RY*(  18) H   2                  0.00002
    78. RY*(  19) H   2                  0.00001
    79. RY*(  20) H   2                  0.00001
    80. RY*(  21) H   2                  0.00002
    81. RY*(  22) H   2                  0.00002
   124. RY*(   1) H   4                  0.00854
   125. RY*(   2) H   4                  0.00424
   126. RY*(   3) H   4                  0.00404
   127. RY*(   4) H   4                  0.00270
   128. RY*(   5) H   4                  0.00047
   129. RY*(   6) H   4                  0.00036
   130. RY*(   7) H   4                  0.00035
   131. RY*(   8) H   4                  0.00029
   132. RY*(   9) H   4                  0.00024
   133. RY*(  10) H   4                  0.00022
   134. RY*(  11) H   4                  0.00017
   135. RY*(  12) H   4                  0.00017
   136. RY*(  13) H   4                  0.00016
   137. RY*(  14) H   4                  0.00011
   138. RY*(  15) H   4                  0.00010
   139. RY*(  16) H   4                  0.00009
   140. RY*(  17) H   4                  0.00007
   141. RY*(  18) H   4                  0.00006
   142. RY*(  19) H   4                  0.00004
   143. RY*(  20) H   4                  0.00004
   144. RY*(  21) H   4                  0.00004
   145. RY*(  22) H   4                  0.00004
   146. BD*(   1) O   1 - H   2          0.02158
   147. BD*(   1) O   1 - H   4          0.08123
       -------------------------------
              Total Lewis    9.86014  ( 97.8652%)
        Valence non-Lewis    0.10281  (  1.0205%)
        Rydberg non-Lewis    0.11228  (  1.1144%)
       -------------------------------
            Total unit  1   10.07523  (100.0000%)
           Charge unit  1   -0.07523

 Molecular unit  2  (I)
     4. CR (   1) I   3                  1.99998
     5. CR (   2) I   3                  2.00005
     6. CR (   3) I   3                  1.99994
     7. CR (   4) I   3                  2.00005
     8. CR (   5) I   3                  1.99673
     9. CR (   6) I   3                  1.99678
    10. CR (   7) I   3                  1.99675
    11. CR (   8) I   3                  1.99667
    12. CR (   9) I   3                  1.99674
    15. LP (   1) I   3                  1.97906
    16. LP (   2) I   3                  1.95171
    17. LP (   3) I   3                  1.95150
    18. LP (   4) I   3                  1.89202
    82. RY*(   1) I   3                  0.02017
    83. RY*(   2) I   3                  0.02015
    84. RY*(   3) I   3                  0.02009
    85. RY*(   4) I   3                  0.02008
    86. RY*(   5) I   3                  0.01919
    87. RY*(   6) I   3                  0.01090
    88. RY*(   7) I   3                  0.01087
    89. RY*(   8) I   3                  0.00929
    90. RY*(   9) I   3                  0.00326
    91. RY*(  10) I   3                  0.00278
    92. RY*(  11) I   3                  0.00278
    93. RY*(  12) I   3                  0.00276
    94. RY*(  13) I   3                  0.00276
    95. RY*(  14) I   3                  0.00270
    96. RY*(  15) I   3                  0.00270
    97. RY*(  16) I   3                  0.00265
    98. RY*(  17) I   3                  0.00167
    99. RY*(  18) I   3                  0.00167
   100. RY*(  19) I   3                  0.00137
   101. RY*(  20) I   3                  0.00137
   102. RY*(  21) I   3                  0.00117
   103. RY*(  22) I   3                  0.00073
   104. RY*(  23) I   3                  0.00074
   105. RY*(  24) I   3                  0.00066
   106. RY*(  25) I   3                  0.00046
   107. RY*(  26) I   3                  0.00043
   108. RY*(  27) I   3                  0.00043
   109. RY*(  28) I   3                  0.00042
   110. RY*(  29) I   3                  0.00042
   111. RY*(  30) I   3                  0.00039
   112. RY*(  31) I   3                  0.00039
   113. RY*(  32) I   3                  0.00033
   114. RY*(  33) I   3                  0.00016
   115. RY*(  34) I   3                  0.00016
   116. RY*(  35) I   3                  0.00013
   117. RY*(  36) I   3                  0.00013
   118. RY*(  37) I   3                  0.00013
   119. RY*(  38) I   3                  0.00007
   120. RY*(  39) I   3                  0.00007
   121. RY*(  40) I   3                  0.00007
   122. RY*(  41) I   3                  0.00005
   123. RY*(  42) I   3                  0.00000
       -------------------------------
              Total Lewis   53.75800  ( 99.6907%)
        Valence non-Lewis    0.00000  (  0.0000%)
        Rydberg non-Lewis    0.16677  (  0.3093%)
       -------------------------------
            Total unit  2   53.92477  (100.0000%)
           Charge unit  2   -0.92477
 Leave Link  607 at Tue Oct 26 13:21:17 2021, MaxMem= 16106127360 cpu:              70.2 elap:               2.5
 (Enter /sw/contrib/gaussian/g16/B01/g16/l9999.exe)
 1\1\GINC-N2097\SP\RMP2-FC\Gen\H2I1O1(1-)\CGAVINH\26-Oct-2021\0\\#p pop
 =NBO SP NoSymm mp2/gen Pseudo=read density=current\\title\\-1,1\O\X,1,
 10.\H,1,0.96090774,2,90.\I,1,3.50850138,2,90.,3,101.85832019,0\H,1,1.0
 5,2,90.,3,101.85832019,0\\Version=ES64L-G16RevB.01\HF=-370.8100979\MP2
 =-371.3107758\RMSD=3.359e-09\Dipole=0.6666129,0.5507347,0.\Quadrupole=
 12.335159,-24.2594187,11.9242597,-7.1938518,0.,0.\PG=CS [SG(H2I1O1)]\\
 @


 FOR THE NATURE OF THE CHEMICAL BOND
 IS THE PROBLEM AT THE HEART OF ALL CHEMISTRY.

                     -- BRYCE CRAWFORD, JR., 1953
 Job cpu time:       0 days  0 hours  4 minutes 10.1 seconds.
 Elapsed time:       0 days  0 hours  0 minutes 11.5 seconds.
 File lengths (MBytes):  RWF=     11 Int=      0 D2E=      0 Chk=      8 Scr=      1
 Normal termination of Gaussian 16 at Tue Oct 26 13:21:17 2021.
