title                                                                   
SP        RMP2-FC                                                     Gen                 
Number of atoms                            I                4
Info1-9                                    I   N=           9
         144         135           0           0           0         110
           1           2           1
Charge                                     I               -1
Multiplicity                               I                1
Number of electrons                        I               36
Number of alpha electrons                  I               18
Number of beta electrons                   I               18
Number of basis functions                  I              191
Number of independent functions            I              147
Number of point charges in /Mol/           I                0
Number of translation vectors              I                0
Atomic numbers                             I   N=           4
           8           1          53           1
Nuclear charges                            R   N=           4
  8.00000000E+00  1.00000000E+00  2.50000000E+01  1.00000000E+00
Current cartesian coordinates              R   N=          12
  0.00000000E+00  0.00000000E+00  0.00000000E+00  1.81585239E+00  0.00000000E+00
  0.00000000E+00 -1.36243524E+00 -6.48861632E+00  0.00000000E+00 -5.24237045E-01
 -2.49668605E+00  0.00000000E+00
Force Field                                I                0
Int Atom Types                             I   N=           4
           0           0           0           0
MM charges                                 R   N=           4
  0.00000000E+00  0.00000000E+00  0.00000000E+00  0.00000000E+00
Integer atomic weights                     I   N=           4
          16           2         127           1
Real atomic weights                        R   N=           4
  1.59949146E+01  2.01410179E+00  1.26900400E+02  1.00782504E+00
Atom fragment info                         I   N=           4
           0           0           0           0
Atom residue num                           I   N=           4
           0           0           0           0
Nuclear spins                              I   N=           4
           0           2           5           1
Nuclear ZEff                               R   N=           4
 -5.60000000E+00 -1.00000000E+00 -5.83000000E+03 -1.00000000E+00
Nuclear ZNuc                               R   N=           4
  8.00000000E+00  1.00000000E+00  5.30000000E+01  1.00000000E+00
Nuclear QMom                               R   N=           4
  0.00000000E+00  2.86000000E-01 -7.10000000E+01  0.00000000E+00
Nuclear GFac                               R   N=           4
  0.00000000E+00  8.57438000E-01  2.81328000E+00  2.79284600E+00
MicOpt                                     I   N=           4
          -1          -1          -1          -1
Number of contracted shells                I               65
Number of primitive shells                 I              119
Pure/Cartesian d shells                    I                0
Pure/Cartesian f shells                    I                0
Highest angular momentum                   I                3
Largest degree of contraction              I                9
Shell types                                I   N=          65
           0           0           0           0           0           1
           1           1           1          -2          -2          -2
          -3          -3           0           0           0           0
           0           0           0           1           1           1
           1           1           1          -2          -2          -2
          -2           0           0           0           0           0
           0           1           1           1           1           1
          -2          -2          -2          -2          -3          -3
           0           0           0           0           0           0
           0           1           1           1           1           1
           1          -2          -2          -2          -2
Number of primitives per shell             I   N=          65
           7           6           1           1           1           3
           1           1           1           1           1           1
           1           1           3           1           1           1
           1           1           1           1           1           1
           1           1           1           1           1           1
           1           9           8           1           1           1
           1           8           8           1           1           1
           9           1           1           1           1           1
           3           1           1           1           1           1
           1           1           1           1           1           1
           1           1           1           1           1
Shell to atom map                          I   N=          65
           1           1           1           1           1           1
           1           1           1           1           1           1
           1           1           2           2           2           2
           2           2           2           2           2           2
           2           2           2           2           2           2
           2           3           3           3           3           3
           3           3           3           3           3           3
           3           3           3           3           3           3
           4           4           4           4           4           4
           4           4           4           4           4           4
           4           4           4           4           4
Primitive exponents                        R   N=         119
  1.53300000E+04  2.29900000E+03  5.22400000E+02  1.47300000E+02  4.75500000E+01
  1.67600000E+01  6.20700000E+00  5.22400000E+02  1.47300000E+02  4.75500000E+01
  1.67600000E+01  6.20700000E+00  6.88200000E-01  1.75200000E+00  2.38400000E-01
  7.37600000E-02  3.44600000E+01  7.74900000E+00  2.28000000E+00  7.15600000E-01
  2.14000000E-01  5.97400000E-02  2.31400000E+00  6.45000000E-01  2.14000000E-01
  1.42800000E+00  5.00000000E-01  3.38700000E+01  5.09500000E+00  1.15900000E+00
  3.25800000E-01  1.02700000E-01  2.52600000E-02  3.25800000E-01  1.02700000E-01
  2.52600000E-02  1.40700000E+00  3.88000000E-01  1.02000000E-01  1.40700000E+00
  3.88000000E-01  1.02000000E-01  1.05700000E+00  2.47000000E-01  1.05700000E+00
  2.47000000E-01  5.54650000E+03  8.38214000E+02  1.82187000E+02  3.12123000E+01
  1.95314000E+01  8.24099000E+00  2.19455000E+00  1.10911000E+00  8.10610000E-02
  5.54650000E+03  8.38214000E+02  3.12123000E+01  1.95314000E+01  8.24099000E+00
  2.19455000E+00  1.10911000E+00  8.10610000E-02  3.74641000E-01  1.77080000E-01
  1.00100000E-01  4.12000000E-02  1.88988000E+02  2.12868000E+01  1.00396000E+01
  3.45180000E+00  1.97456000E+00  1.02420000E+00  4.49437000E-01  7.34810000E-02
  1.88988000E+02  1.00396000E+01  3.45180000E+00  1.97456000E+00  1.02420000E+00
  4.49437000E-01  1.86648000E-01  7.34810000E-02  5.98100000E-01  9.61800000E-02
  3.59000000E-02  1.32662000E+02  3.76054000E+01  1.03891000E+01  6.49017000E+00
  3.45451000E+00  1.84413000E+00  9.62478000E-01  4.72853000E-01  1.93200000E-01
  4.72853000E-01  1.93200000E-01  7.82000000E-02  4.06400000E-01  1.84800000E-01
  3.38700000E+01  5.09500000E+00  1.15900000E+00  3.25800000E-01  1.02700000E-01
  2.52600000E-02  3.25800000E-01  1.02700000E-01  2.52600000E-02  1.40700000E+00
  3.88000000E-01  1.02000000E-01  1.40700000E+00  3.88000000E-01  1.02000000E-01
  1.05700000E+00  2.47000000E-01  1.05700000E+00  2.47000000E-01
Contraction coefficients                   R   N=         119
  5.19808943E-04  4.02025621E-03  2.07128267E-02  8.10105536E-02  2.35962985E-01
  4.42653446E-01  3.57064423E-01 -4.42115008E-05 -1.22591041E-03 -1.05517725E-02
 -6.74452633E-02 -1.71198607E-01  1.07329856E+00  1.00000000E+00  1.00000000E+00
  1.00000000E+00  4.11634896E-02  2.57762836E-01  8.02419274E-01  1.00000000E+00
  1.00000000E+00  1.00000000E+00  1.00000000E+00  1.00000000E+00  1.00000000E+00
  1.00000000E+00  1.00000000E+00  2.54948632E-02  1.90362766E-01  8.52162022E-01
  1.00000000E+00  1.00000000E+00  1.00000000E+00  1.00000000E+00  1.00000000E+00
  1.00000000E+00  1.00000000E+00  1.00000000E+00  1.00000000E+00  1.00000000E+00
  1.00000000E+00  1.00000000E+00  1.00000000E+00  1.00000000E+00  1.00000000E+00
  1.00000000E+00  1.58603022E-04  1.00211458E-03  2.83966410E-03 -4.40310212E-02
  2.38198152E-01 -7.63568980E-01  8.96516870E-01  4.68371203E-01  2.16251781E-03
 -2.17177846E-05 -2.59237305E-04 -1.50376554E-02  2.42214079E-02  6.99888661E-02
 -5.50491335E-01 -5.69654432E-01  3.76065139E-01  1.00000000E+00  1.00000000E+00
  1.00000000E+00  1.00000000E+00  5.85232173E-04  3.69335916E-02 -2.35399435E-01
  3.41625365E-01  5.34991615E-01  2.65244797E-01  2.54463150E-02  3.82802808E-04
 -6.76097015E-05  8.33123161E-03 -4.66496478E-02 -5.27406452E-02 -2.91398344E-02
  3.65650039E-01  5.48502805E-01  2.34644635E-01  1.00000000E+00  1.00000000E+00
  1.00000000E+00  5.72000072E-04  4.40200055E-03 -4.09220051E-02  9.96610125E-02
  3.22663040E-01  4.00343050E-01  2.68306034E-01  8.48470106E-02  7.63200096E-03
  1.00000000E+00  1.00000000E+00  1.00000000E+00  1.00000000E+00  1.00000000E+00
  2.54948632E-02  1.90362766E-01  8.52162022E-01  1.00000000E+00  1.00000000E+00
  1.00000000E+00  1.00000000E+00  1.00000000E+00  1.00000000E+00  1.00000000E+00
  1.00000000E+00  1.00000000E+00  1.00000000E+00  1.00000000E+00  1.00000000E+00
  1.00000000E+00  1.00000000E+00  1.00000000E+00  1.00000000E+00
Coordinates of each shell                  R   N=         195
  0.00000000E+00  0.00000000E+00  0.00000000E+00  0.00000000E+00  0.00000000E+00
  0.00000000E+00  0.00000000E+00  0.00000000E+00  0.00000000E+00  0.00000000E+00
  0.00000000E+00  0.00000000E+00  0.00000000E+00  0.00000000E+00  0.00000000E+00
  0.00000000E+00  0.00000000E+00  0.00000000E+00  0.00000000E+00  0.00000000E+00
  0.00000000E+00  0.00000000E+00  0.00000000E+00  0.00000000E+00  0.00000000E+00
  0.00000000E+00  0.00000000E+00  0.00000000E+00  0.00000000E+00  0.00000000E+00
  0.00000000E+00  0.00000000E+00  0.00000000E+00  0.00000000E+00  0.00000000E+00
  0.00000000E+00  0.00000000E+00  0.00000000E+00  0.00000000E+00  0.00000000E+00
  0.00000000E+00  0.00000000E+00  1.81585239E+00  0.00000000E+00  0.00000000E+00
  1.81585239E+00  0.00000000E+00  0.00000000E+00  1.81585239E+00  0.00000000E+00
  0.00000000E+00  1.81585239E+00  0.00000000E+00  0.00000000E+00  1.81585239E+00
  0.00000000E+00  0.00000000E+00  1.81585239E+00  0.00000000E+00  0.00000000E+00
  1.81585239E+00  0.00000000E+00  0.00000000E+00  1.81585239E+00  0.00000000E+00
  0.00000000E+00  1.81585239E+00  0.00000000E+00  0.00000000E+00  1.81585239E+00
  0.00000000E+00  0.00000000E+00  1.81585239E+00  0.00000000E+00  0.00000000E+00
  1.81585239E+00  0.00000000E+00  0.00000000E+00  1.81585239E+00  0.00000000E+00
  0.00000000E+00  1.81585239E+00  0.00000000E+00  0.00000000E+00  1.81585239E+00
  0.00000000E+00  0.00000000E+00  1.81585239E+00  0.00000000E+00  0.00000000E+00
  1.81585239E+00  0.00000000E+00  0.00000000E+00 -1.36243524E+00 -6.48861632E+00
  0.00000000E+00 -1.36243524E+00 -6.48861632E+00  0.00000000E+00 -1.36243524E+00
 -6.48861632E+00  0.00000000E+00 -1.36243524E+00 -6.48861632E+00  0.00000000E+00
 -1.36243524E+00 -6.48861632E+00  0.00000000E+00 -1.36243524E+00 -6.48861632E+00
  0.00000000E+00 -1.36243524E+00 -6.48861632E+00  0.00000000E+00 -1.36243524E+00
 -6.48861632E+00  0.00000000E+00 -1.36243524E+00 -6.48861632E+00  0.00000000E+00
 -1.36243524E+00 -6.48861632E+00  0.00000000E+00 -1.36243524E+00 -6.48861632E+00
  0.00000000E+00 -1.36243524E+00 -6.48861632E+00  0.00000000E+00 -1.36243524E+00
 -6.48861632E+00  0.00000000E+00 -1.36243524E+00 -6.48861632E+00  0.00000000E+00
 -1.36243524E+00 -6.48861632E+00  0.00000000E+00 -1.36243524E+00 -6.48861632E+00
  0.00000000E+00 -1.36243524E+00 -6.48861632E+00  0.00000000E+00 -5.24237045E-01
 -2.49668605E+00  0.00000000E+00 -5.24237045E-01 -2.49668605E+00  0.00000000E+00
 -5.24237045E-01 -2.49668605E+00  0.00000000E+00 -5.24237045E-01 -2.49668605E+00
  0.00000000E+00 -5.24237045E-01 -2.49668605E+00  0.00000000E+00 -5.24237045E-01
 -2.49668605E+00  0.00000000E+00 -5.24237045E-01 -2.49668605E+00  0.00000000E+00
 -5.24237045E-01 -2.49668605E+00  0.00000000E+00 -5.24237045E-01 -2.49668605E+00
  0.00000000E+00 -5.24237045E-01 -2.49668605E+00  0.00000000E+00 -5.24237045E-01
 -2.49668605E+00  0.00000000E+00 -5.24237045E-01 -2.49668605E+00  0.00000000E+00
 -5.24237045E-01 -2.49668605E+00  0.00000000E+00 -5.24237045E-01 -2.49668605E+00
  0.00000000E+00 -5.24237045E-01 -2.49668605E+00  0.00000000E+00 -5.24237045E-01
 -2.49668605E+00  0.00000000E+00 -5.24237045E-01 -2.49668605E+00  0.00000000E+00
Constraint Structure                       R   N=          12
  0.00000000E+00  0.00000000E+00  0.00000000E+00  1.81585239E+00  0.00000000E+00
  0.00000000E+00 -1.36243524E+00 -6.48861632E+00  0.00000000E+00 -5.24237045E-01
 -2.49668605E+00  0.00000000E+00
Num ILSW                                   I              100
ILSW                                       I   N=         100
           0           0           0           0           2           0
           0           0           0           0           0          -1
           0           0           0           0           0           0
           0           0           0           0           0           0
           1           1           0           0           0           0
           0           0      100000           0          -1           0
           0           0           0           0           0           0
           0           0           0           1           0           0
           0           0           1           0           0           0
           0           0           4          41           0           0
           0           0           0           0           0           0
           0           0           0           4           0           0
           0           0           0           0           0           0
           0           0           0           0           0           0
           0           0           0           0           0           0
           0           0           0           0           0           0
           0           0           0           0
Num RLSW                                   I               41
RLSW                                       R   N=          41
  1.00000000E+00  1.00000000E+00  1.00000000E+00  1.00000000E+00  1.00000000E+00
  0.00000000E+00  0.00000000E+00  1.00000000E+00  0.00000000E+00  0.00000000E+00
  0.00000000E+00  0.00000000E+00  1.00000000E+00  0.00000000E+00  0.00000000E+00
  0.00000000E+00  0.00000000E+00  1.00000000E+00  0.00000000E+00  0.00000000E+00
  0.00000000E+00  0.00000000E+00  1.00000000E+00  0.00000000E+00  0.00000000E+00
  0.00000000E+00  0.00000000E+00  1.00000000E+00  0.00000000E+00  0.00000000E+00
  0.00000000E+00  0.00000000E+00  1.00000000E+00  0.00000000E+00  0.00000000E+00
  0.00000000E+00  0.00000000E+00  0.00000000E+00  1.00000000E+00  1.00000000E+00
  0.00000000E+00
ECP-MxAtEC                                 I           250000
ECP-MaxLECP                                I               10
ECP-MaxAtL                                 I          2250000
ECP-MxTECP                                 I         11250000
ECP-LenNCZ                                 I               16
ECP-KFirst                                 I   N=          40
           0           0           1           0           0           0
           2           0           0           0           5           0
           0           0           9           0           0           0
          13           0           0           0           0           0
           0           0           0           0           0           0
           0           0           0           0           0           0
           0           0           0           0
ECP-KLast                                  I   N=          40
           0           0           1           0           0           0
           4           0           0           0           8           0
           0           0          12           0           0           0
          16           0           0           0           0           0
           0           0           0           0           0           0
           0           0           0           0           0           0
           0           0           0           0
ECP-LMax                                   I   N=           4
           0           0           4           0
ECP-LPSkip                                 I   N=           4
           1           1           0           1
ECP-RNFroz                                 R   N=           4
  0.00000000E+00  0.00000000E+00  2.80000000E+01  0.00000000E+00
ECP-NLP                                    I   N=          16
           2           2           2           2           2           2
           2           2           2           2           2           2
           2           2           2           2
ECP-CLP1                                   R   N=          16
  0.00000000E+00  4.99896490E+01  2.81006556E+02  6.14167390E+01  6.74162390E+01
  1.34807696E+02  1.45665480E+01  2.89684220E+01  3.55387560E+01  5.33397590E+01
  9.71646600E+00  1.49775000E+01 -2.01766180E+01 -2.60880770E+01 -2.20434000E-01
 -2.21646000E-01
ECP-CLP2                                   R   N=          16
  0.00000000E+00  0.00000000E+00  0.00000000E+00  0.00000000E+00  0.00000000E+00
  0.00000000E+00  0.00000000E+00  0.00000000E+00  0.00000000E+00  0.00000000E+00
  0.00000000E+00  0.00000000E+00  0.00000000E+00  0.00000000E+00  0.00000000E+00
  0.00000000E+00
ECP-ZLP                                    R   N=          16
  1.00000000E+00  4.00333760E+01  1.73005760E+01  8.85172000E+00  1.57201410E+01
  1.52082220E+01  8.29418600E+00  7.75394900E+00  1.38177510E+01  1.35878050E+01
  6.94763000E+00  6.96009900E+00  1.85229500E+01  1.82510350E+01  7.55790100E+00
  7.59740400E+00
MxBond                                     I                1
NBond                                      I   N=           4
           1           1           0           0
IBond                                      I   N=           4
           2           1           0           0
RBond                                      R   N=           4
  1.00000000E+00  1.00000000E+00  0.00000000E+00  0.00000000E+00
Virial Ratio                               R      2.987565459238189E+00
SCF Energy                                 R     -3.707532216159639E+02
MP2 Energy                                 R     -3.712707146406074E+02
Total Energy                               R     -3.712707146406074E+02
Post-SCF wavefunction norm                 R      1.082775928943224E+00
RMS Density                                R      5.468800697534502E-09
Job Status                                 I                1
Nuclear derivative order                   I                0
External E-field                           R   N=          35
  0.00000000E+00  0.00000000E+00  0.00000000E+00  0.00000000E+00  0.00000000E+00
  0.00000000E+00  0.00000000E+00  0.00000000E+00  0.00000000E+00  0.00000000E+00
  0.00000000E+00  0.00000000E+00  0.00000000E+00  0.00000000E+00  0.00000000E+00
  0.00000000E+00  0.00000000E+00  0.00000000E+00  0.00000000E+00  0.00000000E+00
  0.00000000E+00  0.00000000E+00  0.00000000E+00  0.00000000E+00  0.00000000E+00
  0.00000000E+00  0.00000000E+00  0.00000000E+00  0.00000000E+00  0.00000000E+00
  0.00000000E+00  0.00000000E+00  0.00000000E+00  0.00000000E+00  0.00000000E+00
IOpCl                                      I                0
IROHF                                      I                0
Alpha Orbital Energies                     R   N=         147
 -2.03641484E+01 -7.49146821E+00 -5.31792364E+00 -5.31632068E+00 -5.31626622E+00
 -2.04567747E+00 -2.04482083E+00 -2.04476017E+00 -2.04301305E+00 -2.04301270E+00
 -1.08884029E+00 -6.55740424E-01 -4.39548039E-01 -3.50955071E-01 -2.88787482E-01
 -1.68629013E-01 -1.63734522E-01 -1.63257044E-01  1.41704466E-01  1.69411739E-01
  2.29087582E-01  2.41599386E-01  2.44811247E-01  2.78987481E-01  2.99170647E-01
  3.04458366E-01  3.14483967E-01  3.42619808E-01  3.63103567E-01  3.64724817E-01
  3.66996949E-01  3.91658544E-01  3.96159572E-01  4.34299323E-01  4.47451045E-01
  4.74743441E-01  4.94012031E-01  5.52769717E-01  5.76336496E-01  6.10773162E-01
  6.66805881E-01  7.14713285E-01  7.59375723E-01  7.60117227E-01  7.65379238E-01
  7.80718143E-01  7.81520266E-01  7.89648231E-01  8.14753327E-01  8.28430455E-01
  8.47914662E-01  8.61569271E-01  8.65068993E-01  8.66571421E-01  8.71729163E-01
  9.08346057E-01  9.14820171E-01  9.34346889E-01  9.57291388E-01  9.79263739E-01
  1.04174973E+00  1.06914662E+00  1.08664734E+00  1.12130300E+00  1.13111109E+00
  1.13271517E+00  1.17578173E+00  1.19234666E+00  1.21323823E+00  1.22943362E+00
  1.27882932E+00  1.36926112E+00  1.37477947E+00  1.47184662E+00  1.49363321E+00
  1.51302901E+00  1.59813396E+00  1.64741850E+00  1.72548144E+00  1.72996452E+00
  1.73195543E+00  1.73624083E+00  1.74570514E+00  1.75155355E+00  1.78730276E+00
  1.82459488E+00  1.86184594E+00  1.90743496E+00  1.99585793E+00  2.03724669E+00
  2.03922027E+00  2.04273415E+00  2.07601351E+00  2.11343341E+00  2.15548140E+00
  2.32965928E+00  2.43240241E+00  2.48450807E+00  2.56088453E+00  2.57588084E+00
  2.61203136E+00  2.61823719E+00  2.72552278E+00  2.77022882E+00  2.88328677E+00
  2.90988018E+00  2.98135654E+00  3.00839712E+00  3.24775679E+00  3.36418089E+00
  3.36604022E+00  3.54544837E+00  3.88196673E+00  4.13682506E+00  4.16369677E+00
  4.28750336E+00  4.28777155E+00  4.32887373E+00  4.39647855E+00  4.46215623E+00
  4.53929984E+00  4.58374571E+00  4.60383910E+00  4.67759948E+00  4.77999800E+00
  4.82639168E+00  5.02426339E+00  5.15821011E+00  5.40898801E+00  5.54945809E+00
  5.56562849E+00  6.20099236E+00  6.54058805E+00  6.90425517E+00  6.98928872E+00
  7.05060284E+00  7.20121736E+00  7.42658710E+00  7.46161171E+00  7.53326582E+00
  7.54025416E+00  7.57994310E+00  7.76183125E+00  7.95862592E+00  8.45683887E+00
  1.45026165E+01  5.91963716E+01
Alpha MO coefficients                      R   N=       28077
  9.76863658E-01 -8.99130786E-03  4.33390057E-02  1.48287134E-03  1.00289647E-03
  1.33545313E-03 -8.64752321E-04  1.91080298E-16 -1.22349455E-03  8.33265613E-04
  1.60459039E-17 -8.29296909E-05 -1.48630513E-04  8.74508617E-16 -2.59593471E-06
 -3.68051760E-04  1.99595165E-16 -1.82953629E-05  9.95686327E-16  4.77930394E-16
  7.57195144E-05  1.67785851E-06  4.72907886E-04 -9.40668660E-16 -1.76051864E-16
 -2.28647046E-04 -1.83065913E-04  1.00803620E-05  3.01457216E-17 -1.32291354E-15
  1.82669961E-04 -1.59202870E-04  6.10755142E-16  1.64522616E-05 -1.21291495E-05
 -2.43419771E-16 -1.06265989E-16 -1.31123005E-05 -3.91576333E-06 -5.42139960E-16
  4.60296087E-05 -4.99250980E-05 -2.77354545E-16  8.46522057E-17 -1.67540501E-04
 -8.61083195E-05  5.28019599E-04  7.00831209E-04  8.94724127E-05 -7.99661815E-06
  7.00831209E-04  8.94724127E-05 -7.99661815E-06 -1.23665871E-04 -6.37689880E-06
  4.92622618E-16 -5.46785885E-04  8.56471092E-05 -2.01325848E-16 -1.39171678E-04
  8.69030806E-05  8.21299352E-16 -1.23665871E-04 -6.37689880E-06 -1.88091591E-16
 -5.46785885E-04  8.56471092E-05  3.21263897E-16 -1.39171678E-04  8.69030806E-05
 -6.18154431E-16  2.16379484E-05 -1.10307029E-16 -9.99278889E-16 -4.12845383E-05
  3.19291305E-06 -1.17687426E-04  4.12381045E-16 -2.70283204E-16  2.37000074E-04
 -6.25816217E-05  2.16379484E-05 -1.35798555E-16  9.76943145E-16 -4.12845383E-05
  3.19291305E-06 -1.17687426E-04 -6.88588071E-16  4.82079409E-16  2.37000074E-04
 -6.25816217E-05  2.23488696E-06  1.43062070E-06  1.11572676E-04  7.82375775E-04
 -3.48040476E-03 -9.20870195E-04 -2.13104235E-05 -1.08143923E-04 -4.34972274E-16
 -1.23625625E-04 -6.53428480E-04 -2.17059254E-15  5.60403421E-05  2.74438294E-04
  1.22258076E-15 -5.24982457E-04 -2.12408448E-03  1.51615951E-15 -5.47352752E-05
 -2.29517650E-04 -2.15697415E-16  1.50274236E-06 -1.26780580E-16 -3.00780694E-18
  8.48366534E-08 -2.10480508E-06 -2.11088250E-05  1.89045683E-16  6.16009360E-17
 -2.11660230E-05  2.17463141E-05  3.09393535E-04 -1.65876972E-16 -5.61001614E-16
  4.54780174E-04 -2.42108770E-04  2.72898241E-04 -4.11030519E-17  2.29247573E-16
  4.42245277E-04 -2.40906666E-04 -3.73315448E-18  7.12963971E-06  3.32837899E-05
  7.08928956E-17  3.57191691E-17  1.49989952E-05  3.17461306E-05  1.89277265E-16
  1.98322546E-05  6.28345982E-05  1.50207306E-16 -1.49686702E-16  8.71525611E-05
  5.81012689E-05 -1.09517011E-04  2.74269999E-04  1.17781103E-03  1.48327252E-04
  2.74269999E-04  1.17781103E-03  1.48327252E-04  7.16611370E-06  3.93774065E-05
  5.32073573E-17  4.39615560E-05  3.45279952E-04 -4.43826968E-16 -2.62266218E-04
 -1.67825988E-03 -1.85254674E-16  7.16611370E-06  3.93774065E-05  5.32073573E-17
  4.39615560E-05  3.45279952E-04 -4.43826968E-16 -2.62266218E-04 -1.67825988E-03
 -4.48996709E-16 -5.66639106E-05 -1.43962823E-17 -3.08780939E-17 -9.72016956E-05
  3.48044469E-05 -2.04255991E-04 -1.51411052E-16 -3.73896129E-16 -3.17750476E-04
  1.13003232E-04 -5.66639106E-05 -8.23841999E-18 -3.54567276E-17 -9.72016956E-05
  3.48044469E-05 -2.04255991E-04 -1.67523287E-16 -9.37794699E-16 -3.17750476E-04
  1.13003232E-04  4.34153154E-06  6.84428986E-06 -4.70006622E-06  1.04826431E-04
  9.12925030E-05  2.89321983E-06  1.12599737E-05 -9.55970007E-16 -1.18204904E-05
 -2.41696332E-05  2.57049450E-15  5.14008467E-05  4.88855382E-05 -9.41636722E-15
  5.39675506E-05 -3.51270613E-05 -2.08411926E-15 -7.32679520E-08 -4.07292553E-18
  4.59505068E-16 -6.66615917E-08 -6.86209674E-07 -7.08744010E-07 -2.71557640E-17
 -6.53714169E-16 -4.11228741E-06  6.82741860E-06  1.18358528E-05 -3.21119233E-15
  1.79987961E-15  5.62908695E-05 -1.35331451E-05 -1.44938171E-16  1.29900411E-06
  2.79241244E-06  3.78502616E-16  2.06418493E-16  6.02743056E-07  2.12139795E-06
  3.43583010E-16 -4.08106789E-06 -1.08978993E-05 -2.45412192E-16 -2.91930927E-16
 -2.27192964E-06 -3.72587599E-06 -2.90201510E-07 -1.78884487E-05 -4.07770953E-05
 -5.91290327E-05 -1.78884487E-05 -4.07770953E-05 -5.91290327E-05 -6.49350675E-07
  5.24730625E-07 -1.12532659E-15 -1.49930412E-06 -8.82397306E-06  1.86703139E-15
  2.87080767E-06  1.56938006E-07  3.71214829E-15 -6.49350675E-07  5.24730625E-07
  1.18683581E-16 -1.49930412E-06 -8.82397306E-06  2.32066161E-15  2.87080767E-06
  1.56938005E-07  1.59270525E-15 -4.23407579E-07  6.96782213E-16  4.87692401E-16
  3.76058588E-07  1.37807934E-06 -3.44676491E-06 -1.86518968E-15 -5.10904311E-16
  2.92409182E-06 -4.46333298E-07 -4.23407579E-07  3.00257068E-16 -3.58938903E-16
  3.76058588E-07  1.37807934E-06 -3.44676491E-06 -1.71787174E-15  1.67337860E-16
  2.92409183E-06 -4.46333297E-07  9.83168292E-01 -2.61574715E-03  2.29028106E-02
 -5.95018267E-03  1.84138479E-03 -8.20197256E-04  1.76727721E-04  6.26053626E-04
  4.72858177E-16 -1.42437342E-05 -4.97809337E-05  8.98196750E-17  3.65566947E-05
  1.40078556E-04  8.03645107E-17  3.23179392E-05  1.49860057E-04 -3.88182540E-16
 -1.52717009E-05 -1.22090173E-04 -3.90157163E-17 -1.51770924E-04 -1.00360924E-16
 -8.69430701E-17 -2.21530397E-04  1.07701386E-04 -1.49952179E-05  3.23421744E-16
  2.82725610E-16 -2.20258336E-05  1.09123624E-05  3.75716573E-07  4.51013647E-17
 -6.95630822E-16 -4.66974988E-06 -1.89162074E-06 -7.59176703E-06 -4.62580938E-16
 -7.47734168E-17 -4.18509123E-06  8.84879015E-06 -2.71533722E-16  1.21019577E-06
  4.50926802E-06 -6.70321506E-17  2.78419992E-16  3.02986138E-06  3.02470297E-06
  4.54982934E-16 -2.63139660E-06 -1.05821000E-05  1.29956207E-16 -5.17613972E-16
 -7.14770863E-06 -8.22696729E-06  2.11885268E-05  6.34804672E-05 -1.44501183E-04
  1.72416352E-04  6.34804672E-05 -1.44501183E-04  1.72416352E-04 -8.39497499E-07
 -2.69151063E-06 -1.14153691E-16 -1.77125117E-06 -1.49287766E-05  5.25349941E-16
 -8.33083819E-06  8.94322296E-06  6.94233898E-16 -8.39497499E-07 -2.69151063E-06
 -1.14153691E-16 -1.77125117E-06 -1.49287766E-05  5.25349941E-16 -8.33083819E-06
  8.94322296E-06  7.87538604E-16  4.89979303E-07 -8.74415543E-17 -3.59864630E-17
  1.55517400E-06 -1.70492533E-07  2.28574243E-05  1.75684895E-16  3.99668267E-16
  3.33970841E-05 -1.77265856E-05  4.89979303E-07 -8.39748065E-17 -5.33423526E-17
  1.55517400E-06 -1.70492533E-07  2.28574243E-05  1.62164436E-16  3.41589440E-16
  3.33970841E-05 -1.77265856E-05  6.10639010E-06 -6.23806668E-06 -6.76796523E-06
  1.11868460E-04  1.25661806E-04  3.18364618E-06  1.91826836E-05 -4.63977862E-16
  1.72356118E-06  4.67893789E-06  5.38866993E-16  6.18089529E-05 -2.54500998E-05
 -8.79496496E-15  2.30540956E-05 -3.60480936E-05 -2.57104863E-15  7.56240009E-07
 -1.41879300E-16 -1.61210021E-16  5.43148029E-07 -3.89976795E-07 -3.78093989E-06
 -7.93180697E-16 -2.42492375E-16  2.68675910E-06  3.71937316E-06 -2.80509872E-05
 -3.65849423E-15  1.75548663E-15 -4.85721334E-06  1.77013605E-05 -9.68063723E-16
  2.52307239E-07 -9.92327794E-07  7.62513970E-16 -4.27366809E-16 -8.73186363E-07
 -1.03821359E-06  1.51612395E-15 -2.69301294E-06  3.55454894E-06 -9.10361853E-16
  2.05476440E-16  6.55980851E-06  7.67685601E-06  1.55297395E-07 -3.48959313E-05
 -7.56740762E-05 -1.59783427E-05 -3.48959313E-05 -7.56740762E-05 -1.59783427E-05
  5.56623011E-07 -3.53475882E-07  1.04278400E-16  8.69910748E-06 -3.85204546E-06
  1.52431190E-15  1.90429374E-05 -1.50580275E-06  3.26662957E-15  5.56623016E-07
 -3.53475882E-07 -9.41088900E-16  8.69910748E-06 -3.85204546E-06  4.02438322E-15