 Entering Gaussian System, Link 0=g09
 Input=ihod_rOH_085_sp.gjf
 Output=ihod_rOH_085_sp.log
 Initial command:
 /usr/local/gaussian/g09/l1.exe "/scratch/Gau-684.inp" -scrdir="/scratch/"
 Entering Link 1 = /usr/local/gaussian/g09/l1.exe PID=       685.
  
 Copyright (c) 1988,1990,1992,1993,1995,1998,2003,2009,2015,
            Gaussian, Inc.  All Rights Reserved.
  
 This is part of the Gaussian(R) 09 program.  It is based on
 the Gaussian(R) 03 system (copyright 2003, Gaussian, Inc.),
 the Gaussian(R) 98 system (copyright 1998, Gaussian, Inc.),
 the Gaussian(R) 94 system (copyright 1995, Gaussian, Inc.),
 the Gaussian 92(TM) system (copyright 1992, Gaussian, Inc.),
 the Gaussian 90(TM) system (copyright 1990, Gaussian, Inc.),
 the Gaussian 88(TM) system (copyright 1988, Gaussian, Inc.),
 the Gaussian 86(TM) system (copyright 1986, Carnegie Mellon
 University), and the Gaussian 82(TM) system (copyright 1983,
 Carnegie Mellon University). Gaussian is a federally registered
 trademark of Gaussian, Inc.
  
 This software contains proprietary and confidential information,
 including trade secrets, belonging to Gaussian, Inc.
  
 This software is provided under written license and may be
 used, copied, transmitted, or stored only in accord with that
 written license.
  
 The following legend is applicable only to US Government
 contracts under FAR:
  
                    RESTRICTED RIGHTS LEGEND
  
 Use, reproduction and disclosure by the US Government is
 subject to restrictions as set forth in subparagraphs (a)
 and (c) of the Commercial Computer Software - Restricted
 Rights clause in FAR 52.227-19.
  
 Gaussian, Inc.
 340 Quinnipiac St., Bldg. 40, Wallingford CT 06492
  
  
 ---------------------------------------------------------------
 Warning -- This program may not be used in any manner that
 competes with the business of Gaussian, Inc. or will provide
 assistance to any competitor of Gaussian, Inc.  The licensee
 of this program is prohibited from giving any competitor of
 Gaussian, Inc. access to this program.  By using this program,
 the user acknowledges that Gaussian, Inc. is engaged in the
 business of creating and licensing software in the field of
 computational chemistry and represents and warrants to the
 licensee that it is not a competitor of Gaussian, Inc. and that
 it will not use this program in any manner prohibited above.
 ---------------------------------------------------------------
  

 Cite this work as:
 Gaussian 09, Revision E.01,
 M. J. Frisch, G. W. Trucks, H. B. Schlegel, G. E. Scuseria, 
 M. A. Robb, J. R. Cheeseman, G. Scalmani, V. Barone, B. Mennucci, 
 G. A. Petersson, H. Nakatsuji, M. Caricato, X. Li, H. P. Hratchian, 
 A. F. Izmaylov, J. Bloino, G. Zheng, J. L. Sonnenberg, M. Hada, 
 M. Ehara, K. Toyota, R. Fukuda, J. Hasegawa, M. Ishida, T. Nakajima, 
 Y. Honda, O. Kitao, H. Nakai, T. Vreven, J. A. Montgomery, Jr., 
 J. E. Peralta, F. Ogliaro, M. Bearpark, J. J. Heyd, E. Brothers, 
 K. N. Kudin, V. N. Staroverov, T. Keith, R. Kobayashi, J. Normand, 
 K. Raghavachari, A. Rendell, J. C. Burant, S. S. Iyengar, J. Tomasi, 
 M. Cossi, N. Rega, J. M. Millam, M. Klene, J. E. Knox, J. B. Cross, 
 V. Bakken, C. Adamo, J. Jaramillo, R. Gomperts, R. E. Stratmann, 
 O. Yazyev, A. J. Austin, R. Cammi, C. Pomelli, J. W. Ochterski, 
 R. L. Martin, K. Morokuma, V. G. Zakrzewski, G. A. Voth, 
 P. Salvador, J. J. Dannenberg, S. Dapprich, A. D. Daniels, 
 O. Farkas, J. B. Foresman, J. V. Ortiz, J. Cioslowski, 
 and D. J. Fox, Gaussian, Inc., Wallingford CT, 2013.
 
 ******************************************
 Gaussian 09:  ES64L-G09RevE.01 30-Nov-2015
                12-Oct-2021 
 ******************************************
 %nproc=12
 Will use up to   12 processors via shared memory.
 %mem=8000MB
 %chk=/home/netid.washington.edu/cgavinh/mccoy_hocl/rOH_s_oop_0/ihod/ihod_rOH_085
 _sp.chk
 --------------------------------------------------------
 #p pop=NBO SP NoSymm mp2/gen Pseudo=read density=current
 --------------------------------------------------------
 1/30=1,38=1/1;
 2/12=2,15=1,17=6,18=5,40=1/2;
 3/5=7,11=9,16=1,17=8,25=1,30=1,71=1/1,2,3;
 4//1;
 5/5=2,38=5/2;
 8/6=4,10=1/1;
 9/15=1,16=-3/6;
 10/5=1,13=10,31=1/2;
 6/7=2,8=2,9=2,10=2,22=-1,40=1/1,7;
 99/5=1,9=1/99;
 Leave Link    1 at Tue Oct 12 16:21:29 2021, MaxMem=  1048576000 cpu:         0.2
 (Enter /usr/local/gaussian/g09/l101.exe)
 -----
 title
 -----
 Symbolic Z-matrix:
 Charge = -1 Multiplicity = 1
 O
 X                    1     10. 
 H(iso=2)             1    r1       2     90. 
 I                    1    r2       2     90.      3    a1       0
 H                    1    r3       2    oop      3    a1       0
       Variables:
  r1                    0.96091                  
  r2                    3.5085                   
  r3                    0.85                     
  a1                  101.85831                  
  OOP                  90.                       
 
 NAtoms=      4 NQM=        4 NQMF=       0 NMMI=      0 NMMIF=      0
                NMic=       0 NMicF=      0.
                    Isotopes and Nuclear Properties:
 (Nuclear quadrupole moments (NQMom) in fm**2, nuclear magnetic moments (NMagM)
  in nuclear magnetons)

  Atom         1           2           3           4
 IAtWgt=          16           2         127           1
 AtmWgt=  15.9949146   2.0141018 126.9004000   1.0078250
 NucSpn=           0           2           5           1
 AtZEff=   0.0000000   0.0000000   0.0000000   0.0000000
 NQMom=    0.0000000   0.2860000 -71.0000000   0.0000000
 NMagM=    0.0000000   0.8574380   2.8132800   2.7928460
 AtZNuc=   8.0000000   1.0000000  53.0000000   1.0000000
 Leave Link  101 at Tue Oct 12 16:21:29 2021, MaxMem=  1048576000 cpu:         0.4
 (Enter /usr/local/gaussian/g09/l202.exe)
                          Input orientation:                          
 ---------------------------------------------------------------------
 Center     Atomic      Atomic             Coordinates (Angstroms)
 Number     Number       Type             X           Y           Z
 ---------------------------------------------------------------------
      1          8           0        0.000000    0.000000    0.000000
      2          1           0        0.960908    0.000000    0.000000
      3         53           0       -0.720970   -3.433628    0.000000
      4          1           0       -0.174668   -0.831860    0.000000
 ---------------------------------------------------------------------
                    Distance matrix (angstroms):
                    1          2          3          4
     1  O    0.000000
     2  H    0.960908   0.000000
     3  I    3.508504   3.823416   0.000000
     4  H    0.850000   1.407666   2.658504   0.000000
 Symmetry turned off by external request.
 Stoichiometry    H2IO(1-)
 Framework group  CS[SG(H2IO)]
 Deg. of freedom     5
 Full point group                 CS      NOp   2
 Rotational constants (GHZ):    322.5280202      2.5046561      2.4853555
 Leave Link  202 at Tue Oct 12 16:21:29 2021, MaxMem=  1048576000 cpu:         0.0
 (Enter /usr/local/gaussian/g09/l301.exe)
 General basis read from cards:  (5D, 7F)
 Centers:       2      4      1      2      4
 aug-cc-pVTZ
 ****
 Centers:       3
 S 11 1.00
     Exponent=  5.5465000000D+03 Coefficients=  1.5600000000D-04
     Exponent=  8.3821400000D+02 Coefficients=  9.8600000000D-04
     Exponent=  1.8218700000D+02 Coefficients=  2.7920000000D-03
     Exponent=  3.1212300000D+01 Coefficients= -4.3251000000D-02
     Exponent=  1.9531400000D+01 Coefficients=  2.3413400000D-01
     Exponent=  8.2409900000D+00 Coefficients= -7.5094300000D-01
     Exponent=  2.1945500000D+00 Coefficients=  8.8296800000D-01
     Exponent=  1.1091100000D+00 Coefficients=  4.6206100000D-01
     Exponent=  3.7464100000D-01 Coefficients=  2.2286000000D-02
     Exponent=  1.7708000000D-01 Coefficients= -4.3530000000D-03
     Exponent=  8.1061000000D-02 Coefficients=  1.1020000000D-03
 S 11 1.00
     Exponent=  5.5465000000D+03 Coefficients= -7.3000000000D-05
     Exponent=  8.3821400000D+02 Coefficients= -5.0800000000D-04
     Exponent=  1.8218700000D+02 Coefficients= -1.1580000000D-03
     Exponent=  3.1212300000D+01 Coefficients=  1.2193000000D-02
     Exponent=  1.9531400000D+01 Coefficients= -8.7854000000D-02
     Exponent=  8.2409900000D+00 Coefficients=  3.3820000000D-01
     Exponent=  2.1945500000D+00 Coefficients= -5.7655000000D-01
     Exponent=  1.1091100000D+00 Coefficients= -4.0929800000D-01
     Exponent=  3.7464100000D-01 Coefficients=  5.6745900000D-01
     Exponent=  1.7708000000D-01 Coefficients=  6.1248900000D-01
     Exponent=  8.1061000000D-02 Coefficients=  1.4323100000D-01
 S 1 1.00
     Exponent=  3.7464100000D-01 Coefficients=  1.0000000000D+00
 S 1 1.00
     Exponent=  1.7708000000D-01 Coefficients=  1.0000000000D+00
 S 1 1.00
     Exponent=  1.0010000000D-01 Coefficients=  1.0000000000D+00
 S 1 1.00
     Exponent=  4.1200000000D-02 Coefficients=  1.0000000000D+00
 P 9 1.00
     Exponent=  1.8898800000D+02 Coefficients=  5.8500000000D-04
     Exponent=  2.1286800000D+01 Coefficients=  3.6923000000D-02
     Exponent=  1.0039600000D+01 Coefficients= -2.3532400000D-01
     Exponent=  3.4518000000D+00 Coefficients=  3.4148300000D-01
     Exponent=  1.9745600000D+00 Coefficients=  5.3478800000D-01
     Exponent=  1.0242000000D+00 Coefficients=  2.6514100000D-01
     Exponent=  4.4943700000D-01 Coefficients=  2.5787000000D-02
     Exponent=  1.8664800000D-01 Coefficients=  5.2200000000D-04
     Exponent=  7.3481000000D-02 Coefficients=  6.0600000000D-04
 P 9 1.00
     Exponent=  1.8898800000D+02 Coefficients= -2.5600000000D-04
     Exponent=  2.1286800000D+01 Coefficients= -1.1682000000D-02
     Exponent=  1.0039600000D+01 Coefficients=  8.3192000000D-02
     Exponent=  3.4518000000D+00 Coefficients= -1.5697000000D-01
     Exponent=  1.9745600000D+00 Coefficients= -2.2451800000D-01
     Exponent=  1.0242000000D+00 Coefficients= -1.1445100000D-01
     Exponent=  4.4943700000D-01 Coefficients=  3.7535600000D-01
     Exponent=  1.8664800000D-01 Coefficients=  5.7513600000D-01
     Exponent=  7.3481000000D-02 Coefficients=  2.4591700000D-01
 P 1 1.00
     Exponent=  5.9810000000D-01 Coefficients=  1.0000000000D+00
 P 1 1.00
     Exponent=  9.6180000000D-02 Coefficients=  1.0000000000D+00
 P 1 1.00
     Exponent=  3.5900000000D-02 Coefficients=  1.0000000000D+00
 D 9 1.00
     Exponent=  1.3266200000D+02 Coefficients=  5.7200000000D-04
     Exponent=  3.7605400000D+01 Coefficients=  4.4020000000D-03
     Exponent=  1.0389100000D+01 Coefficients= -4.0922000000D-02
     Exponent=  6.4901700000D+00 Coefficients=  9.9661000000D-02
     Exponent=  3.4545100000D+00 Coefficients=  3.2266300000D-01
     Exponent=  1.8441300000D+00 Coefficients=  4.0034300000D-01
     Exponent=  9.6247800000D-01 Coefficients=  2.6830600000D-01
     Exponent=  4.7285300000D-01 Coefficients=  8.4847000000D-02
     Exponent=  1.9320000000D-01 Coefficients=  7.6320000000D-03
 D 1 1.00
     Exponent=  4.7285300000D-01 Coefficients=  1.0000000000D+00
 D 1 1.00
     Exponent=  1.9320000000D-01 Coefficients=  1.0000000000D+00
 D 1 1.00
     Exponent=  7.8200000000D-02 Coefficients=  1.0000000000D+00
 F 1 1.00
     Exponent=  4.0640000000D-01 Coefficients=  1.0000000000D+00
 F 1 1.00
     Exponent=  1.8480000000D-01 Coefficients=  1.0000000000D+00
 ****
 ======================================================================================================
                                       Pseudopotential Parameters
 ======================================================================================================
  Center     Atomic      Valence      Angular      Power
  Number     Number     Electrons     Momentum     of R      Exponent        Coefficient   SO-Coeffient
 ======================================================================================================
    1          8
                                   No pseudopotential on this center.
    2          1
                                   No pseudopotential on this center.
    3         53           25
                                      G and up 
                                                     2        1.0000000        0.00000000    0.00000000
                                      S - G
                                                     2       40.0333760       49.98964900    0.00000000
                                                     2       17.3005760      281.00655600    0.00000000
                                                     2        8.8517200       61.41673900    0.00000000
                                      P - G
                                                     2       15.7201410       67.41623900    0.00000000
                                                     2       15.2082220      134.80769600    0.00000000
                                                     2        8.2941860       14.56654800    0.00000000
                                                     2        7.7539490       28.96842200    0.00000000
                                      D - G
                                                     2       13.8177510       35.53875600    0.00000000
                                                     2       13.5878050       53.33975900    0.00000000
                                                     2        6.9476300        9.71646600    0.00000000
                                                     2        6.9600990       14.97750000    0.00000000
                                      F - G
                                                     2       18.5229500      -20.17661800    0.00000000
                                                     2       18.2510350      -26.08807700    0.00000000
                                                     2        7.5579010       -0.22043400    0.00000000
                                                     2        7.5974040       -0.22164600    0.00000000
    4          1
                                   No pseudopotential on this center.
 ======================================================================================================
 Ernie: Thresh=  0.10000D-02 Tol=  0.10000D-05 Strict=F.
 Ernie:  16 primitive shells out of 135 were deleted.
   191 basis functions,   344 primitive gaussians,   218 cartesian basis functions
    18 alpha electrons       18 beta electrons
       nuclear repulsion energy        48.3638452717 Hartrees.
 IExCor=    0 DFT=F Ex=HF Corr=None ExCW=0 ScaHFX=  1.000000
 ScaDFX=  1.000000  1.000000  1.000000  1.000000 ScalE2=  1.000000  1.000000
 IRadAn=      0 IRanWt=     -1 IRanGd=            0 ICorTp=0 IEmpDi=  4
 NAtoms=    4 NActive=    4 NUniq=    4 SFac= 1.00D+00 NAtFMM=   60 NAOKFM=F Big=F
 Integral buffers will be    131072 words long.
 Raffenetti 1 integral format.
 Two-electron integral symmetry is turned off.
 Leave Link  301 at Tue Oct 12 16:21:29 2021, MaxMem=  1048576000 cpu:         0.6
 (Enter /usr/local/gaussian/g09/l302.exe)
 NPDir=0 NMtPBC=     1 NCelOv=     1 NCel=       1 NClECP=     1 NCelD=      1
         NCelK=      1 NCelE2=     1 NClLst=     1 CellRange=     0.0.
 One-electron integrals computed using PRISM.
   1 Symmetry operations used in ECPInt.
 ECPInt:  NShTT=    2145 NPrTT=    7341 LenC2=    2146 LenP2D=    6692.
 LDataN:  DoStor=T MaxTD1= 7 Len=  274
 GSVD:  received Info=                   1 from GESDD.
 NBasis=   191 RedAO= T EigKep=  3.18D-04  NBF=   191
 NBsUse=   147 1.00D-06 EigRej=  8.04D-16 NBFU=   147
 Leave Link  302 at Tue Oct 12 16:21:29 2021, MaxMem=  1048576000 cpu:         2.9
 (Enter /usr/local/gaussian/g09/l303.exe)
 DipDrv:  MaxL=1.
 Leave Link  303 at Tue Oct 12 16:21:30 2021, MaxMem=  1048576000 cpu:         0.2
 (Enter /usr/local/gaussian/g09/l401.exe)
 ExpMin= 2.53D-02 ExpMax= 1.53D+04 ExpMxC= 5.22D+02 IAcc=3 IRadAn=         5 AccDes= 0.00D+00
 Harris functional with IExCor=  205 and IRadAn=       5 diagonalized for initial guess.
 HarFok:  IExCor=  205 AccDes= 0.00D+00 IRadAn=         5 IDoV= 1 UseB2=F ITyADJ=14
 ICtDFT=  3500011 ScaDFX=  1.000000  1.000000  1.000000  1.000000
 Defaulting to unpruned grid for atomic number  53.
 Defaulting to unpruned grid for atomic number  53.
 Defaulting to unpruned grid for atomic number  53.
 Defaulting to unpruned grid for atomic number  53.
 Defaulting to unpruned grid for atomic number  53.
 Defaulting to unpruned grid for atomic number  53.
 Defaulting to unpruned grid for atomic number  53.
 Defaulting to unpruned grid for atomic number  53.
 Defaulting to unpruned grid for atomic number  53.
 Defaulting to unpruned grid for atomic number  53.
 Defaulting to unpruned grid for atomic number  53.
 Defaulting to unpruned grid for atomic number  53.
 FoFCou: FMM=F IPFlag=           0 FMFlag=      100000 FMFlg1=           0
         NFxFlg=           0 DoJE=T BraDBF=F KetDBF=T FulRan=T
         wScrn=  0.000000 ICntrl=     500 IOpCl=  0 I1Cent=   200000004 NGrid=           0
         NMat0=    1 NMatS0=      1 NMatT0=    0 NMatD0=    1 NMtDS0=    0 NMtDT0=    0
 Symmetry not used in FoFCou.
 Harris En= -372.671862824670    
 JPrj=0 DoOrth=F DoCkMO=F.
 Leave Link  401 at Tue Oct 12 16:21:30 2021, MaxMem=  1048576000 cpu:         2.8
 (Enter /usr/local/gaussian/g09/l502.exe)
 Closed shell SCF:
 Using DIIS extrapolation, IDIIS=  1040.
 Two-electron integral symmetry not used.
 Keep R1 ints in memory in canonical form, NReq=176646527.
 IVT=      165054 IEndB=      165054 NGot=  1048576000 MDV=   880297331
 LenX=   880297331 LenY=   880249366
 Requested convergence on RMS density matrix=1.00D-08 within 128 cycles.
 Requested convergence on MAX density matrix=1.00D-06.
 Requested convergence on             energy=1.00D-06.
 No special actions if energy rises.
 FoFCou: FMM=F IPFlag=           0 FMFlag=           0 FMFlg1=           0
         NFxFlg=           0 DoJE=F BraDBF=F KetDBF=F FulRan=T
         wScrn=  0.000000 ICntrl=     600 IOpCl=  0 I1Cent=           0 NGrid=           0
         NMat0=    1 NMatS0=  18336 NMatT0=    0 NMatD0=    1 NMtDS0=    0 NMtDT0=    0
 Symmetry not used in FoFCou.

 Cycle   1  Pass 1  IDiag  1:
 E= -370.631915152115    
 DIIS: error= 5.04D-02 at cycle   1 NSaved=   1.
 NSaved= 1 IEnMin= 1 EnMin= -370.631915152115     IErMin= 1 ErrMin= 5.04D-02
 ErrMax= 5.04D-02  0.00D+00 EMaxC= 1.00D-01 BMatC= 3.91D-01 BMatP= 3.91D-01
 IDIUse=3 WtCom= 4.96D-01 WtEn= 5.04D-01
 Coeff-Com:  0.100D+01
 Coeff-En:   0.100D+01
 Coeff:      0.100D+01
 Gap=     0.381 Goal=   None    Shift=    0.000
 GapD=    0.381 DampG=1.000 DampE=0.500 DampFc=0.5000 IDamp=-1.
 Damping current iteration by 5.00D-01
 RMSDP=3.47D-03 MaxDP=1.01D-01              OVMax= 1.35D-01

 Cycle   2  Pass 1  IDiag  1:
 E= -370.722346283813     Delta-E=       -0.090431131699 Rises=F Damp=T
 DIIS: error= 1.50D-02 at cycle   2 NSaved=   2.
 NSaved= 2 IEnMin= 2 EnMin= -370.722346283813     IErMin= 2 ErrMin= 1.50D-02
 ErrMax= 1.50D-02  0.00D+00 EMaxC= 1.00D-01 BMatC= 5.92D-02 BMatP= 3.91D-01
 IDIUse=3 WtCom= 8.50D-01 WtEn= 1.50D-01
 Coeff-Com: -0.454D+00 0.145D+01
 Coeff-En:   0.000D+00 0.100D+01
 Coeff:     -0.386D+00 0.139D+01
 Gap=     0.256 Goal=   None    Shift=    0.000
 RMSDP=1.58D-03 MaxDP=7.94D-02 DE=-9.04D-02 OVMax= 6.43D-02

 Cycle   3  Pass 1  IDiag  1:
 E= -370.802923602583     Delta-E=       -0.080577318770 Rises=F Damp=F
 DIIS: error= 4.65D-03 at cycle   3 NSaved=   3.
 NSaved= 3 IEnMin= 3 EnMin= -370.802923602583     IErMin= 3 ErrMin= 4.65D-03
 ErrMax= 4.65D-03  0.00D+00 EMaxC= 1.00D-01 BMatC= 1.66D-03 BMatP= 5.92D-02
 IDIUse=3 WtCom= 9.54D-01 WtEn= 4.65D-02
 Coeff-Com: -0.114D+00 0.227D+00 0.887D+00
 Coeff-En:   0.000D+00 0.000D+00 0.100D+01
 Coeff:     -0.109D+00 0.216D+00 0.892D+00
 Gap=     0.267 Goal=   None    Shift=    0.000
 RMSDP=3.79D-04 MaxDP=1.66D-02 DE=-8.06D-02 OVMax= 9.19D-03

 Cycle   4  Pass 1  IDiag  1:
 E= -370.804045645117     Delta-E=       -0.001122042533 Rises=F Damp=F
 DIIS: error= 6.63D-04 at cycle   4 NSaved=   4.
 NSaved= 4 IEnMin= 4 EnMin= -370.804045645117     IErMin= 4 ErrMin= 6.63D-04
 ErrMax= 6.63D-04  0.00D+00 EMaxC= 1.00D-01 BMatC= 4.26D-05 BMatP= 1.66D-03
 IDIUse=3 WtCom= 9.93D-01 WtEn= 6.63D-03
 Coeff-Com:  0.544D-02-0.236D-01 0.678D-01 0.950D+00
 Coeff-En:   0.000D+00 0.000D+00 0.000D+00 0.100D+01
 Coeff:      0.540D-02-0.235D-01 0.674D-01 0.951D+00
 Gap=     0.269 Goal=   None    Shift=    0.000
 RMSDP=9.74D-05 MaxDP=5.62D-03 DE=-1.12D-03 OVMax= 2.75D-03

 Cycle   5  Pass 1  IDiag  1:
 E= -370.804094124445     Delta-E=       -0.000048479328 Rises=F Damp=F
 DIIS: error= 1.61D-04 at cycle   5 NSaved=   5.
 NSaved= 5 IEnMin= 5 EnMin= -370.804094124445     IErMin= 5 ErrMin= 1.61D-04
 ErrMax= 1.61D-04  0.00D+00 EMaxC= 1.00D-01 BMatC= 3.62D-06 BMatP= 4.26D-05
 IDIUse=3 WtCom= 9.98D-01 WtEn= 1.61D-03
 Coeff-Com:  0.796D-02-0.137D-01-0.619D-01 0.214D-01 0.105D+01
 Coeff-En:   0.000D+00 0.000D+00 0.000D+00 0.000D+00 0.100D+01
 Coeff:      0.795D-02-0.137D-01-0.618D-01 0.214D-01 0.105D+01
 Gap=     0.268 Goal=   None    Shift=    0.000
 RMSDP=4.03D-05 MaxDP=1.60D-03 DE=-4.85D-05 OVMax= 1.05D-03

 Cycle   6  Pass 1  IDiag  1:
 E= -370.804101078092     Delta-E=       -0.000006953647 Rises=F Damp=F
 DIIS: error= 4.79D-05 at cycle   6 NSaved=   6.
 NSaved= 6 IEnMin= 6 EnMin= -370.804101078092     IErMin= 6 ErrMin= 4.79D-05
 ErrMax= 4.79D-05  0.00D+00 EMaxC= 1.00D-01 BMatC= 2.81D-07 BMatP= 3.62D-06
 IDIUse=1 WtCom= 1.00D+00 WtEn= 0.00D+00
 Coeff-Com: -0.290D-02 0.595D-02 0.112D-01-0.949D-01-0.185D+00 0.127D+01
 Coeff:     -0.290D-02 0.595D-02 0.112D-01-0.949D-01-0.185D+00 0.127D+01
 Gap=     0.269 Goal=   None    Shift=    0.000
 RMSDP=1.04D-05 MaxDP=6.39D-04 DE=-6.95D-06 OVMax= 5.65D-04

 Cycle   7  Pass 1  IDiag  1:
 E= -370.804101882739     Delta-E=       -0.000000804647 Rises=F Damp=F
 DIIS: error= 1.06D-05 at cycle   7 NSaved=   7.
 NSaved= 7 IEnMin= 7 EnMin= -370.804101882739     IErMin= 7 ErrMin= 1.06D-05
 ErrMax= 1.06D-05  0.00D+00 EMaxC= 1.00D-01 BMatC= 9.09D-09 BMatP= 2.81D-07
 IDIUse=1 WtCom= 1.00D+00 WtEn= 0.00D+00
 Coeff-Com:  0.232D-03-0.576D-03 0.499D-03 0.196D-01-0.226D-01-0.237D+00
 Coeff-Com:  0.124D+01
 Coeff:      0.232D-03-0.576D-03 0.499D-03 0.196D-01-0.226D-01-0.237D+00
 Coeff:      0.124D+01
 Gap=     0.269 Goal=   None    Shift=    0.000
 RMSDP=2.19D-06 MaxDP=1.03D-04 DE=-8.05D-07 OVMax= 1.09D-04

 Cycle   8  Pass 1  IDiag  1:
 E= -370.804101913473     Delta-E=       -0.000000030734 Rises=F Damp=F
 DIIS: error= 2.22D-06 at cycle   8 NSaved=   8.
 NSaved= 8 IEnMin= 8 EnMin= -370.804101913473     IErMin= 8 ErrMin= 2.22D-06
 ErrMax= 2.22D-06  0.00D+00 EMaxC= 1.00D-01 BMatC= 3.44D-10 BMatP= 9.09D-09
 IDIUse=1 WtCom= 1.00D+00 WtEn= 0.00D+00
 Coeff-Com:  0.108D-03-0.215D-03-0.475D-03 0.309D-02 0.818D-02-0.398D-01
 Coeff-Com: -0.712D-01 0.110D+01
 Coeff:      0.108D-03-0.215D-03-0.475D-03 0.309D-02 0.818D-02-0.398D-01
 Coeff:     -0.712D-01 0.110D+01
 Gap=     0.269 Goal=   None    Shift=    0.000
 RMSDP=5.32D-07 MaxDP=3.00D-05 DE=-3.07D-08 OVMax= 1.52D-05

 Cycle   9  Pass 1  IDiag  1:
 E= -370.804101914391     Delta-E=       -0.000000000918 Rises=F Damp=F
 DIIS: error= 4.17D-07 at cycle   9 NSaved=   9.
 NSaved= 9 IEnMin= 9 EnMin= -370.804101914391     IErMin= 9 ErrMin= 4.17D-07
 ErrMax= 4.17D-07  0.00D+00 EMaxC= 1.00D-01 BMatC= 2.55D-11 BMatP= 3.44D-10
 IDIUse=1 WtCom= 1.00D+00 WtEn= 0.00D+00
 Coeff-Com: -0.276D-04 0.632D-04 0.436D-05-0.165D-02 0.983D-03 0.191D-01
 Coeff-Com: -0.650D-01-0.159D+00 0.121D+01
 Coeff:     -0.276D-04 0.632D-04 0.436D-05-0.165D-02 0.983D-03 0.191D-01
 Coeff:     -0.650D-01-0.159D+00 0.121D+01
 Gap=     0.269 Goal=   None    Shift=    0.000
 RMSDP=1.14D-07 MaxDP=6.31D-06 DE=-9.18D-10 OVMax= 3.97D-06

 Cycle  10  Pass 1  IDiag  1:
 E= -370.804101914457     Delta-E=       -0.000000000066 Rises=F Damp=F
 DIIS: error= 8.32D-08 at cycle  10 NSaved=  10.
 NSaved=10 IEnMin=10 EnMin= -370.804101914457     IErMin=10 ErrMin= 8.32D-08
 ErrMax= 8.32D-08  0.00D+00 EMaxC= 1.00D-01 BMatC= 1.65D-12 BMatP= 2.55D-11
 IDIUse=1 WtCom= 1.00D+00 WtEn= 0.00D+00
 Coeff-Com: -0.896D-05 0.179D-04 0.317D-04-0.306D-03-0.500D-03 0.394D-02
 Coeff-Com:  0.173D-04-0.777D-01 0.910D-01 0.984D+00
 Coeff:     -0.896D-05 0.179D-04 0.317D-04-0.306D-03-0.500D-03 0.394D-02
 Coeff:      0.173D-04-0.777D-01 0.910D-01 0.984D+00
 Gap=     0.269 Goal=   None    Shift=    0.000
 RMSDP=2.01D-08 MaxDP=9.12D-07 DE=-6.63D-11 OVMax= 7.84D-07

 Cycle  11  Pass 1  IDiag  1:
 E= -370.804101914463     Delta-E=       -0.000000000006 Rises=F Damp=F
 DIIS: error= 1.96D-08 at cycle  11 NSaved=  11.
 NSaved=11 IEnMin=11 EnMin= -370.804101914463     IErMin=11 ErrMin= 1.96D-08
 ErrMax= 1.96D-08  0.00D+00 EMaxC= 1.00D-01 BMatC= 1.04D-13 BMatP= 1.65D-12
 IDIUse=1 WtCom= 1.00D+00 WtEn= 0.00D+00
 Coeff-Com:  0.275D-05-0.620D-05-0.118D-05 0.152D-03-0.776D-04-0.167D-02
 Coeff-Com:  0.459D-02 0.186D-01-0.105D+00-0.791D-01 0.116D+01
 Coeff:      0.275D-05-0.620D-05-0.118D-05 0.152D-03-0.776D-04-0.167D-02
 Coeff:      0.459D-02 0.186D-01-0.105D+00-0.791D-01 0.116D+01
 Gap=     0.269 Goal=   None    Shift=    0.000
 RMSDP=1.37D-08 MaxDP=9.44D-07 DE=-5.80D-12 OVMax= 3.77D-07

 Cycle  12  Pass 1  IDiag  1:
 E= -370.804101914460     Delta-E=        0.000000000003 Rises=F Damp=F
 DIIS: error= 4.55D-09 at cycle  12 NSaved=  12.
 NSaved=12 IEnMin=11 EnMin= -370.804101914463     IErMin=12 ErrMin= 4.55D-09
 ErrMax= 4.55D-09  0.00D+00 EMaxC= 1.00D-01 BMatC= 2.75D-15 BMatP= 1.04D-13
 IDIUse=1 WtCom= 1.00D+00 WtEn= 0.00D+00
 Coeff-Com: -0.443D-06 0.110D-05-0.554D-06-0.311D-04 0.407D-04 0.304D-03
 Coeff-Com: -0.114D-02-0.244D-02 0.251D-01-0.136D-01-0.284D+00 0.128D+01
 Coeff:     -0.443D-06 0.110D-05-0.554D-06-0.311D-04 0.407D-04 0.304D-03
 Coeff:     -0.114D-02-0.244D-02 0.251D-01-0.136D-01-0.284D+00 0.128D+01
 Gap=     0.269 Goal=   None    Shift=    0.000
 RMSDP=2.98D-09 MaxDP=2.07D-07 DE= 2.56D-12 OVMax= 7.56D-08

 SCF Done:  E(RHF) =  -370.804101914     A.U. after   12 cycles
            NFock= 12  Conv=0.30D-08     -V/T= 2.9815
 KE= 1.871362065400D+02 PE=-9.105253277438D+02 EE= 3.042211740177D+02
 Leave Link  502 at Tue Oct 12 16:21:34 2021, MaxMem=  1048576000 cpu:        19.5
 (Enter /usr/local/gaussian/g09/l801.exe)
 ExpMin= 2.53D-02 ExpMax= 1.53D+04 ExpMxC= 5.22D+02 IAcc=3 IRadAn=         5 AccDes= 0.00D+00
 HarFok:  IExCor=  205 AccDes= 0.00D+00 IRadAn=         5 IDoV=-2 UseB2=F ITyADJ=14
 ICtDFT= 12500011 ScaDFX=  1.000000  1.000000  1.000000  1.000000
 Defaulting to unpruned grid for atomic number  53.
 Defaulting to unpruned grid for atomic number  53.
 Defaulting to unpruned grid for atomic number  53.
 Defaulting to unpruned grid for atomic number  53.
 Defaulting to unpruned grid for atomic number  53.
 Defaulting to unpruned grid for atomic number  53.
 Defaulting to unpruned grid for atomic number  53.
 Defaulting to unpruned grid for atomic number  53.
 Defaulting to unpruned grid for atomic number  53.
 Defaulting to unpruned grid for atomic number  53.
 Defaulting to unpruned grid for atomic number  53.
 Defaulting to unpruned grid for atomic number  53.
 Largest valence mixing into a core orbital is  1.30D-04
 Largest core mixing into a valence orbital is  1.91D-05
 Range of M.O.s used for correlation:     6   147
 NBasis=   191 NAE=    18 NBE=    18 NFC=     5 NFV=     0
 NROrb=    142 NOA=    13 NOB=    13 NVA=   129 NVB=   129

 **** Warning!!: The largest alpha MO coefficient is  0.12640442D+02

 Leave Link  801 at Tue Oct 12 16:21:34 2021, MaxMem=  1048576000 cpu:         0.8
 (Enter /usr/local/gaussian/g09/l906.exe)
 Frozen-core derivative calculation, NFC=   5 NFV=   0.
 FulOut=F Deriv=T AODrv=F NAtomX=     4
   MMem=         196  MDisk=          13 MDiskD=          13
  W3Min=      576828 MinDsk=     1313419 NBas6D=         218
 NBas2D=       24339    NTT=       23871    LW2=    26219120
    MDV=  1048237074 MDiskM=       23996 NBas2p=       24339
 Fully in-core method, ICMem=   672878533.
 IMap=   1   2   3   4   5   6   7   8   9  10  11  12  13  14  15  16  17  18
 JobTyp=1 Pass  1 fully in-core, NPsUse= 12.
 Compute canonical integrals.
 FoFCou: FMM=F IPFlag=           0 FMFlag=           0 FMFlg1=           0
         NFxFlg=           0 DoJE=F BraDBF=F KetDBF=F FulRan=T
         wScrn=  0.000000 ICntrl=     600 IOpCl=  1 I1Cent=           0 NGrid=           0
         NMat0=    1 NMatS0=  24339 NMatT0=    0 NMatD0=    1 NMtDS0=    0 NMtDT0=    0
 Symmetry not used in FoFCou.
 Spin components of T(2) and E(2):
     alpha-alpha T2 =       0.2094697526D-01 E2=     -0.6640805335D-01
     alpha-beta  T2 =       0.1097217343D+00 E2=     -0.3574729089D+00
     beta-beta   T2 =       0.2094697526D-01 E2=     -0.6640805335D-01
 The integrals were generated   1 times.
 ANorm=    0.1073133582D+01
 E2 =    -0.4902890156D+00 EUMP2 =    -0.37129439093003D+03
 Leave Link  906 at Tue Oct 12 16:21:42 2021, MaxMem=  1048576000 cpu:       101.4
 (Enter /usr/local/gaussian/g09/l1002.exe)
 Minotr:  Closed shell wavefunction.
          Computing MP2/KS-MP2 derivatives.
          Using Z-Vector for PSCF gradient.
          Skipping F1 and S1 gradient terms here.
          Frozen-core window.
          Direct CPHF calculation.
          Differentiating once with respect to electric field.
                with respect to dipole field.
          Electric field/nuclear overlap derivatives assumed to be zero.
          Requested convergence is 1.0D-10 RMS, and 1.0D-09 maximum.
          NewPWx=F KeepS1=T KeepF1=T KeepIn=T MapXYZ=F SortEE=F KeepMc=T.
          MDV=    1048575822 using IRadAn=       0.
 Keep R1 ints in memory in canonical form, NReq=176526454.
 FoFCou: FMM=F IPFlag=           0 FMFlag=           0 FMFlg1=           0
         NFxFlg=           0 DoJE=F BraDBF=F KetDBF=F FulRan=T
         wScrn=  0.000000 ICntrl=     600 IOpCl=  0 I1Cent=           0 NGrid=           0
         NMat0=    1 NMatS0=  18336 NMatT0=    0 NMatD0=    1 NMtDS0=    0 NMtDT0=    0
 Symmetry not used in FoFCou.
          Solving linear equations separately, MaxMat=       0.
          There are     1 degrees of freedom in the 1st order CPHF.  IDoFFX=0 NUNeed=     1.
 LinEq1:  Iter=  0 NonCon=     1 RMS=2.44D-03 Max=3.87D-02 NDo=     1
 AX will form     1 AO Fock derivatives at one time.
 LinEq1:  Iter=  1 NonCon=     1 RMS=3.86D-04 Max=3.60D-03 NDo=     1
 LinEq1:  Iter=  2 NonCon=     1 RMS=1.78D-04 Max=2.38D-03 NDo=     1
 LinEq1:  Iter=  3 NonCon=     1 RMS=3.70D-05 Max=5.29D-04 NDo=     1
 LinEq1:  Iter=  4 NonCon=     1 RMS=9.84D-06 Max=1.03D-04 NDo=     1
 LinEq1:  Iter=  5 NonCon=     1 RMS=2.73D-06 Max=3.42D-05 NDo=     1
 LinEq1:  Iter=  6 NonCon=     1 RMS=5.55D-07 Max=7.07D-06 NDo=     1
 LinEq1:  Iter=  7 NonCon=     1 RMS=1.23D-07 Max=1.76D-06 NDo=     1
 LinEq1:  Iter=  8 NonCon=     1 RMS=3.46D-08 Max=4.30D-07 NDo=     1
 LinEq1:  Iter=  9 NonCon=     1 RMS=6.87D-09 Max=1.01D-07 NDo=     1
 LinEq1:  Iter= 10 NonCon=     1 RMS=1.16D-09 Max=1.41D-08 NDo=     1
 LinEq1:  Iter= 11 NonCon=     1 RMS=1.86D-10 Max=3.00D-09 NDo=     1
 LinEq1:  Iter= 12 NonCon=     0 RMS=4.44D-11 Max=6.90D-10 NDo=     1
 Linear equations converged to 1.000D-10 1.000D-09 after    12 iterations.
 End of Minotr F.D. properties file   721 does not exist.
 End of Minotr F.D. properties file   722 does not exist.
 End of Minotr F.D. properties file   788 does not exist.
 Leave Link 1002 at Tue Oct 12 16:21:46 2021, MaxMem=  1048576000 cpu:        18.5
 (Enter /usr/local/gaussian/g09/l601.exe)
 Copying SCF densities to generalized density rwf, IOpCl= 0 IROHF=0.

 **********************************************************************

            Population analysis using the MP2 density.

 **********************************************************************

 Alpha  occ. eigenvalues --  -20.40014  -7.46292  -5.28839  -5.28824  -5.28822
 Alpha  occ. eigenvalues --   -2.01578  -2.01571  -2.01568  -2.01552  -2.01551
 Alpha  occ. eigenvalues --   -1.23031  -0.62456  -0.58454  -0.44706  -0.36102
 Alpha  occ. eigenvalues --   -0.14316  -0.13848  -0.13814
 Alpha virt. eigenvalues --    0.13044   0.16883   0.23416   0.24536   0.25365
 Alpha virt. eigenvalues --    0.26762   0.28309   0.28815   0.31324   0.33333
 Alpha virt. eigenvalues --    0.36769   0.37306   0.37608   0.39609   0.40869
 Alpha virt. eigenvalues --    0.41779   0.45064   0.47503   0.53979   0.54733
 Alpha virt. eigenvalues --    0.56928   0.60267   0.66543   0.71126   0.77585
 Alpha virt. eigenvalues --    0.78363   0.78565   0.79893   0.80313   0.80391
 Alpha virt. eigenvalues --    0.82658   0.84530   0.85535   0.85798   0.87301
 Alpha virt. eigenvalues --    0.87415   0.88719   0.88778   0.89119   0.90133
 Alpha virt. eigenvalues --    0.92330   0.97380   0.99560   1.06823   1.07221
 Alpha virt. eigenvalues --    1.08985   1.09631   1.12957   1.13801   1.14687
 Alpha virt. eigenvalues --    1.17261   1.20049   1.33607   1.37646   1.38648
 Alpha virt. eigenvalues --    1.40163   1.47423   1.53551   1.54344   1.67340
 Alpha virt. eigenvalues --    1.73327   1.75535   1.75543   1.77306   1.78186
 Alpha virt. eigenvalues --    1.78460   1.81328   1.84968   1.87962   1.89082
 Alpha virt. eigenvalues --    2.00750   2.05461   2.05914   2.09513   2.10941
 Alpha virt. eigenvalues --    2.11265   2.16863   2.26510   2.43458   2.50589
 Alpha virt. eigenvalues --    2.57237   2.58014   2.61892   2.64476   2.77363
 Alpha virt. eigenvalues --    2.82842   2.87058   2.89010   2.99244   3.07305
 Alpha virt. eigenvalues --    3.07600   3.23890   3.26450   3.86843   3.91474
 Alpha virt. eigenvalues --    4.19695   4.24423   4.34091   4.39660   4.44961
 Alpha virt. eigenvalues --    4.53895   4.58143   4.59053   4.65926   4.77096
 Alpha virt. eigenvalues --    4.99106   5.21885   5.36972   5.40849   5.53775
 Alpha virt. eigenvalues --    5.87615   5.91608   6.09212   6.52442   6.69255
 Alpha virt. eigenvalues --    6.90822   7.27008   7.29608   7.42392   7.47843
 Alpha virt. eigenvalues --    7.50420   7.67613   7.82692   8.02752   8.12958
 Alpha virt. eigenvalues --    8.61761   9.23168  19.12595  59.22106
          Condensed to atoms (all electrons):
               1          2          3          4
     1  O    8.092981   0.246049  -0.046931   0.125575
     2  H    0.246049   0.601843   0.009083  -0.029376
     3  I   -0.046931   0.009083  25.957687   0.028771
     4  H    0.125575  -0.029376   0.028771   0.681147
 Mulliken charges:
               1
     1  O   -0.417674
     2  H    0.172402
     3  I   -0.948610
     4  H    0.193882
 Sum of Mulliken charges =  -1.00000
 Mulliken charges with hydrogens summed into heavy atoms:
               1
     1  O   -0.051390
     3  I   -0.948610
 Electronic spatial extent (au):  <R**2>=           1236.3295
 Charge=             -1.0000 electrons
 Dipole moment (field-independent basis, Debye):
    X=              4.3035    Y=             14.1741    Z=             -0.0000  Tot=             14.8130
 Quadrupole moment (field-independent basis, Debye-Ang):
   XX=            -41.4332   YY=            -93.5634   ZZ=            -41.8657
   XY=            -10.2440   XZ=              0.0000   YZ=              0.0000
 Traceless Quadrupole moment (field-independent basis, Debye-Ang):
   XX=             17.5209   YY=            -34.6093   ZZ=             17.0884
   XY=            -10.2440   XZ=              0.0000   YZ=              0.0000
 Octapole moment (field-independent basis, Debye-Ang**2):
  XXX=             74.8126  YYY=            531.7942  ZZZ=             -0.0000  XYY=             60.2189
  XXY=            124.5160  XXZ=             -0.0000  XZZ=             23.7709  YZZ=            117.0527
  YYZ=             -0.0000  XYZ=             -0.0000
 Hexadecapole moment (field-independent basis, Debye-Ang**3):
 XXXX=           -181.8331 YYYY=          -3093.4192 ZZZZ=            -77.1649 XXXY=           -255.5324
 XXXZ=              0.0000 YYYX=           -374.1368 YYYZ=              0.0000 ZZZX=              0.0000
 ZZZY=              0.0000 XXYY=           -469.1835 XXZZ=            -43.3677 YYZZ=           -426.4739
 XXYZ=              0.0000 YYXZ=              0.0000 ZZXY=            -83.5071
 N-N= 4.836384527168D+01 E-N=-9.099476418879D+02  KE= 1.873081942434D+02
 No NMR shielding tensors so no spin-rotation constants.
 Leave Link  601 at Tue Oct 12 16:21:47 2021, MaxMem=  1048576000 cpu:         2.0
 (Enter /usr/local/gaussian/g09/l607.exe)
 ******************************Gaussian NBO Version 3.1******************************
             N A T U R A L   A T O M I C   O R B I T A L   A N D
          N A T U R A L   B O N D   O R B I T A L   A N A L Y S I S
 ******************************Gaussian NBO Version 3.1******************************
       /RESON  / : Allow strongly delocalized NBO set

 Analyzing the MP2 density

 Job title: title                                                           

 Storage needed:    110417 in NPA,    146568 in NBO (1048575896 available)


 NATURAL POPULATIONS:  Natural atomic orbital occupancies 
                                                          
   NAO  Atom  No  lang   Type(AO)    Occupancy
 --------------------------------------------
     1    O    1  S      Cor( 1S)     1.99990
     2    O    1  S      Val( 2S)     1.86719
     3    O    1  S      Ryd( 3S)     0.00623
     4    O    1  S      Ryd( 4S)     0.00046
     5    O    1  S      Ryd( 5S)     0.00016
     6    O    1  px     Val( 2p)     1.67043
     7    O    1  px     Ryd( 3p)     0.01078
     8    O    1  px     Ryd( 4p)     0.00057
     9    O    1  px     Ryd( 5p)     0.00007
    10    O    1  py     Val( 2p)     1.74499
    11    O    1  py     Ryd( 3p)     0.01385
    12    O    1  py     Ryd( 4p)     0.00058
    13    O    1  py     Ryd( 5p)     0.00023
    14    O    1  pz     Val( 2p)     1.95510
    15    O    1  pz     Ryd( 3p)     0.01925
    16    O    1  pz     Ryd( 4p)     0.00051
    17    O    1  pz     Ryd( 5p)     0.00001
    18    O    1  dxy    Ryd( 3d)     0.00857
    19    O    1  dxy    Ryd( 4d)     0.00044
    20    O    1  dxy    Ryd( 5d)     0.00014
    21    O    1  dxz    Ryd( 3d)     0.00933
    22    O    1  dxz    Ryd( 4d)     0.00096
    23    O    1  dxz    Ryd( 5d)     0.00012
    24    O    1  dyz    Ryd( 3d)     0.00779
    25    O    1  dyz    Ryd( 4d)     0.00043
    26    O    1  dyz    Ryd( 5d)     0.00020
    27    O    1  dx2y2  Ryd( 3d)     0.00950
    28    O    1  dx2y2  Ryd( 4d)     0.00067
    29    O    1  dx2y2  Ryd( 5d)     0.00028
    30    O    1  dz2    Ryd( 3d)     0.00790
    31    O    1  dz2    Ryd( 4d)     0.00064
    32    O    1  dz2    Ryd( 5d)     0.00015
    33    O    1  f(0)   Ryd( 4f)     0.00086
    34    O    1  f(0)   Ryd( 5f)     0.00013
    35    O    1  f(C1)  Ryd( 4f)     0.00055
    36    O    1  f(C1)  Ryd( 5f)     0.00009
    37    O    1  f(S1)  Ryd( 4f)     0.00054
    38    O    1  f(S1)  Ryd( 5f)     0.00010
    39    O    1  f(C2)  Ryd( 4f)     0.00054
    40    O    1  f(C2)  Ryd( 5f)     0.00013
    41    O    1  f(S2)  Ryd( 4f)     0.00045
    42    O    1  f(S2)  Ryd( 5f)     0.00007
    43    O    1  f(C3)  Ryd( 4f)     0.00038
    44    O    1  f(C3)  Ryd( 5f)     0.00013
    45    O    1  f(S3)  Ryd( 4f)     0.00044
    46    O    1  f(S3)  Ryd( 5f)     0.00014

    47    H    2  S      Val( 1S)     0.33208
    48    H    2  S      Ryd( 2S)     0.00060
    49    H    2  S      Ryd( 3S)     0.00022
    50    H    2  S      Ryd( 4S)     0.00005
    51    H    2  px     Ryd( 2p)     0.00079
    52    H    2  px     Ryd( 3p)     0.00064
    53    H    2  px     Ryd( 4p)     0.00006
    54    H    2  py     Ryd( 2p)     0.00046
    55    H    2  py     Ryd( 3p)     0.00021
    56    H    2  py     Ryd( 4p)     0.00007
    57    H    2  pz     Ryd( 2p)     0.00132
    58    H    2  pz     Ryd( 3p)     0.00017
    59    H    2  pz     Ryd( 4p)     0.00005
    60    H    2  dxy    Ryd( 4d)     0.00006
    61    H    2  dxy    Ryd( 3d)     0.00006
    62    H    2  dxz    Ryd( 3d)     0.00030
    63    H    2  dxz    Ryd( 4d)     0.00007
    64    H    2  dyz    Ryd( 3d)     0.00011
    65    H    2  dyz    Ryd( 4d)     0.00006
    66    H    2  dx2y2  Ryd( 3d)     0.00018
    67    H    2  dx2y2  Ryd( 4d)     0.00007
    68    H    2  dz2    Ryd( 3d)     0.00016
    69    H    2  dz2    Ryd( 4d)     0.00007

    70    I    3  S      Cor( 4S)     2.00003
    71    I    3  S      Val( 5S)     1.98061
    72    I    3  S      Ryd( 6S)     0.00371
    73    I    3  S      Ryd( 7S)     0.00060
    74    I    3  S      Ryd( 8S)     0.00008
    75    I    3  S      Ryd( 9S)     0.00000
    76    I    3  px     Cor( 4p)     2.00007
    77    I    3  px     Val( 5p)     1.95113
    78    I    3  px     Ryd( 6p)     0.01117
    79    I    3  px     Ryd( 7p)     0.00075
    80    I    3  px     Ryd( 8p)     0.00008
    81    I    3  py     Cor( 4p)     2.00007
    82    I    3  py     Val( 5p)     1.94668
    83    I    3  py     Ryd( 6p)     0.01041
    84    I    3  py     Ryd( 7p)     0.00069
    85    I    3  py     Ryd( 8p)     0.00015
    86    I    3  pz     Cor( 4p)     2.00007
    87    I    3  pz     Val( 5p)     1.95166
    88    I    3  pz     Ryd( 6p)     0.01115
    89    I    3  pz     Ryd( 7p)     0.00075
    90    I    3  pz     Ryd( 8p)     0.00008
    91    I    3  dxy    Cor( 4d)     1.99675
    92    I    3  dxy    Ryd( 5d)     0.02046
    93    I    3  dxy    Ryd( 6d)     0.00147
    94    I    3  dxy    Ryd( 7d)     0.00018
    95    I    3  dxz    Cor( 4d)     1.99678
    96    I    3  dxz    Ryd( 5d)     0.02021
    97    I    3  dxz    Ryd( 6d)     0.00168
    98    I    3  dxz    Ryd( 7d)     0.00017
    99    I    3  dyz    Cor( 4d)     1.99676
   100    I    3  dyz    Ryd( 5d)     0.02031
   101    I    3  dyz    Ryd( 6d)     0.00146
   102    I    3  dyz    Ryd( 7d)     0.00017
   103    I    3  dx2y2  Cor( 4d)     1.99673
   104    I    3  dx2y2  Ryd( 5d)     0.02051
   105    I    3  dx2y2  Ryd( 6d)     0.00158
   106    I    3  dx2y2  Ryd( 7d)     0.00020
   107    I    3  dz2    Cor( 4d)     1.99677
   108    I    3  dz2    Ryd( 5d)     0.02035
   109    I    3  dz2    Ryd( 6d)     0.00165
   110    I    3  dz2    Ryd( 7d)     0.00018
   111    I    3  f(0)   Ryd( 4f)     0.00274
   112    I    3  f(0)   Ryd( 5f)     0.00043
   113    I    3  f(C1)  Ryd( 4f)     0.00276
   114    I    3  f(C1)  Ryd( 5f)     0.00043
   115    I    3  f(S1)  Ryd( 4f)     0.00276
   116    I    3  f(S1)  Ryd( 5f)     0.00046
   117    I    3  f(C2)  Ryd( 4f)     0.00273
   118    I    3  f(C2)  Ryd( 5f)     0.00043
   119    I    3  f(S2)  Ryd( 4f)     0.00278
   120    I    3  f(S2)  Ryd( 5f)     0.00044
   121    I    3  f(C3)  Ryd( 4f)     0.00270
   122    I    3  f(C3)  Ryd( 5f)     0.00045
   123    I    3  f(S3)  Ryd( 4f)     0.00273
   124    I    3  f(S3)  Ryd( 5f)     0.00047

   125    H    4  S      Val( 1S)     0.31043
   126    H    4  S      Ryd( 2S)     0.00564
   127    H    4  S      Ryd( 3S)     0.00067
   128    H    4  S      Ryd( 4S)     0.00010
   129    H    4  px     Ryd( 2p)     0.00406
   130    H    4  px     Ryd( 3p)     0.00041
   131    H    4  px     Ryd( 4p)     0.00014
   132    H    4  py     Ryd( 2p)     0.00453
   133    H    4  py     Ryd( 3p)     0.00057
   134    H    4  py     Ryd( 4p)     0.00021
   135    H    4  pz     Ryd( 2p)     0.00472
   136    H    4  pz     Ryd( 3p)     0.00045
   137    H    4  pz     Ryd( 4p)     0.00012
   138    H    4  dxy    Ryd( 3d)     0.00020
   139    H    4  dxy    Ryd( 4d)     0.00008
   140    H    4  dxz    Ryd( 3d)     0.00016
   141    H    4  dxz    Ryd( 4d)     0.00010
   142    H    4  dyz    Ryd( 3d)     0.00020
   143    H    4  dyz    Ryd( 4d)     0.00007
   144    H    4  dx2y2  Ryd( 3d)     0.00024
   145    H    4  dx2y2  Ryd( 4d)     0.00010
   146    H    4  dz2    Ryd( 3d)     0.00023
   147    H    4  dz2    Ryd( 4d)     0.00010

 [ 28 electrons found in the effective core potential]

 WARNING:  5 low occupancy (<1.9990e) core orbitals found on  I    3


 Summary of Natural Population Analysis:                  
                                                          
                                       Natural Population 
                Natural  -----------------------------------------------
    Atom  No    Charge         Core      Valence    Rydberg      Total
 -----------------------------------------------------------------------
      O    1   -1.34198      1.99990     7.23771    0.10437     9.34198
      H    2    0.66214      0.00000     0.33208    0.00578     0.33786
      I    3   -0.98662     45.98403     7.83008    0.17251    53.98662
      H    4    0.66646      0.00000     0.31043    0.02311     0.33354
 =======================================================================
   * Total *   -1.00000     47.98393    15.71030    0.30577    64.00000

                                 Natural Population      
 --------------------------------------------------------
   Effective Core            28.00000
   Core                      19.98393 ( 99.9196% of  20)
   Valence                   15.71030 ( 98.1894% of  16)
   Natural Minimal Basis     63.69423 ( 99.5222% of  64)
   Natural Rydberg Basis      0.30577 (  0.4778% of  64)
 --------------------------------------------------------

    Atom  No          Natural Electron Configuration
 ----------------------------------------------------------------------------
      O    1      [core]2S( 1.87)2p( 5.37)3S( 0.01)3p( 0.04)3d( 0.04)
      H    2            1S( 0.33)
      I    3      [core]5S( 1.98)5p( 5.85)4f( 0.02)5d( 0.10)6p( 0.03)6d( 0.01)
      H    4            1S( 0.31)2S( 0.01)2p( 0.01)


 NATURAL BOND ORBITAL ANALYSIS:
 Warning:  a bond orbital has occupanc of -0.00005

                       Occupancies       Lewis Structure    Low   High
           Occ.    -------------------  -----------------   occ   occ
  Cycle   Thresh.   Lewis   Non-Lewis     CR  BD  3C  LP    (L)   (NL)   Dev
 =============================================================================
   1(1)    1.90    63.68598   0.31402     10   2   0   6     0      0    0.01
 -----------------------------------------------------------------------------

 Structure accepted: No low occupancy Lewis orbitals

 WARNING:  5 low occupancy (<1.9990e) core orbitals found on  I    3

 --------------------------------------------------------
   Effective Core           28.00000
   Core                     19.98393 ( 99.920% of  20)
   Valence Lewis            15.70205 ( 98.138% of  16)
  ==================       ============================
   Total Lewis              63.68598 ( 99.509% of  64)
  -----------------------------------------------------
   Valence non-Lewis         0.03438 (  0.054% of  64)
   Rydberg non-Lewis         0.27964 (  0.437% of  64)
  ==================       ============================
   Total non-Lewis           0.31402 (  0.491% of  64)
 --------------------------------------------------------


       (Occupancy)   Bond orbital/ Coefficients/ Hybrids
 ---------------------------------------------------------------------------------
     1. (1.96536) BD ( 1) O   1 - H   2  
                ( 83.89%)   0.9159* O   1 s( 15.80%)p 5.30( 83.84%)d 0.02(  0.35%)
                                                  f 0.00(  0.01%)
                                            0.0002  0.3975  0.0019  0.0025 -0.0041
                                            0.9153 -0.0153  0.0059 -0.0012  0.0123
                                           -0.0106  0.0008 -0.0038  0.0000  0.0000
                                            0.0000  0.0000 -0.0251  0.0022  0.0021
                                            0.0000  0.0000  0.0000  0.0000  0.0000
                                            0.0000  0.0426 -0.0092  0.0052 -0.0299
                                            0.0034 -0.0014  0.0000  0.0000 -0.0096
                                            0.0009  0.0002 -0.0001  0.0000  0.0000
                                            0.0000  0.0000  0.0019  0.0016  0.0018
                                            0.0003
                ( 16.11%)   0.4014* H   2 s( 99.79%)p 0.00(  0.17%)d 0.00(  0.03%)
                                            0.9990 -0.0024 -0.0003  0.0001  0.0073
                                            0.0407 -0.0020 -0.0007 -0.0013 -0.0021
                                            0.0000  0.0000  0.0000  0.0001 -0.0025
                                            0.0000  0.0000  0.0000  0.0000  0.0136
                                           -0.0049 -0.0107  0.0017
     2. (1.97075) BD ( 1) O   1 - H   4  
                ( 84.88%)   0.9213* O   1 s( 22.56%)p 3.42( 77.11%)d 0.01(  0.32%)
                                                  f 0.00(  0.01%)
                                           -0.0002 -0.4749  0.0089  0.0052  0.0018
                                            0.1931 -0.0120 -0.0016 -0.0007  0.8561
                                           -0.0258  0.0062 -0.0050  0.0000  0.0000
                                            0.0000  0.0000  0.0073 -0.0056 -0.0006
                                            0.0000  0.0000  0.0000  0.0000  0.0000
                                            0.0000  0.0470 -0.0051  0.0042  0.0298
                                            0.0016 -0.0005  0.0000  0.0000 -0.0017
                                            0.0004 -0.0083 -0.0000  0.0000  0.0000
                                            0.0000  0.0000 -0.0021 -0.0025  0.0017
                                           -0.0045
                ( 15.12%)   0.3888* H   4 s( 99.85%)p 0.00(  0.14%)d 0.00(  0.00%)
                                           -0.9991  0.0168 -0.0024 -0.0002 -0.0198
                                           -0.0026  0.0009  0.0069 -0.0301 -0.0100
                                            0.0000  0.0000  0.0000 -0.0028  0.0024
                                            0.0000  0.0000  0.0000  0.0000 -0.0012
                                            0.0009  0.0050  0.0030
     3. (1.99990) CR ( 1) O   1           s(100.00%)
                                            1.0000 -0.0003  0.0000  0.0000  0.0000
                                           -0.0000  0.0000 -0.0000  0.0000  0.0000
                                           -0.0000  0.0000 -0.0000  0.0000  0.0000
                                            0.0000  0.0000 -0.0000 -0.0000  0.0000
                                            0.0000  0.0000  0.0000  0.0000  0.0000
                                            0.0000 -0.0000 -0.0000  0.0000  0.0000
                                            0.0000 -0.0000  0.0000  0.0000  0.0000
                                            0.0000 -0.0000 -0.0000  0.0000  0.0000
                                            0.0000  0.0000 -0.0000 -0.0000 -0.0000
                                           -0.0000
     4. (2.00003) CR ( 1) I   3           s(100.00%)
                                            1.0000 -0.0000  0.0000  0.0000 -0.0000
                                           -0.0000  0.0000 -0.0000 -0.0000 -0.0000
                                            0.0000  0.0000 -0.0000  0.0000  0.0000
                                           -0.0000  0.0000  0.0000  0.0000  0.0000
                                            0.0000  0.0000 -0.0000  0.0000  0.0000
                                            0.0000  0.0000  0.0000  0.0000  0.0000
                                            0.0000  0.0000  0.0000 -0.0000  0.0000
                                           -0.0000 -0.0000 -0.0000  0.0000 -0.0000
                                           -0.0000  0.0000  0.0000  0.0000  0.0000
                                            0.0000  0.0000  0.0000  0.0000  0.0000
                                            0.0000  0.0000  0.0000  0.0000  0.0000
     5. (2.00007) CR ( 2) I   3           s(  0.00%)p 1.00(100.00%)
                                            0.0000  0.0000  0.0000 -0.0000  0.0000
                                           -0.0000  1.0000 -0.0000 -0.0000 -0.0000
                                            0.0000 -0.0000  0.0000 -0.0000 -0.0000
                                            0.0000  0.0000  0.0000  0.0000  0.0000
                                            0.0000  0.0000 -0.0000  0.0000  0.0000
                                            0.0000  0.0000  0.0000  0.0000  0.0000
                                            0.0000  0.0000  0.0000  0.0000 -0.0000
                                            0.0000 -0.0000  0.0000 -0.0000 -0.0000
                                            0.0000  0.0000  0.0000  0.0000  0.0000
                                           -0.0000 -0.0000  0.0000  0.0000  0.0000
                                            0.0000  0.0000  0.0000 -0.0000 -0.0000
     6. (2.00007) CR ( 3) I   3           s(  0.00%)p 1.00(100.00%)
                                            0.0000  0.0000 -0.0000 -0.0000  0.0000
                                            0.0000 -0.0000  0.0000  0.0000 -0.0000
                                           -0.0000  1.0000  0.0000 -0.0000 -0.0000
                                            0.0000  0.0000  0.0000  0.0000  0.0000
                                            0.0000 -0.0000  0.0000 -0.0000 -0.0000
                                            0.0000  0.0000  0.0000  0.0000  0.0000
                                            0.0000  0.0000  0.0000  0.0000 -0.0000
                                            0.0000  0.0000  0.0000 -0.0000  0.0000
                                            0.0000  0.0000  0.0000 -0.0000 -0.0000
                                           -0.0000 -0.0000  0.0000  0.0000  0.0000
                                            0.0000 -0.0000 -0.0000 -0.0000 -0.0000
     7. (2.00007) CR ( 4) I   3           s(  0.00%)p 1.00(100.00%)
                                            0.0000  0.0000  0.0000  0.0000  0.0000
                                            0.0000  0.0000  0.0000  0.0000  0.0000
                                            0.0000  0.0000  0.0000  0.0000  0.0000
                                            0.0000  1.0000 -0.0000  0.0000 -0.0000
                                           -0.0000  0.0000  0.0000  0.0000  0.0000
                                            0.0000 -0.0000  0.0000 -0.0000  0.0000
                                           -0.0000  0.0000  0.0000  0.0000  0.0000
                                            0.0000  0.0000  0.0000  0.0000  0.0000
                                            0.0000  0.0000  0.0000  0.0000  0.0000
                                            0.0000  0.0000  0.0000  0.0000 -0.0000
                                           -0.0000  0.0000  0.0000  0.0000  0.0000
     8. (1.99675) CR ( 5) I   3           s(  0.00%)p 0.00(  0.00%)d 1.00(100.00%)
                                            0.0000  0.0000 -0.0000  0.0000 -0.0000
                                            0.0000  0.0000  0.0000  0.0000  0.0000
                                           -0.0000 -0.0000  0.0000  0.0000 -0.0000
                                           -0.0000  0.0000  0.0000  0.0000  0.0000
                                            0.0000  1.0000  0.0000 -0.0000 -0.0000
                                            0.0000  0.0000  0.0000  0.0000  0.0000
                                            0.0000  0.0000  0.0000  0.0000 -0.0000
                                           -0.0000  0.0000  0.0000 -0.0000  0.0000
                                           -0.0000  0.0000  0.0000 -0.0000 -0.0000
                                           -0.0000 -0.0000  0.0000  0.0000  0.0000
                                            0.0000 -0.0000 -0.0000 -0.0000  0.0000
     9. (1.99678) CR ( 6) I   3           s(  0.00%)p 0.00(  0.00%)d 1.00(100.00%)
                                            0.0000  0.0000  0.0000  0.0000  0.0000
                                            0.0000  0.0000  0.0000  0.0000  0.0000
                                            0.0000  0.0000  0.0000  0.0000  0.0000
                                            0.0000  0.0000  0.0000 -0.0000  0.0000
                                            0.0000  0.0000  0.0000  0.0000  0.0000
                                            1.0000  0.0000 -0.0000  0.0000 -0.0000
                                            0.0000 -0.0000 -0.0000  0.0000  0.0000
                                            0.0000  0.0000  0.0000  0.0000  0.0000
                                            0.0000 -0.0000 -0.0000  0.0000  0.0000
                                            0.0000  0.0000 -0.0000 -0.0000  0.0000
                                            0.0000  0.0000  0.0000  0.0000  0.0000
    10. (1.99676) CR ( 7) I   3           s(  0.00%)p 0.00(  0.00%)d 1.00(100.00%)
                                            0.0000  0.0000  0.0000  0.0000  0.0000
                                            0.0000  0.0000  0.0000  0.0000  0.0000
                                            0.0000  0.0000  0.0000  0.0000  0.0000
                                            0.0000  0.0000  0.0000 -0.0000  0.0000
                                            0.0000  0.0000  0.0000  0.0000  0.0000
                                           -0.0000  0.0000 -0.0000  0.0000  1.0000
                                            0.0000 -0.0000 -0.0000  0.0000  0.0000
                                            0.0000  0.0000  0.0000  0.0000  0.0000
                                            0.0000 -0.0000 -0.0000  0.0000  0.0000
                                            0.0000  0.0000 -0.0000 -0.0000  0.0000
                                            0.0000  0.0000  0.0000  0.0000  0.0000
    11. (1.99673) CR ( 8) I   3           s(  0.00%)p 0.00(  0.00%)d 1.00(100.00%)
                                           -0.0000 -0.0000  0.0000  0.0000 -0.0000
                                           -0.0000  0.0000  0.0000 -0.0000  0.0000
                                            0.0000  0.0000 -0.0000  0.0000  0.0000
                                           -0.0000  0.0000  0.0000  0.0000  0.0000
                                            0.0000  0.0000 -0.0000  0.0000 -0.0000
                                            0.0000  0.0000  0.0000  0.0000  0.0000
                                            0.0000  0.0000  0.0000  1.0000  0.0000
                                           -0.0000 -0.0000 -0.0000  0.0000 -0.0000
                                           -0.0000  0.0000  0.0000  0.0000  0.0000
                                            0.0000  0.0000  0.0000  0.0000  0.0000
                                            0.0000  0.0000  0.0000  0.0000  0.0000
    12. (1.99677) CR ( 9) I   3           s(  0.00%)p 0.00(  0.00%)d 1.00(100.00%)
                                           -0.0000 -0.0000  0.0000  0.0000 -0.0000
                                           -0.0000  0.0000 -0.0000 -0.0000  0.0000
                                            0.0000  0.0000 -0.0000  0.0000  0.0000
                                           -0.0000  0.0000  0.0000  0.0000  0.0000
                                            0.0000  0.0000 -0.0000  0.0000  0.0000
                                            0.0000  0.0000  0.0000  0.0000  0.0000
                                            0.0000  0.0000  0.0000 -0.0000  0.0000
                                           -0.0000 -0.0000  1.0000  0.0000 -0.0000
                                           -0.0000  0.0000  0.0000  0.0000  0.0000
                                            0.0000  0.0000  0.0000  0.0000  0.0000
                                            0.0000  0.0000  0.0000  0.0000  0.0000
    13. (1.97257) LP ( 1) O   1           s( 61.56%)p 0.62( 38.31%)d 0.00(  0.12%)
                                                  f 0.00(  0.00%)
                                            0.0002  0.7846  0.0041  0.0016  0.0027
                                           -0.3466 -0.0099  0.0054 -0.0011  0.5125
                                            0.0125 -0.0042 -0.0006  0.0000  0.0000
                                            0.0000  0.0000  0.0293 -0.0023 -0.0027
                                            0.0000  0.0000  0.0000  0.0000  0.0000
                                            0.0000  0.0066  0.0061 -0.0061  0.0137
                                           -0.0067  0.0034  0.0000  0.0000  0.0018
                                           -0.0015 -0.0037  0.0019  0.0000  0.0000
                                            0.0000  0.0000  0.0013  0.0021  0.0029
                                           -0.0017
    14. (1.96250) LP ( 2) O   1           s(  0.00%)p 1.00( 99.69%)d 0.00(  0.29%)
                                                  f 0.00(  0.03%)
                                            0.0000  0.0000  0.0000  0.0000  0.0000
                                            0.0000  0.0000  0.0000  0.0000  0.0000
                                            0.0000  0.0000  0.0000  0.9981  0.0251
                                           -0.0048  0.0044  0.0000  0.0000  0.0000
                                            0.0398 -0.0145  0.0038 -0.0316 -0.0033
                                            0.0062  0.0000  0.0000  0.0000  0.0000
                                            0.0000  0.0000 -0.0140  0.0046  0.0000
                                            0.0000  0.0000  0.0000  0.0044 -0.0044
                                            0.0021  0.0002  0.0000  0.0000  0.0000
                                            0.0000
    15. (1.98066) LP ( 1) I   3           s( 99.94%)p 0.00(  0.06%)d 0.00(  0.00%)
                                                  f 0.00(  0.00%)
                                            0.0000  0.9997  0.0000  0.0000 -0.0000
                                           -0.0000 -0.0000 -0.0027  0.0004 -0.0002
                                            0.0001 -0.0000 -0.0242  0.0005 -0.0008
                                            0.0001  0.0000  0.0000  0.0000  0.0000
                                            0.0000 -0.0000  0.0015 -0.0004 -0.0001
                                            0.0000  0.0000  0.0000  0.0000  0.0000
                                            0.0000  0.0000  0.0000  0.0000 -0.0024
                                            0.0004  0.0003  0.0000 -0.0019  0.0004
                                            0.0001  0.0000  0.0000 -0.0002 -0.0001
                                           -0.0008 -0.0005  0.0000  0.0000  0.0000
                                            0.0000 -0.0006 -0.0003 -0.0007 -0.0004
    16. (1.95173) LP ( 2) I   3           s(  0.00%)p 1.00(100.00%)d 0.00(  0.00%)
                                                  f 0.00(  0.00%)
                                            0.0000  0.0000  0.0000  0.0000  0.0000
                                            0.0000  0.0000  0.0000  0.0000  0.0000
                                            0.0000  0.0000  0.0000  0.0000  0.0000
                                            0.0000  0.0000  1.0000 -0.0004  0.0008
                                            0.0001  0.0000  0.0000  0.0000  0.0000
                                           -0.0000  0.0024 -0.0013  0.0011 -0.0000
                                            0.0041 -0.0010 -0.0009  0.0000  0.0000
                                            0.0000  0.0000  0.0000  0.0000  0.0000
                                            0.0000 -0.0014 -0.0011  0.0000  0.0000
                                            0.0000  0.0000 -0.0012 -0.0007  0.0010
                                            0.0009  0.0000  0.0000  0.0000  0.0000
    17. (1.95154) LP ( 3) I   3           s(  0.00%)p 1.00( 99.99%)d 0.00(  0.00%)
                                                  f 0.00(  0.00%)
                                           -0.0000  0.0032  0.0014 -0.0024  0.0021
                                           -0.0001 -0.0000 -0.9711 -0.0011 -0.0013
                                            0.0006  0.0000  0.2387 -0.0013 -0.0005
                                            0.0007 -0.0000 -0.0000 -0.0000 -0.0000
                                           -0.0000  0.0000 -0.0046  0.0011  0.0005
                                           -0.0000 -0.0000 -0.0000 -0.0000 -0.0000
                                           -0.0000 -0.0000 -0.0000  0.0000 -0.0039
                                            0.0017 -0.0008 -0.0000  0.0009 -0.0007
                                            0.0010 -0.0000 -0.0000  0.0007  0.0006
                                           -0.0001 -0.0001 -0.0000 -0.0000 -0.0000
                                           -0.0000  0.0011  0.0005 -0.0017 -0.0015
    18. (1.94694) LP ( 4) I   3           s(  0.06%)p99.99( 99.91%)d 0.45(  0.03%)
                                                  f 0.03(  0.00%)
                                            0.0000  0.0241 -0.0008 -0.0013  0.0007
                                            0.0002 -0.0000  0.2387  0.0011 -0.0001
                                           -0.0005 -0.0000  0.9706 -0.0006 -0.0020
                                            0.0005  0.0000  0.0000  0.0000  0.0000
                                            0.0000 -0.0000  0.0076 -0.0010 -0.0002
                                            0.0000  0.0000  0.0000  0.0000  0.0000
                                            0.0000  0.0000  0.0000  0.0000 -0.0112
                                            0.0007  0.0023  0.0000 -0.0085  0.0011
                                            0.0004  0.0000  0.0000 -0.0007 -0.0004
                                           -0.0026 -0.0017  0.0000  0.0000  0.0000
                                            0.0000 -0.0019 -0.0006 -0.0022 -0.0011
    19. (0.01843) RY*( 1) O   1           s(  0.00%)p 1.00( 97.05%)d 0.03(  2.85%)
                                                  f 0.00(  0.10%)
                                            0.0000  0.0000  0.0000  0.0000  0.0000
                                            0.0000  0.0000  0.0000  0.0000  0.0000
                                            0.0000  0.0000  0.0000 -0.0332  0.9843
                                            0.0244 -0.0054  0.0000  0.0000  0.0000
                                            0.1593 -0.0402  0.0076 -0.0357 -0.0024
                                            0.0119  0.0000  0.0000  0.0000  0.0000
                                            0.0000  0.0000 -0.0182  0.0139  0.0000
                                            0.0000  0.0000  0.0000  0.0176 -0.0128
                                           -0.0048  0.0012  0.0000  0.0000  0.0000
                                            0.0000
    20. (0.01501) RY*( 2) O   1           s( 12.24%)p 6.93( 84.81%)d 0.23(  2.84%)
                                                  f 0.01(  0.11%)
                                            0.0000 -0.0193  0.3493  0.0033  0.0045
                                            0.0145 -0.4697  0.0023 -0.0021 -0.0032
                                            0.7913  0.0265 -0.0192  0.0000  0.0000
                                            0.0000  0.0000  0.1592 -0.0102 -0.0100
                                            0.0000  0.0000  0.0000  0.0000  0.0000
                                            0.0000  0.0035  0.0208 -0.0181  0.0301
                                           -0.0319  0.0106  0.0000  0.0000  0.0019
                                           -0.0059 -0.0025  0.0082  0.0000  0.0000
                                            0.0000  0.0000  0.0169  0.0039  0.0252
                                           -0.0095
    21. (0.00920) RY*( 3) O   1           s(  1.02%)p89.95( 91.74%)d 6.89(  7.02%)
                                                  f 0.22(  0.22%)
                                           -0.0000  0.0024  0.0922 -0.0411  0.0020
                                           -0.0316 -0.8160  0.0077  0.0087 -0.0252
                                           -0.4962 -0.0418  0.0419 -0.0000 -0.0000
                                           -0.0000 -0.0000 -0.1515  0.0100 -0.0077
                                           -0.0000 -0.0000 -0.0000 -0.0000 -0.0000
                                           -0.0000  0.1796  0.1043 -0.0448 -0.0124
                                           -0.0340  0.0256 -0.0000 -0.0000 -0.0231
                                           -0.0054 -0.0087 -0.0024 -0.0000 -0.0000
                                           -0.0000 -0.0000  0.0074  0.0082 -0.0354
                                            0.0144
    22. (0.00626) RY*( 4) O   1           s( 38.56%)p 0.08(  3.12%)d 1.50( 57.66%)
                                                  f 0.02(  0.66%)
                                            0.0000  0.0137  0.6205 -0.0180 -0.0014
                                           -0.0059  0.1704 -0.0155 -0.0017  0.0093
                                           -0.0407 -0.0110 -0.0068 -0.0000 -0.0000
                                           -0.0000 -0.0000 -0.6768 -0.0330  0.0111
                                           -0.0000 -0.0000 -0.0000 -0.0000 -0.0000
                                           -0.0000 -0.1842 -0.0270  0.0162  0.2839
                                            0.0423 -0.0038 -0.0000 -0.0000 -0.0024
                                            0.0098  0.0102 -0.0070 -0.0000 -0.0000
                                           -0.0000 -0.0000 -0.0736  0.0154 -0.0252
                                            0.0066
    23. (0.00612) RY*( 5) O   1           s(  0.00%)p 1.00(  1.22%)d80.04( 97.52%)
                                                  f 1.04(  1.26%)
                                            0.0000  0.0000  0.0000  0.0000  0.0000
                                            0.0000  0.0000  0.0000  0.0000  0.0000
                                            0.0000  0.0000  0.0000 -0.0106 -0.1088
                                           -0.0062 -0.0141  0.0000  0.0000  0.0000
                                            0.8027  0.0726 -0.0192  0.5681  0.0483
                                           -0.0081  0.0000  0.0000  0.0000  0.0000
                                            0.0000  0.0000 -0.0023  0.0017  0.0000
                                            0.0000  0.0000  0.0000  0.1015 -0.0415
                                           -0.0230  0.0085  0.0000  0.0000  0.0000
                                            0.0000
    24. (0.00584) RY*( 6) O   1           s(  0.00%)p 1.00(  1.68%)d58.12( 97.42%)
                                                  f 0.54(  0.90%)
                                            0.0000  0.0000  0.0000  0.0000  0.0000
                                            0.0000  0.0000  0.0000  0.0000  0.0000
                                            0.0000  0.0000  0.0000  0.0452  0.1191
                                            0.0227 -0.0042  0.0000  0.0000  0.0000
                                           -0.5552 -0.0698  0.0163  0.8089  0.0802
                                           -0.0063  0.0000  0.0000  0.0000  0.0000
                                            0.0000  0.0000  0.0781 -0.0318  0.0000
                                            0.0000  0.0000  0.0000  0.0199 -0.0073
                                            0.0356 -0.0133  0.0000  0.0000  0.0000
                                            0.0000
    25. (0.00573) RY*( 7) O   1           s(  9.17%)p 0.66(  6.01%)d 9.17( 84.01%)
                                                  f 0.09(  0.81%)
                                           -0.0000  0.0102  0.3017 -0.0202 -0.0109
                                            0.0258  0.0846  0.0095 -0.0129 -0.0460
                                           -0.2191 -0.0433  0.0059  0.0000  0.0000
                                            0.0000  0.0000  0.5617  0.0491 -0.0123
                                            0.0000  0.0000  0.0000  0.0000  0.0000
                                            0.0000  0.1500  0.0034  0.0102  0.7005
                                            0.0927 -0.0129  0.0000  0.0000  0.0475
                                           -0.0170 -0.0582  0.0196  0.0000  0.0000
                                            0.0000  0.0000  0.0367 -0.0189  0.0075
                                           -0.0053
    26. (0.00317) RY*( 8) O   1           s( 35.42%)p 0.22(  7.80%)d 1.59( 56.20%)
                                                  f 0.02(  0.58%)
                                            0.0000 -0.0070  0.5947  0.0110 -0.0203
                                           -0.0248  0.2190 -0.0337 -0.0147 -0.0064
                                           -0.1652 -0.0245 -0.0118  0.0000  0.0000
                                            0.0000  0.0000  0.2509  0.0332 -0.0015
                                            0.0000  0.0000  0.0000  0.0000  0.0000
                                            0.0000  0.3516  0.0389  0.0159 -0.5980
                                           -0.1219 -0.0093  0.0000  0.0000 -0.0197
                                            0.0265  0.0104 -0.0139  0.0000  0.0000
                                            0.0000  0.0000  0.0397 -0.0452 -0.0282
                                            0.0017
    27. (0.00269) RY*( 9) O   1           s(  3.57%)p 1.93(  6.88%)d24.74( 88.43%)
                                                  f 0.31(  1.12%)
                                            0.0000 -0.0033  0.1871  0.0267 -0.0015
                                            0.0364 -0.1210  0.0686 -0.0197  0.0297
                                           -0.2079  0.0573 -0.0187 -0.0000 -0.0000
                                           -0.0000 -0.0000  0.3060  0.0680  0.0016
                                           -0.0000 -0.0000 -0.0000 -0.0000 -0.0000
                                           -0.0000 -0.8533 -0.1445 -0.0219 -0.1858
                                           -0.0438 -0.0084 -0.0000 -0.0000  0.0140
                                           -0.0163  0.0165 -0.0241 -0.0000 -0.0000
                                           -0.0000 -0.0000 -0.0428  0.0122  0.0772
                                           -0.0440
    28. (0.00076) RY*(10) O   1           s( 44.44%)p 0.99( 43.98%)d 0.21(  9.51%)
                                                  f 0.05(  2.07%)
                                           -0.0000 -0.0035 -0.0191  0.6661  0.0178
                                           -0.0044 -0.0335  0.0004 -0.0877 -0.0041
                                            0.0041 -0.5935 -0.2806 -0.0000 -0.0000
                                           -0.0000 -0.0000 -0.0297  0.1332 -0.0504
                                           -0.0000 -0.0000 -0.0000 -0.0000 -0.0000
                                           -0.0000  0.0198 -0.2061  0.0716  0.0279
                                           -0.1510  0.0489 -0.0000 -0.0000  0.0135
                                            0.0159  0.0050  0.0809 -0.0000 -0.0000
                                           -0.0000 -0.0000 -0.0140  0.0728  0.0254
                                            0.0867
    29. (0.00055) RY*(11) O   1           s(  0.00%)p 1.00( 50.34%)d 0.89( 44.61%)
                                                  f 0.10(  5.05%)
                                            0.0000  0.0000  0.0000  0.0000  0.0000
                                            0.0000  0.0000  0.0000  0.0000  0.0000
                                            0.0000  0.0000  0.0000 -0.0044 -0.0401
                                            0.7080  0.0219  0.0000  0.0000  0.0000
                                            0.0313 -0.2964 -0.0561 -0.0486  0.5767
                                            0.1384  0.0000  0.0000  0.0000  0.0000
                                            0.0000  0.0000 -0.2157  0.0327  0.0000
                                            0.0000  0.0000  0.0000 -0.0466 -0.0051
                                           -0.0239 -0.0129  0.0000  0.0000  0.0000
                                            0.0000
    30. (0.00056) RY*(12) O   1           s(  1.03%)p55.91( 57.62%)d34.87( 35.93%)
                                                  f 5.25(  5.41%)
                                           -0.0000  0.0083  0.0026  0.0822 -0.0590
                                            0.0002 -0.0502 -0.7501  0.0584 -0.0060
                                           -0.0398  0.0774  0.0041 -0.0000 -0.0000
                                           -0.0000 -0.0000  0.0295 -0.5028 -0.0902
                                           -0.0000 -0.0000 -0.0000 -0.0000 -0.0000
                                           -0.0000 -0.0099 -0.3045  0.0156 -0.0037
                                           -0.0125 -0.0660 -0.0000 -0.0000  0.1388
                                            0.0153 -0.1502  0.0045 -0.0000 -0.0000
                                           -0.0000 -0.0000  0.0536 -0.0522  0.0798
                                           -0.0094
    31. (0.00053) RY*(13) O   1           s(  0.00%)p 1.00( 12.64%)d 4.68( 59.13%)
                                                  f 2.23( 28.23%)
                                            0.0000  0.0000  0.0000  0.0000  0.0000
                                            0.0000  0.0000  0.0000  0.0000  0.0000
                                            0.0000  0.0000  0.0000  0.0171  0.0362
                                            0.3476  0.0632  0.0000  0.0000  0.0000
                                           -0.0044  0.7364  0.2143  0.0133  0.0487
                                            0.0243  0.0000  0.0000  0.0000  0.0000
                                            0.0000  0.0000  0.2919 -0.0229  0.0000
                                            0.0000  0.0000  0.0000 -0.4297  0.0416
                                            0.1008  0.0026  0.0000  0.0000  0.0000
                                            0.0000
    32. (0.00048) RY*(14) O   1           s(  0.57%)p18.86( 10.84%)d99.99( 70.63%)
                                                  f31.22( 17.95%)
                                           -0.0000 -0.0014 -0.0167  0.0098  0.0733
                                            0.0022  0.0314  0.1502 -0.0290 -0.0092
                                           -0.0304  0.2781 -0.0753 -0.0000 -0.0000
                                           -0.0000 -0.0000 -0.0453 -0.0908 -0.0697
                                           -0.0000 -0.0000 -0.0000 -0.0000 -0.0000
                                           -0.0000  0.0472 -0.0380 -0.0595  0.1404
                                           -0.7985 -0.1633 -0.0000 -0.0000 -0.0375
                                           -0.0161  0.0793  0.0562 -0.0000 -0.0000
                                           -0.0000 -0.0000  0.2095  0.0893  0.3379
                                            0.0483
    33. (0.00046) RY*(15) O   1           s(  0.39%)p19.57(  7.71%)d28.16( 11.10%)
                                                  f99.99( 80.80%)
                                            0.0000  0.0030 -0.0084  0.0601  0.0158
                                            0.0021 -0.0224 -0.1749 -0.0092  0.0065
                                            0.0002  0.2116 -0.0335  0.0000  0.0000
                                            0.0000  0.0000 -0.0082  0.2616  0.0835
                                            0.0000  0.0000  0.0000  0.0000  0.0000
                                            0.0000 -0.0032 -0.1615 -0.0249  0.0398
                                           -0.0802 -0.0276  0.0000  0.0000  0.3524
[...]
                                            0.0272 -0.0281 -0.1612  0.0790 -0.0227
                                           -0.0000 -0.0000 -0.0000  0.0242 -0.0239
                                           -0.0000 -0.0000 -0.0000 -0.0000 -0.0848
                                            0.0342  0.0717  0.0226
   127. (0.00243) RY*( 4) H   4           s( 44.72%)p 1.22( 54.71%)d 0.01(  0.57%)
                                            0.0234  0.6056 -0.2763 -0.0600 -0.1334
                                           -0.0199  0.0339  0.6981 -0.1925  0.0583
                                            0.0000  0.0000  0.0000  0.0433  0.0097
                                            0.0000  0.0000  0.0000  0.0000 -0.0397
                                           -0.0388 -0.0225 -0.0129
   128. (0.00068) RY*( 5) H   4           s( 63.44%)p 0.55( 34.70%)d 0.03(  1.86%)
                                           -0.0071  0.1631  0.7700 -0.1219  0.0436
                                            0.4478 -0.0013  0.2582  0.2760 -0.0417
                                            0.0000  0.0000  0.0000 -0.0209  0.0733
                                            0.0000  0.0000  0.0000  0.0000  0.1039
                                           -0.0422  0.0139  0.0047
   129. (0.00038) RY*( 6) H   4           s(  8.15%)p11.08( 90.31%)d 0.19(  1.53%)
                                           -0.0098  0.0636  0.2641 -0.0876  0.0124
                                           -0.8252  0.1369  0.1252  0.4326 -0.0220
                                           -0.0000 -0.0000 -0.0000  0.0507 -0.0576
                                           -0.0000 -0.0000 -0.0000 -0.0000 -0.0530
                                           -0.0731 -0.0032 -0.0353
   130. (0.00037) RY*( 7) H   4           s(  0.00%)p 1.00( 95.31%)d 0.05(  4.69%)
                                            0.0000  0.0000  0.0000  0.0000  0.0000
                                            0.0000  0.0000  0.0000  0.0000  0.0000
                                           -0.1503  0.9640  0.0345  0.0000  0.0000
                                            0.1068 -0.0266  0.1280  0.1357  0.0000
                                            0.0000  0.0000  0.0000
   131. (0.00032) RY*( 8) H   4           s(  3.95%)p12.24( 48.33%)d12.08( 47.72%)
                                            0.0137  0.0725  0.0386  0.1804  0.0049
                                           -0.1292 -0.1853  0.0622 -0.1198 -0.6434
                                            0.0000  0.0000  0.0000 -0.1780 -0.1907
                                            0.0000  0.0000  0.0000  0.0000  0.4307
                                            0.2787  0.3077  0.2265
   132. (0.00025) RY*( 9) H   4           s(  1.36%)p 9.52( 12.98%)d62.81( 85.65%)
                                            0.0000 -0.0368  0.0238  0.1083 -0.0741
                                           -0.0023  0.3329 -0.0293 -0.1115 -0.0132
                                            0.0000  0.0000  0.0000  0.6260 -0.0461
                                            0.0000  0.0000  0.0000  0.0000  0.5904
                                           -0.0757 -0.3280 -0.0253
   133. (0.00021) RY*(10) H   4           s(  0.00%)p 1.00(  5.76%)d16.35( 94.24%)
                                            0.0000  0.0000  0.0000  0.0000  0.0000
                                            0.0000  0.0000  0.0000  0.0000  0.0000
                                            0.0076 -0.1395  0.1952  0.0000  0.0000
                                            0.1756 -0.1551  0.9365 -0.1020  0.0000
                                            0.0000  0.0000  0.0000
   134. (0.00015) RY*(11) H   4           s(  0.00%)p 1.00(  0.96%)d99.99( 99.04%)
                                            0.0000  0.0000  0.0000  0.0000  0.0000
                                            0.0000  0.0000  0.0000  0.0000  0.0000
                                           -0.0322 -0.0562 -0.0732  0.0000  0.0000
                                            0.9056  0.3671 -0.1179 -0.1473  0.0000
                                            0.0000  0.0000  0.0000
   135. (0.00016) RY*(12) H   4           s(  0.11%)p15.39(  1.76%)d99.99( 98.13%)
                                            0.0026  0.0019  0.0327  0.0078  0.0865
                                            0.0271  0.0517 -0.0235 -0.0636  0.0454
                                            0.0000  0.0000  0.0000  0.5577  0.0402
                                            0.0000  0.0000  0.0000  0.0000 -0.2316
                                           -0.1572  0.7162  0.2783
   136. (0.00013) RY*(13) H   4           s(  0.00%)p 1.00( 74.69%)d 0.34( 25.31%)
                                            0.0000  0.0000  0.0000  0.0000  0.0000
                                            0.0000  0.0000  0.0000  0.0000  0.0000
                                            0.0337 -0.0806  0.8598  0.0000  0.0000
                                            0.0979  0.0600 -0.1491  0.4666  0.0000
                                            0.0000  0.0000  0.0000
   137. (0.00014) RY*(14) H   4           s(  7.98%)p 7.48( 59.67%)d 4.06( 32.35%)
                                            0.0107 -0.0039  0.0969  0.2651 -0.0240
                                           -0.0329  0.7372 -0.0093 -0.2016 -0.1042
                                            0.0000  0.0000  0.0000 -0.3049  0.4489
                                            0.0000  0.0000  0.0000  0.0000 -0.0958
                                            0.0506  0.0855  0.0999
   138. (0.00011) RY*(15) H   4           s( 24.88%)p 1.86( 46.30%)d 1.16( 28.83%)
                                            0.0108  0.0226  0.3207  0.3812 -0.0415
                                           -0.2120 -0.2570 -0.0168 -0.4584  0.3740
                                           -0.0000 -0.0000 -0.0000 -0.2082 -0.0684
                                           -0.0000 -0.0000 -0.0000 -0.0000  0.1903
                                           -0.4379  0.0987 -0.0504
   139. (0.00009) RY*(16) H   4           s( 28.23%)p 0.26(  7.27%)d 2.29( 64.51%)
   140. (0.00009) RY*(17) H   4           s(  0.00%)p 1.00(  0.78%)d99.99( 99.22%)
   141. (0.00008) RY*(18) H   4           s(  0.43%)p 5.31(  2.30%)d99.99( 97.27%)
   142. (0.00005) RY*(19) H   4           s( 49.14%)p 0.92( 45.06%)d 0.12(  5.80%)
   143. (0.00003) RY*(20) H   4           s(  1.17%)p18.51( 21.74%)d65.62( 77.08%)
   144. (0.00003) RY*(21) H   4           s(  0.00%)p 1.00( 22.91%)d 3.37( 77.09%)
   145. (0.00002) RY*(22) H   4           s(  6.82%)p 5.39( 36.80%)d 8.27( 56.38%)
   146. (0.01916) BD*( 1) O   1 - H   2  
                ( 16.11%)   0.4014* O   1 s( 15.80%)p 5.30( 83.84%)d 0.02(  0.35%)
                                                  f 0.00(  0.01%)
                                           -0.0002 -0.3975 -0.0019 -0.0025  0.0041
                                           -0.9153  0.0153 -0.0059  0.0012 -0.0123
                                            0.0106 -0.0008  0.0038 -0.0000 -0.0000
                                           -0.0000 -0.0000  0.0251 -0.0022 -0.0021
                                           -0.0000 -0.0000 -0.0000 -0.0000 -0.0000
                                           -0.0000 -0.0426  0.0092 -0.0052  0.0299
                                           -0.0034  0.0014 -0.0000 -0.0000  0.0096
                                           -0.0009 -0.0002  0.0001 -0.0000 -0.0000
                                           -0.0000 -0.0000 -0.0019 -0.0016 -0.0018
                                           -0.0003
                ( 83.89%)  -0.9159* H   2 s( 99.79%)p 0.00(  0.17%)d 0.00(  0.03%)
                                           -0.9990  0.0024  0.0003 -0.0001 -0.0073
                                           -0.0407  0.0020  0.0007  0.0013  0.0021
                                           -0.0000 -0.0000 -0.0000 -0.0001  0.0025
                                           -0.0000 -0.0000 -0.0000 -0.0000 -0.0136
                                            0.0049  0.0107 -0.0017
   147. (0.01522) BD*( 1) O   1 - H   4  
                ( 15.12%)   0.3888* O   1 s( 22.56%)p 3.42( 77.11%)d 0.01(  0.32%)
                                                  f 0.00(  0.01%)
                                            0.0002  0.4749 -0.0089 -0.0052 -0.0018
                                           -0.1931  0.0120  0.0016  0.0007 -0.8561
                                            0.0258 -0.0062  0.0050 -0.0000 -0.0000
                                           -0.0000 -0.0000 -0.0073  0.0056  0.0006
                                           -0.0000 -0.0000 -0.0000 -0.0000 -0.0000
                                           -0.0000 -0.0470  0.0051 -0.0042 -0.0298
                                           -0.0016  0.0005 -0.0000 -0.0000  0.0017
                                           -0.0004  0.0083  0.0000 -0.0000 -0.0000
                                           -0.0000 -0.0000  0.0021  0.0025 -0.0017
                                            0.0045
                ( 84.88%)  -0.9213* H   4 s( 99.85%)p 0.00(  0.14%)d 0.00(  0.00%)
                                            0.9991 -0.0168  0.0024  0.0002  0.0198
                                            0.0026 -0.0009 -0.0069  0.0301  0.0100
                                           -0.0000 -0.0000 -0.0000  0.0028 -0.0024
                                           -0.0000 -0.0000 -0.0000 -0.0000  0.0012
                                           -0.0009 -0.0050 -0.0030


 NHO Directionality and "Bond Bending" (deviations from line of nuclear centers)

         [Thresholds for printing:  angular deviation  >  1.0 degree]
                                    hybrid p-character > 25.0%
                                    orbital occupancy  >  0.10e

                                Line of Centers        Hybrid 1              Hybrid 2
                                ---------------  -------------------   ------------------
                NBO               Theta   Phi    Theta   Phi    Dev    Theta   Phi    Dev
 ========================================================================================
    13. LP (   1) O   1             --     --     90.0  124.1   --       --     --    --
    14. LP (   2) O   1             --     --      0.0    0.0   --       --     --    --
    16. LP (   2) I   3             --     --      0.0    0.0   --       --     --    --
    17. LP (   3) I   3             --     --     90.0  166.3   --       --     --    --
    18. LP (   4) I   3             --     --     90.0   76.1   --       --     --    --


 Natural Bond Orbitals (Summary):

           NBO                  Occupancy  
 -----------------------------------------------
 Molecular unit  1  (H2O)
     1. BD (   1) O   1 - H   2          1.96536
     2. BD (   1) O   1 - H   4          1.97075
     3. CR (   1) O   1                  1.99990
    13. LP (   1) O   1                  1.97257
    14. LP (   2) O   1                  1.96250
    19. RY*(   1) O   1                  0.01843
    20. RY*(   2) O   1                  0.01501
    21. RY*(   3) O   1                  0.00920
    22. RY*(   4) O   1                  0.00626
    23. RY*(   5) O   1                  0.00612
    24. RY*(   6) O   1                  0.00584
    25. RY*(   7) O   1                  0.00573
    26. RY*(   8) O   1                  0.00317
    27. RY*(   9) O   1                  0.00269
    28. RY*(  10) O   1                  0.00076
    29. RY*(  11) O   1                  0.00055
    30. RY*(  12) O   1                  0.00056
    31. RY*(  13) O   1                  0.00053
    32. RY*(  14) O   1                  0.00048
    33. RY*(  15) O   1                  0.00046
    34. RY*(  16) O   1                  0.00043
    35. RY*(  17) O   1                  0.00043
    36. RY*(  18) O   1                  0.00043
    37. RY*(  19) O   1                  0.00041
    38. RY*(  20) O   1                  0.00041
    39. RY*(  21) O   1                  0.00032
    40. RY*(  22) O   1                  0.00031
    41. RY*(  23) O   1                  0.00025
    42. RY*(  24) O   1                  0.00022
    43. RY*(  25) O   1                  0.00019
    44. RY*(  26) O   1                  0.00012
    45. RY*(  27) O   1                  0.00007
    46. RY*(  28) O   1                  0.00008
    47. RY*(  29) O   1                  0.00007
    48. RY*(  30) O   1                  0.00007
    49. RY*(  31) O   1                  0.00007
    50. RY*(  32) O   1                  0.00008
    51. RY*(  33) O   1                  0.00006
    52. RY*(  34) O   1                  0.00007
    53. RY*(  35) O   1                  0.00007
    54. RY*(  36) O   1                  0.00005
    55. RY*(  37) O   1                  0.00005
    56. RY*(  38) O   1                  0.00005
    57. RY*(  39) O   1                  0.00001
    58. RY*(  40) O   1                  0.00001
    59. RY*(  41) O   1                 -0.00005
    60. RY*(   1) H   2                  0.00163
    61. RY*(   2) H   2                  0.00148
    62. RY*(   3) H   2                  0.00060
    63. RY*(   4) H   2                  0.00029
    64. RY*(   5) H   2                  0.00022
    65. RY*(   6) H   2                  0.00015
    66. RY*(   7) H   2                  0.00012
    67. RY*(   8) H   2                  0.00010
    68. RY*(   9) H   2                  0.00011
    69. RY*(  10) H   2                  0.00007
    70. RY*(  11) H   2                  0.00006
    71. RY*(  12) H   2                  0.00006
    72. RY*(  13) H   2                  0.00003
    73. RY*(  14) H   2                  0.00003
    74. RY*(  15) H   2                  0.00003
    75. RY*(  16) H   2                  0.00003
    76. RY*(  17) H   2                  0.00004
    77. RY*(  18) H   2                  0.00001
    78. RY*(  19) H   2                  0.00002
    79. RY*(  20) H   2                  0.00002
    80. RY*(  21) H   2                  0.00001
    81. RY*(  22) H   2                  0.00001
   124. RY*(   1) H   4                  0.00818
   125. RY*(   2) H   4                  0.00483
   126. RY*(   3) H   4                  0.00398
   127. RY*(   4) H   4                  0.00243
   128. RY*(   5) H   4                  0.00068
   129. RY*(   6) H   4                  0.00038
   130. RY*(   7) H   4                  0.00037
   131. RY*(   8) H   4                  0.00032
   132. RY*(   9) H   4                  0.00025
   133. RY*(  10) H   4                  0.00021
   134. RY*(  11) H   4                  0.00015
   135. RY*(  12) H   4                  0.00016
   136. RY*(  13) H   4                  0.00013
   137. RY*(  14) H   4                  0.00014
   138. RY*(  15) H   4                  0.00011
   139. RY*(  16) H   4                  0.00009
   140. RY*(  17) H   4                  0.00009
   141. RY*(  18) H   4                  0.00008
   142. RY*(  19) H   4                  0.00005
   143. RY*(  20) H   4                  0.00003
   144. RY*(  21) H   4                  0.00003
   145. RY*(  22) H   4                  0.00002
   146. BD*(   1) O   1 - H   2          0.01916
   147. BD*(   1) O   1 - H   4          0.01522
       -------------------------------
              Total Lewis    9.87108  ( 98.5788%)
        Valence non-Lewis    0.03438  (  0.3433%)
        Rydberg non-Lewis    0.10793  (  1.0778%)
       -------------------------------
            Total unit  1   10.01338  (100.0000%)
           Charge unit  1   -0.01338

 Molecular unit  2  (I)
     4. CR (   1) I   3                  2.00003
     5. CR (   2) I   3                  2.00007
     6. CR (   3) I   3                  2.00007
     7. CR (   4) I   3                  2.00007
     8. CR (   5) I   3                  1.99675
     9. CR (   6) I   3                  1.99678
    10. CR (   7) I   3                  1.99676
    11. CR (   8) I   3                  1.99673
    12. CR (   9) I   3                  1.99677
    15. LP (   1) I   3                  1.98066
    16. LP (   2) I   3                  1.95173
    17. LP (   3) I   3                  1.95154
    18. LP (   4) I   3                  1.94694
    82. RY*(   1) I   3                  0.02035
    83. RY*(   2) I   3                  0.02031
    84. RY*(   3) I   3                  0.02028
    85. RY*(   4) I   3                  0.02018
    86. RY*(   5) I   3                  0.02018
    87. RY*(   6) I   3                  0.01119
    88. RY*(   7) I   3                  0.01115
    89. RY*(   8) I   3                  0.01039
    90. RY*(   9) I   3                  0.00423
    91. RY*(  10) I   3                  0.00279
    92. RY*(  11) I   3                  0.00279
    93. RY*(  12) I   3                  0.00277
    94. RY*(  13) I   3                  0.00277
    95. RY*(  14) I   3                  0.00272
    96. RY*(  15) I   3                  0.00272
    97. RY*(  16) I   3                  0.00271
    98. RY*(  17) I   3                  0.00169
    99. RY*(  18) I   3                  0.00169
   100. RY*(  19) I   3                  0.00145
   101. RY*(  20) I   3                  0.00146
   102. RY*(  21) I   3                  0.00125
   103. RY*(  22) I   3                  0.00075
   104. RY*(  23) I   3                  0.00075
   105. RY*(  24) I   3                  0.00071
   106. RY*(  25) I   3                  0.00052
   107. RY*(  26) I   3                  0.00044
   108. RY*(  27) I   3                  0.00044
   109. RY*(  28) I   3                  0.00042
   110. RY*(  29) I   3                  0.00043
   111. RY*(  30) I   3                  0.00041
   112. RY*(  31) I   3                  0.00041
   113. RY*(  32) I   3                  0.00036
   114. RY*(  33) I   3                  0.00017
   115. RY*(  34) I   3                  0.00015
   116. RY*(  35) I   3                  0.00016
   117. RY*(  36) I   3                  0.00015
   118. RY*(  37) I   3                  0.00012
   119. RY*(  38) I   3                  0.00007
   120. RY*(  39) I   3                  0.00008
   121. RY*(  40) I   3                  0.00008
   122. RY*(  41) I   3                  0.00007
   123. RY*(  42) I   3                  0.00000
       -------------------------------
              Total Lewis   53.81491  ( 99.6819%)
        Valence non-Lewis    0.00000  (  0.0000%)
        Rydberg non-Lewis    0.17171  (  0.3181%)
       -------------------------------
            Total unit  2   53.98662  (100.0000%)
           Charge unit  2   -0.98662
 Leave Link  607 at Tue Oct 12 16:21:47 2021, MaxMem=  1048576000 cpu:         5.6
 (Enter /usr/local/gaussian/g09/l9999.exe)
 1\1\GINC-KRYPTON\SP\RMP2-FC\Gen\H2I1O1(1-)\CGAVINH\12-Oct-2021\0\\#p p
 op=NBO SP NoSymm mp2/gen Pseudo=read density=current\\title\\-1,1\O\X,
 1,10.\H,1,0.9609077,2,90.\I,1,3.50850362,2,90.,3,101.85830594,0\H,1,0.
 85,2,90.,3,101.85830594,0\\Version=ES64L-G09RevE.01\HF=-370.8041019\MP
 2=-371.2943909\RMSD=2.982e-09\Dipole=0.7623949,0.8968881,0.\Quadrupole
 =13.0263728,-25.7311883,12.7048155,-7.6161782,0.,0.\PG=CS [SG(H2I1O1)]
 \\@


 THERE IS AN OLD, OLD RECIPE IN MAINE FOR STEWING COOT. PLACE THE
 BIRD IN A KETTLE OF WATER WITH A RED BUILDING BRICK FREE OF MORTAR AND
 BLEMISHES. PARBOIL THE COOT AND BRICK TOGETHER FOR THREE HOURS.
 POUR OFF THE WATER, REFILL THE KETTLE, AND AGAIN PARBOIL FOR THREE HOURS.
 ONCE AGAIN POUR OFF THE WATER, FOR THE LAST TIME ADD FRESH WATER,
 AND LET THE COOT AND BRICK SIMMER TOGETHER OVERNIGHT. IN THE MORNING,
 THROW AWAY THE COOT AND EAT THE BRICK.
 Job cpu time:       0 days  0 hours  2 minutes 35.4 seconds.
 File lengths (MBytes):  RWF=     15 Int=      0 D2E=      0 Chk=      3 Scr=      1
 Normal termination of Gaussian 09 at Tue Oct 12 16:21:47 2021.
