 Entering Gaussian System, Link 0=g09
 Input=ihod_rOH_120_sp.gjf
 Output=ihod_rOH_120_sp.log
 Initial command:
 /usr/local/gaussian/g09/l1.exe "/scratch/Gau-2385.inp" -scrdir="/scratch/"
 Entering Link 1 = /usr/local/gaussian/g09/l1.exe PID=      2386.
  
 Copyright (c) 1988,1990,1992,1993,1995,1998,2003,2009,2015,
            Gaussian, Inc.  All Rights Reserved.
  
 This is part of the Gaussian(R) 09 program.  It is based on
 the Gaussian(R) 03 system (copyright 2003, Gaussian, Inc.),
 the Gaussian(R) 98 system (copyright 1998, Gaussian, Inc.),
 the Gaussian(R) 94 system (copyright 1995, Gaussian, Inc.),
 the Gaussian 92(TM) system (copyright 1992, Gaussian, Inc.),
 the Gaussian 90(TM) system (copyright 1990, Gaussian, Inc.),
 the Gaussian 88(TM) system (copyright 1988, Gaussian, Inc.),
 the Gaussian 86(TM) system (copyright 1986, Carnegie Mellon
 University), and the Gaussian 82(TM) system (copyright 1983,
 Carnegie Mellon University). Gaussian is a federally registered
 trademark of Gaussian, Inc.
  
 This software contains proprietary and confidential information,
 including trade secrets, belonging to Gaussian, Inc.
  
 This software is provided under written license and may be
 used, copied, transmitted, or stored only in accord with that
 written license.
  
 The following legend is applicable only to US Government
 contracts under FAR:
  
                    RESTRICTED RIGHTS LEGEND
  
 Use, reproduction and disclosure by the US Government is
 subject to restrictions as set forth in subparagraphs (a)
 and (c) of the Commercial Computer Software - Restricted
 Rights clause in FAR 52.227-19.
  
 Gaussian, Inc.
 340 Quinnipiac St., Bldg. 40, Wallingford CT 06492
  
  
 ---------------------------------------------------------------
 Warning -- This program may not be used in any manner that
 competes with the business of Gaussian, Inc. or will provide
 assistance to any competitor of Gaussian, Inc.  The licensee
 of this program is prohibited from giving any competitor of
 Gaussian, Inc. access to this program.  By using this program,
 the user acknowledges that Gaussian, Inc. is engaged in the
 business of creating and licensing software in the field of
 computational chemistry and represents and warrants to the
 licensee that it is not a competitor of Gaussian, Inc. and that
 it will not use this program in any manner prohibited above.
 ---------------------------------------------------------------
  

 Cite this work as:
 Gaussian 09, Revision E.01,
 M. J. Frisch, G. W. Trucks, H. B. Schlegel, G. E. Scuseria, 
 M. A. Robb, J. R. Cheeseman, G. Scalmani, V. Barone, B. Mennucci, 
 G. A. Petersson, H. Nakatsuji, M. Caricato, X. Li, H. P. Hratchian, 
 A. F. Izmaylov, J. Bloino, G. Zheng, J. L. Sonnenberg, M. Hada, 
 M. Ehara, K. Toyota, R. Fukuda, J. Hasegawa, M. Ishida, T. Nakajima, 
 Y. Honda, O. Kitao, H. Nakai, T. Vreven, J. A. Montgomery, Jr., 
 J. E. Peralta, F. Ogliaro, M. Bearpark, J. J. Heyd, E. Brothers, 
 K. N. Kudin, V. N. Staroverov, T. Keith, R. Kobayashi, J. Normand, 
 K. Raghavachari, A. Rendell, J. C. Burant, S. S. Iyengar, J. Tomasi, 
 M. Cossi, N. Rega, J. M. Millam, M. Klene, J. E. Knox, J. B. Cross, 
 V. Bakken, C. Adamo, J. Jaramillo, R. Gomperts, R. E. Stratmann, 
 O. Yazyev, A. J. Austin, R. Cammi, C. Pomelli, J. W. Ochterski, 
 R. L. Martin, K. Morokuma, V. G. Zakrzewski, G. A. Voth, 
 P. Salvador, J. J. Dannenberg, S. Dapprich, A. D. Daniels, 
 O. Farkas, J. B. Foresman, J. V. Ortiz, J. Cioslowski, 
 and D. J. Fox, Gaussian, Inc., Wallingford CT, 2013.
 
 ******************************************
 Gaussian 09:  ES64L-G09RevE.01 30-Nov-2015
                12-Oct-2021 
 ******************************************
 %nproc=12
 Will use up to   12 processors via shared memory.
 %mem=8000MB
 %chk=/home/netid.washington.edu/cgavinh/mccoy_hocl/rOH_s_oop_0/ihod/ihod_rOH_120
 _sp.chk
 --------------------------------------------------------
 #p pop=NBO SP NoSymm mp2/gen Pseudo=read density=current
 --------------------------------------------------------
 1/30=1,38=1/1;
 2/12=2,15=1,17=6,18=5,40=1/2;
 3/5=7,11=9,16=1,17=8,25=1,30=1,71=1/1,2,3;
 4//1;
 5/5=2,38=5/2;
 8/6=4,10=1/1;
 9/15=1,16=-3/6;
 10/5=1,13=10,31=1/2;
 6/7=2,8=2,9=2,10=2,22=-1,40=1/1,7;
 99/5=1,9=1/99;
 Leave Link    1 at Tue Oct 12 16:23:36 2021, MaxMem=  1048576000 cpu:         0.2
 (Enter /usr/local/gaussian/g09/l101.exe)
 -----
 title
 -----
 Symbolic Z-matrix:
 Charge = -1 Multiplicity = 1
 O
 X                    1     10. 
 H(iso=2)             1    r1       2     90. 
 I                    1    r2       2     90.      3    a1       0
 H                    1    r3       2    oop      3    a1       0
       Variables:
  r1                    0.96091                  
  r2                    3.5085                   
  r3                    1.2                      
  a1                  101.85831                  
  OOP                  90.                       
 
 NAtoms=      4 NQM=        4 NQMF=       0 NMMI=      0 NMMIF=      0
                NMic=       0 NMicF=      0.
                    Isotopes and Nuclear Properties:
 (Nuclear quadrupole moments (NQMom) in fm**2, nuclear magnetic moments (NMagM)
  in nuclear magnetons)

  Atom         1           2           3           4
 IAtWgt=          16           2         127           1
 AtmWgt=  15.9949146   2.0141018 126.9004000   1.0078250
 NucSpn=           0           2           5           1
 AtZEff=   0.0000000   0.0000000   0.0000000   0.0000000
 NQMom=    0.0000000   0.2860000 -71.0000000   0.0000000
 NMagM=    0.0000000   0.8574380   2.8132800   2.7928460
 AtZNuc=   8.0000000   1.0000000  53.0000000   1.0000000
 Leave Link  101 at Tue Oct 12 16:23:36 2021, MaxMem=  1048576000 cpu:         0.4
 (Enter /usr/local/gaussian/g09/l202.exe)
                          Input orientation:                          
 ---------------------------------------------------------------------
 Center     Atomic      Atomic             Coordinates (Angstroms)
 Number     Number       Type             X           Y           Z
 ---------------------------------------------------------------------
      1          8           0        0.000000    0.000000    0.000000
      2          1           0        0.960908    0.000000    0.000000
      3         53           0       -0.720970   -3.433628    0.000000
      4          1           0       -0.246590   -1.174391    0.000000
 ---------------------------------------------------------------------
                    Distance matrix (angstroms):
                    1          2          3          4
     1  O    0.000000
     2  H    0.960908   0.000000
     3  I    3.508504   3.823416   0.000000
     4  H    1.200000   1.684412   2.308504   0.000000
 Symmetry turned off by external request.
 Stoichiometry    H2IO(1-)
 Framework group  CS[SG(H2IO)]
 Deg. of freedom     5
 Full point group                 CS      NOp   2
 Rotational constants (GHZ):    322.8681494      2.5225447      2.5029891
 Leave Link  202 at Tue Oct 12 16:23:37 2021, MaxMem=  1048576000 cpu:         0.0
 (Enter /usr/local/gaussian/g09/l301.exe)
 General basis read from cards:  (5D, 7F)
 Centers:       2      4      1      2      4
 aug-cc-pVTZ
 ****
 Centers:       3
 S 11 1.00
     Exponent=  5.5465000000D+03 Coefficients=  1.5600000000D-04
     Exponent=  8.3821400000D+02 Coefficients=  9.8600000000D-04
     Exponent=  1.8218700000D+02 Coefficients=  2.7920000000D-03
     Exponent=  3.1212300000D+01 Coefficients= -4.3251000000D-02
     Exponent=  1.9531400000D+01 Coefficients=  2.3413400000D-01
     Exponent=  8.2409900000D+00 Coefficients= -7.5094300000D-01
     Exponent=  2.1945500000D+00 Coefficients=  8.8296800000D-01
     Exponent=  1.1091100000D+00 Coefficients=  4.6206100000D-01
     Exponent=  3.7464100000D-01 Coefficients=  2.2286000000D-02
     Exponent=  1.7708000000D-01 Coefficients= -4.3530000000D-03
     Exponent=  8.1061000000D-02 Coefficients=  1.1020000000D-03
 S 11 1.00
     Exponent=  5.5465000000D+03 Coefficients= -7.3000000000D-05
     Exponent=  8.3821400000D+02 Coefficients= -5.0800000000D-04
     Exponent=  1.8218700000D+02 Coefficients= -1.1580000000D-03
     Exponent=  3.1212300000D+01 Coefficients=  1.2193000000D-02
     Exponent=  1.9531400000D+01 Coefficients= -8.7854000000D-02
     Exponent=  8.2409900000D+00 Coefficients=  3.3820000000D-01
     Exponent=  2.1945500000D+00 Coefficients= -5.7655000000D-01
     Exponent=  1.1091100000D+00 Coefficients= -4.0929800000D-01
     Exponent=  3.7464100000D-01 Coefficients=  5.6745900000D-01
     Exponent=  1.7708000000D-01 Coefficients=  6.1248900000D-01
     Exponent=  8.1061000000D-02 Coefficients=  1.4323100000D-01
 S 1 1.00
     Exponent=  3.7464100000D-01 Coefficients=  1.0000000000D+00
 S 1 1.00
     Exponent=  1.7708000000D-01 Coefficients=  1.0000000000D+00
 S 1 1.00
     Exponent=  1.0010000000D-01 Coefficients=  1.0000000000D+00
 S 1 1.00
     Exponent=  4.1200000000D-02 Coefficients=  1.0000000000D+00
 P 9 1.00
     Exponent=  1.8898800000D+02 Coefficients=  5.8500000000D-04
     Exponent=  2.1286800000D+01 Coefficients=  3.6923000000D-02
     Exponent=  1.0039600000D+01 Coefficients= -2.3532400000D-01
     Exponent=  3.4518000000D+00 Coefficients=  3.4148300000D-01
     Exponent=  1.9745600000D+00 Coefficients=  5.3478800000D-01
     Exponent=  1.0242000000D+00 Coefficients=  2.6514100000D-01
     Exponent=  4.4943700000D-01 Coefficients=  2.5787000000D-02
     Exponent=  1.8664800000D-01 Coefficients=  5.2200000000D-04
     Exponent=  7.3481000000D-02 Coefficients=  6.0600000000D-04
 P 9 1.00
     Exponent=  1.8898800000D+02 Coefficients= -2.5600000000D-04
     Exponent=  2.1286800000D+01 Coefficients= -1.1682000000D-02
     Exponent=  1.0039600000D+01 Coefficients=  8.3192000000D-02
     Exponent=  3.4518000000D+00 Coefficients= -1.5697000000D-01
     Exponent=  1.9745600000D+00 Coefficients= -2.2451800000D-01
     Exponent=  1.0242000000D+00 Coefficients= -1.1445100000D-01
     Exponent=  4.4943700000D-01 Coefficients=  3.7535600000D-01
     Exponent=  1.8664800000D-01 Coefficients=  5.7513600000D-01
     Exponent=  7.3481000000D-02 Coefficients=  2.4591700000D-01
 P 1 1.00
     Exponent=  5.9810000000D-01 Coefficients=  1.0000000000D+00
 P 1 1.00
     Exponent=  9.6180000000D-02 Coefficients=  1.0000000000D+00
 P 1 1.00
     Exponent=  3.5900000000D-02 Coefficients=  1.0000000000D+00
 D 9 1.00
     Exponent=  1.3266200000D+02 Coefficients=  5.7200000000D-04
     Exponent=  3.7605400000D+01 Coefficients=  4.4020000000D-03
     Exponent=  1.0389100000D+01 Coefficients= -4.0922000000D-02
     Exponent=  6.4901700000D+00 Coefficients=  9.9661000000D-02
     Exponent=  3.4545100000D+00 Coefficients=  3.2266300000D-01
     Exponent=  1.8441300000D+00 Coefficients=  4.0034300000D-01
     Exponent=  9.6247800000D-01 Coefficients=  2.6830600000D-01
     Exponent=  4.7285300000D-01 Coefficients=  8.4847000000D-02
     Exponent=  1.9320000000D-01 Coefficients=  7.6320000000D-03
 D 1 1.00
     Exponent=  4.7285300000D-01 Coefficients=  1.0000000000D+00
 D 1 1.00
     Exponent=  1.9320000000D-01 Coefficients=  1.0000000000D+00
 D 1 1.00
     Exponent=  7.8200000000D-02 Coefficients=  1.0000000000D+00
 F 1 1.00
     Exponent=  4.0640000000D-01 Coefficients=  1.0000000000D+00
 F 1 1.00
     Exponent=  1.8480000000D-01 Coefficients=  1.0000000000D+00
 ****
 ======================================================================================================
                                       Pseudopotential Parameters
 ======================================================================================================
  Center     Atomic      Valence      Angular      Power
  Number     Number     Electrons     Momentum     of R      Exponent        Coefficient   SO-Coeffient
 ======================================================================================================
    1          8
                                   No pseudopotential on this center.
    2          1
                                   No pseudopotential on this center.
    3         53           25
                                      G and up 
                                                     2        1.0000000        0.00000000    0.00000000
                                      S - G
                                                     2       40.0333760       49.98964900    0.00000000
                                                     2       17.3005760      281.00655600    0.00000000
                                                     2        8.8517200       61.41673900    0.00000000
                                      P - G
                                                     2       15.7201410       67.41623900    0.00000000
                                                     2       15.2082220      134.80769600    0.00000000
                                                     2        8.2941860       14.56654800    0.00000000
                                                     2        7.7539490       28.96842200    0.00000000
                                      D - G
                                                     2       13.8177510       35.53875600    0.00000000
                                                     2       13.5878050       53.33975900    0.00000000
                                                     2        6.9476300        9.71646600    0.00000000
                                                     2        6.9600990       14.97750000    0.00000000
                                      F - G
                                                     2       18.5229500      -20.17661800    0.00000000
                                                     2       18.2510350      -26.08807700    0.00000000
                                                     2        7.5579010       -0.22043400    0.00000000
                                                     2        7.5974040       -0.22164600    0.00000000
    4          1
                                   No pseudopotential on this center.
 ======================================================================================================
 Ernie: Thresh=  0.10000D-02 Tol=  0.10000D-05 Strict=F.
 Ernie:  16 primitive shells out of 135 were deleted.
   191 basis functions,   344 primitive gaussians,   218 cartesian basis functions
    18 alpha electrons       18 beta electrons
       nuclear repulsion energy        47.6039069748 Hartrees.
 IExCor=    0 DFT=F Ex=HF Corr=None ExCW=0 ScaHFX=  1.000000
 ScaDFX=  1.000000  1.000000  1.000000  1.000000 ScalE2=  1.000000  1.000000
 IRadAn=      0 IRanWt=     -1 IRanGd=            0 ICorTp=0 IEmpDi=  4
 NAtoms=    4 NActive=    4 NUniq=    4 SFac= 1.00D+00 NAtFMM=   60 NAOKFM=F Big=F
 Integral buffers will be    131072 words long.
 Raffenetti 1 integral format.
 Two-electron integral symmetry is turned off.
 Leave Link  301 at Tue Oct 12 16:23:37 2021, MaxMem=  1048576000 cpu:         0.6
 (Enter /usr/local/gaussian/g09/l302.exe)
 NPDir=0 NMtPBC=     1 NCelOv=     1 NCel=       1 NClECP=     1 NCelD=      1
         NCelK=      1 NCelE2=     1 NClLst=     1 CellRange=     0.0.
 One-electron integrals computed using PRISM.
   1 Symmetry operations used in ECPInt.
 ECPInt:  NShTT=    2145 NPrTT=    7341 LenC2=    2146 LenP2D=    6688.
 LDataN:  DoStor=T MaxTD1= 7 Len=  274
 NBasis=   191 RedAO= T EigKep=  4.17D-04  NBF=   191
 NBsUse=   147 1.00D-06 EigRej=  8.85D-16 NBFU=   147
 Leave Link  302 at Tue Oct 12 16:23:37 2021, MaxMem=  1048576000 cpu:         2.7
 (Enter /usr/local/gaussian/g09/l303.exe)
 DipDrv:  MaxL=1.
 Leave Link  303 at Tue Oct 12 16:23:37 2021, MaxMem=  1048576000 cpu:         0.2
 (Enter /usr/local/gaussian/g09/l401.exe)
 ExpMin= 2.53D-02 ExpMax= 1.53D+04 ExpMxC= 5.22D+02 IAcc=3 IRadAn=         5 AccDes= 0.00D+00
 Harris functional with IExCor=  205 and IRadAn=       5 diagonalized for initial guess.
 HarFok:  IExCor=  205 AccDes= 0.00D+00 IRadAn=         5 IDoV= 1 UseB2=F ITyADJ=14
 ICtDFT=  3500011 ScaDFX=  1.000000  1.000000  1.000000  1.000000
 Defaulting to unpruned grid for atomic number  53.
 Defaulting to unpruned grid for atomic number  53.
 Defaulting to unpruned grid for atomic number  53.
 Defaulting to unpruned grid for atomic number  53.
 Defaulting to unpruned grid for atomic number  53.
 Defaulting to unpruned grid for atomic number  53.
 Defaulting to unpruned grid for atomic number  53.
 Defaulting to unpruned grid for atomic number  53.
 Defaulting to unpruned grid for atomic number  53.
 Defaulting to unpruned grid for atomic number  53.
 Defaulting to unpruned grid for atomic number  53.
 Defaulting to unpruned grid for atomic number  53.
 FoFCou: FMM=F IPFlag=           0 FMFlag=      100000 FMFlg1=           0
         NFxFlg=           0 DoJE=T BraDBF=F KetDBF=T FulRan=T
         wScrn=  0.000000 ICntrl=     500 IOpCl=  0 I1Cent=   200000004 NGrid=           0
         NMat0=    1 NMatS0=      1 NMatT0=    0 NMatD0=    1 NMtDS0=    0 NMtDT0=    0
 Symmetry not used in FoFCou.
 Harris En= -372.662766036433    
 JPrj=0 DoOrth=F DoCkMO=F.
 Leave Link  401 at Tue Oct 12 16:23:37 2021, MaxMem=  1048576000 cpu:         2.8
 (Enter /usr/local/gaussian/g09/l502.exe)
 Closed shell SCF:
 Using DIIS extrapolation, IDIIS=  1040.
 Two-electron integral symmetry not used.
 Keep R1 ints in memory in canonical form, NReq=176646807.
 IVT=      165054 IEndB=      165054 NGot=  1048576000 MDV=   880297331
 LenX=   880297331 LenY=   880249366
 Requested convergence on RMS density matrix=1.00D-08 within 128 cycles.
 Requested convergence on MAX density matrix=1.00D-06.
 Requested convergence on             energy=1.00D-06.
 No special actions if energy rises.
 FoFCou: FMM=F IPFlag=           0 FMFlag=           0 FMFlg1=           0
         NFxFlg=           0 DoJE=F BraDBF=F KetDBF=F FulRan=T
         wScrn=  0.000000 ICntrl=     600 IOpCl=  0 I1Cent=           0 NGrid=           0
         NMat0=    1 NMatS0=  18336 NMatT0=    0 NMatD0=    1 NMtDS0=    0 NMtDT0=    0
 Symmetry not used in FoFCou.

 Cycle   1  Pass 1  IDiag  1:
 E= -370.613264059601    
 DIIS: error= 5.19D-02 at cycle   1 NSaved=   1.
 NSaved= 1 IEnMin= 1 EnMin= -370.613264059601     IErMin= 1 ErrMin= 5.19D-02
 ErrMax= 5.19D-02  0.00D+00 EMaxC= 1.00D-01 BMatC= 3.81D-01 BMatP= 3.81D-01
 IDIUse=3 WtCom= 4.81D-01 WtEn= 5.19D-01
 Coeff-Com:  0.100D+01
 Coeff-En:   0.100D+01
 Coeff:      0.100D+01
 Gap=     0.472 Goal=   None    Shift=    0.000
 GapD=    0.472 DampG=2.000 DampE=0.500 DampFc=1.0000 IDamp=-1.
 RMSDP=3.85D-03 MaxDP=1.06D-01              OVMax= 1.41D-01

 Cycle   2  Pass 1  IDiag  1:
 E= -370.720163144461     Delta-E=       -0.106899084860 Rises=F Damp=F
 DIIS: error= 4.23D-02 at cycle   2 NSaved=   2.
 NSaved= 2 IEnMin= 2 EnMin= -370.720163144461     IErMin= 2 ErrMin= 4.23D-02
 ErrMax= 4.23D-02  0.00D+00 EMaxC= 1.00D-01 BMatC= 9.53D-02 BMatP= 3.81D-01
 IDIUse=3 WtCom= 5.77D-01 WtEn= 4.23D-01
 Coeff-Com:  0.302D+00 0.698D+00
 Coeff-En:   0.105D+00 0.895D+00
 Coeff:      0.219D+00 0.781D+00
 Gap=     0.318 Goal=   None    Shift=    0.000
 RMSDP=1.82D-03 MaxDP=8.02D-02 DE=-1.07D-01 OVMax= 9.19D-02

 Cycle   3  Pass 1  IDiag  1:
 E= -370.773660444456     Delta-E=       -0.053497299995 Rises=F Damp=F
 DIIS: error= 1.58D-02 at cycle   3 NSaved=   3.
 NSaved= 3 IEnMin= 3 EnMin= -370.773660444456     IErMin= 3 ErrMin= 1.58D-02
 ErrMax= 1.58D-02  0.00D+00 EMaxC= 1.00D-01 BMatC= 1.42D-02 BMatP= 9.53D-02
 IDIUse=3 WtCom= 8.42D-01 WtEn= 1.58D-01
 Coeff-Com: -0.771D-05 0.273D+00 0.727D+00
 Coeff-En:   0.000D+00 0.000D+00 0.100D+01
 Coeff:     -0.649D-05 0.230D+00 0.770D+00
 Gap=     0.289 Goal=   None    Shift=    0.000
 RMSDP=4.72D-04 MaxDP=2.58D-02 DE=-5.35D-02 OVMax= 2.71D-02

 Cycle   4  Pass 1  IDiag  1:
 E= -370.782720164712     Delta-E=       -0.009059720256 Rises=F Damp=F
 DIIS: error= 2.67D-03 at cycle   4 NSaved=   4.
 NSaved= 4 IEnMin= 4 EnMin= -370.782720164712     IErMin= 4 ErrMin= 2.67D-03
 ErrMax= 2.67D-03  0.00D+00 EMaxC= 1.00D-01 BMatC= 3.07D-04 BMatP= 1.42D-02
 IDIUse=3 WtCom= 9.73D-01 WtEn= 2.67D-02
 Coeff-Com: -0.103D-01-0.886D-02 0.127D+00 0.892D+00
 Coeff-En:   0.000D+00 0.000D+00 0.000D+00 0.100D+01
 Coeff:     -0.999D-02-0.862D-02 0.124D+00 0.895D+00
 Gap=     0.291 Goal=   None    Shift=    0.000
 RMSDP=1.05D-04 MaxDP=6.66D-03 DE=-9.06D-03 OVMax= 5.57D-03

 Cycle   5  Pass 1  IDiag  1:
 E= -370.782972077708     Delta-E=       -0.000251912996 Rises=F Damp=F
 DIIS: error= 2.02D-04 at cycle   5 NSaved=   5.
 NSaved= 5 IEnMin= 5 EnMin= -370.782972077708     IErMin= 5 ErrMin= 2.02D-04
 ErrMax= 2.02D-04  0.00D+00 EMaxC= 1.00D-01 BMatC= 8.82D-06 BMatP= 3.07D-04
 IDIUse=3 WtCom= 9.98D-01 WtEn= 2.02D-03
 Coeff-Com:  0.204D-02-0.187D-01-0.611D-01-0.331D-01 0.111D+01
 Coeff-En:   0.000D+00 0.000D+00 0.000D+00 0.000D+00 0.100D+01
 Coeff:      0.203D-02-0.186D-01-0.610D-01-0.331D-01 0.111D+01
 Gap=     0.289 Goal=   None    Shift=    0.000
 RMSDP=5.62D-05 MaxDP=1.94D-03 DE=-2.52D-04 OVMax= 2.73D-03

 Cycle   6  Pass 1  IDiag  1:
 E= -370.782995750190     Delta-E=       -0.000023672482 Rises=F Damp=F
 DIIS: error= 1.58D-04 at cycle   6 NSaved=   6.
 NSaved= 6 IEnMin= 6 EnMin= -370.782995750190     IErMin= 6 ErrMin= 1.58D-04
 ErrMax= 1.58D-04  0.00D+00 EMaxC= 1.00D-01 BMatC= 9.31D-07 BMatP= 8.82D-06
 IDIUse=3 WtCom= 9.98D-01 WtEn= 1.58D-03
 Coeff-Com:  0.131D-03 0.690D-02 0.680D-02-0.997D-01-0.260D+00 0.135D+01
 Coeff-En:   0.000D+00 0.000D+00 0.000D+00 0.000D+00 0.000D+00 0.100D+01
 Coeff:      0.131D-03 0.689D-02 0.679D-02-0.996D-01-0.260D+00 0.135D+01
 Gap=     0.289 Goal=   None    Shift=    0.000
 RMSDP=2.06D-05 MaxDP=1.36D-03 DE=-2.37D-05 OVMax= 1.44D-03

 Cycle   7  Pass 1  IDiag  1:
 E= -370.782999257385     Delta-E=       -0.000003507195 Rises=F Damp=F
 DIIS: error= 2.09D-05 at cycle   7 NSaved=   7.
 NSaved= 7 IEnMin= 7 EnMin= -370.782999257385     IErMin= 7 ErrMin= 2.09D-05
 ErrMax= 2.09D-05  0.00D+00 EMaxC= 1.00D-01 BMatC= 4.27D-08 BMatP= 9.31D-07
 IDIUse=1 WtCom= 1.00D+00 WtEn= 0.00D+00
 Coeff-Com: -0.138D-03-0.998D-03 0.139D-02 0.357D-01 0.441D-02-0.401D+00
 Coeff-Com:  0.136D+01
 Coeff:     -0.138D-03-0.998D-03 0.139D-02 0.357D-01 0.441D-02-0.401D+00
 Coeff:      0.136D+01
 Gap=     0.289 Goal=   None    Shift=    0.000
 RMSDP=4.07D-06 MaxDP=1.72D-04 DE=-3.51D-06 OVMax= 2.58D-04

 Cycle   8  Pass 1  IDiag  1:
 E= -370.782999417112     Delta-E=       -0.000000159727 Rises=F Damp=F
 DIIS: error= 6.30D-06 at cycle   8 NSaved=   8.
 NSaved= 8 IEnMin= 8 EnMin= -370.782999417112     IErMin= 8 ErrMin= 6.30D-06
 ErrMax= 6.30D-06  0.00D+00 EMaxC= 1.00D-01 BMatC= 1.97D-09 BMatP= 4.27D-08
 IDIUse=1 WtCom= 1.00D+00 WtEn= 0.00D+00
 Coeff-Com:  0.156D-04-0.181D-03-0.330D-03-0.432D-03 0.100D-01-0.535D-02
 Coeff-Com: -0.167D+00 0.116D+01
 Coeff:      0.156D-04-0.181D-03-0.330D-03-0.432D-03 0.100D-01-0.535D-02
 Coeff:     -0.167D+00 0.116D+01
 Gap=     0.289 Goal=   None    Shift=    0.000
 RMSDP=6.80D-07 MaxDP=2.42D-05 DE=-1.60D-07 OVMax= 4.38D-05

 Cycle   9  Pass 1  IDiag  1:
 E= -370.782999422431     Delta-E=       -0.000000005320 Rises=F Damp=F
 DIIS: error= 8.93D-07 at cycle   9 NSaved=   9.
 NSaved= 9 IEnMin= 9 EnMin= -370.782999422431     IErMin= 9 ErrMin= 8.93D-07
 ErrMax= 8.93D-07  0.00D+00 EMaxC= 1.00D-01 BMatC= 1.78D-10 BMatP= 1.97D-09
 IDIUse=1 WtCom= 1.00D+00 WtEn= 0.00D+00
 Coeff-Com:  0.106D-04 0.907D-04-0.122D-03-0.346D-02-0.149D-03 0.370D-01
 Coeff-Com: -0.131D+00 0.433D-01 0.105D+01
 Coeff:      0.106D-04 0.907D-04-0.122D-03-0.346D-02-0.149D-03 0.370D-01
 Coeff:     -0.131D+00 0.433D-01 0.105D+01
 Gap=     0.289 Goal=   None    Shift=    0.000
 RMSDP=2.38D-07 MaxDP=7.18D-06 DE=-5.32D-09 OVMax= 9.86D-06

 Cycle  10  Pass 1  IDiag  1:
 E= -370.782999422911     Delta-E=       -0.000000000480 Rises=F Damp=F
 DIIS: error= 2.83D-07 at cycle  10 NSaved=  10.
 NSaved=10 IEnMin=10 EnMin= -370.782999422911     IErMin=10 ErrMin= 2.83D-07
 ErrMax= 2.83D-07  0.00D+00 EMaxC= 1.00D-01 BMatC= 1.36D-11 BMatP= 1.78D-10
 IDIUse=1 WtCom= 1.00D+00 WtEn= 0.00D+00
 Coeff-Com: -0.120D-05 0.113D-04 0.136D-04 0.118D-03-0.650D-03-0.115D-03
 Coeff-Com:  0.155D-01-0.978D-01-0.269D-01 0.111D+01
 Coeff:     -0.120D-05 0.113D-04 0.136D-04 0.118D-03-0.650D-03-0.115D-03
 Coeff:      0.155D-01-0.978D-01-0.269D-01 0.111D+01
 Gap=     0.289 Goal=   None    Shift=    0.000
 RMSDP=7.87D-08 MaxDP=3.56D-06 DE=-4.80D-10 OVMax= 4.12D-06

 Cycle  11  Pass 1  IDiag  1:
 E= -370.782999422950     Delta-E=       -0.000000000038 Rises=F Damp=F
 DIIS: error= 6.37D-08 at cycle  11 NSaved=  11.
 NSaved=11 IEnMin=11 EnMin= -370.782999422950     IErMin=11 ErrMin= 6.37D-08
 ErrMax= 6.37D-08  0.00D+00 EMaxC= 1.00D-01 BMatC= 5.75D-13 BMatP= 1.36D-11
 IDIUse=1 WtCom= 1.00D+00 WtEn= 0.00D+00
 Coeff-Com: -0.554D-06-0.400D-05 0.100D-04 0.152D-03-0.229D-04-0.149D-02
 Coeff-Com:  0.415D-02 0.106D-01-0.561D-01-0.139D+00 0.118D+01
 Coeff:     -0.554D-06-0.400D-05 0.100D-04 0.152D-03-0.229D-04-0.149D-02
 Coeff:      0.415D-02 0.106D-01-0.561D-01-0.139D+00 0.118D+01
 Gap=     0.289 Goal=   None    Shift=    0.000
 RMSDP=1.93D-08 MaxDP=9.47D-07 DE=-3.81D-11 OVMax= 7.75D-07

 Cycle  12  Pass 1  IDiag  1:
 E= -370.782999422953     Delta-E=       -0.000000000004 Rises=F Damp=F
 DIIS: error= 1.87D-08 at cycle  12 NSaved=  12.
 NSaved=12 IEnMin=12 EnMin= -370.782999422953     IErMin=12 ErrMin= 1.87D-08
 ErrMax= 1.87D-08  0.00D+00 EMaxC= 1.00D-01 BMatC= 3.19D-14 BMatP= 5.75D-13
 IDIUse=1 WtCom= 1.00D+00 WtEn= 0.00D+00
 Coeff-Com:  0.182D-06 0.181D-06-0.150D-05-0.339D-04 0.298D-04 0.266D-03
 Coeff-Com: -0.158D-02 0.486D-02 0.737D-02-0.489D-01-0.124D+00 0.116D+01
 Coeff:      0.182D-06 0.181D-06-0.150D-05-0.339D-04 0.298D-04 0.266D-03
 Coeff:     -0.158D-02 0.486D-02 0.737D-02-0.489D-01-0.124D+00 0.116D+01
 Gap=     0.289 Goal=   None    Shift=    0.000
 RMSDP=3.15D-09 MaxDP=1.00D-07 DE=-3.87D-12 OVMax= 1.45D-07

 SCF Done:  E(RHF) =  -370.782999423     A.U. after   12 cycles
            NFock= 12  Conv=0.32D-08     -V/T= 2.9871
 KE= 1.865995666613D+02 PE=-9.086789610124D+02 EE= 3.036924879534D+02
 Leave Link  502 at Tue Oct 12 16:23:41 2021, MaxMem=  1048576000 cpu:        19.5
 (Enter /usr/local/gaussian/g09/l801.exe)
 ExpMin= 2.53D-02 ExpMax= 1.53D+04 ExpMxC= 5.22D+02 IAcc=3 IRadAn=         5 AccDes= 0.00D+00
 HarFok:  IExCor=  205 AccDes= 0.00D+00 IRadAn=         5 IDoV=-2 UseB2=F ITyADJ=14
 ICtDFT= 12500011 ScaDFX=  1.000000  1.000000  1.000000  1.000000
 Defaulting to unpruned grid for atomic number  53.
 Defaulting to unpruned grid for atomic number  53.
 Defaulting to unpruned grid for atomic number  53.
 Defaulting to unpruned grid for atomic number  53.
 Defaulting to unpruned grid for atomic number  53.
 Defaulting to unpruned grid for atomic number  53.
 Defaulting to unpruned grid for atomic number  53.
 Defaulting to unpruned grid for atomic number  53.
 Defaulting to unpruned grid for atomic number  53.
 Defaulting to unpruned grid for atomic number  53.
 Defaulting to unpruned grid for atomic number  53.
 Defaulting to unpruned grid for atomic number  53.
 Largest valence mixing into a core orbital is  1.30D-04
 Largest core mixing into a valence orbital is  2.36D-05
 Range of M.O.s used for correlation:     6   147
 NBasis=   191 NAE=    18 NBE=    18 NFC=     5 NFV=     0
 NROrb=    142 NOA=    13 NOB=    13 NVA=   129 NVB=   129

 **** Warning!!: The largest alpha MO coefficient is  0.13509510D+02

 Leave Link  801 at Tue Oct 12 16:23:41 2021, MaxMem=  1048576000 cpu:         0.8
 (Enter /usr/local/gaussian/g09/l906.exe)
 Frozen-core derivative calculation, NFC=   5 NFV=   0.
 FulOut=F Deriv=T AODrv=F NAtomX=     4
   MMem=         196  MDisk=          13 MDiskD=          13
  W3Min=      576828 MinDsk=     1313419 NBas6D=         218
 NBas2D=       24339    NTT=       23871    LW2=    26219120
    MDV=  1048236612 MDiskM=       23996 NBas2p=       24339
 Fully in-core method, ICMem=   672878533.
 IMap=   1   2   3   4   5   6   7   8   9  10  11  12  13  14  15  16  17  18
 JobTyp=1 Pass  1 fully in-core, NPsUse= 12.
 Compute canonical integrals.
 FoFCou: FMM=F IPFlag=           0 FMFlag=           0 FMFlg1=           0
         NFxFlg=           0 DoJE=F BraDBF=F KetDBF=F FulRan=T
         wScrn=  0.000000 ICntrl=     600 IOpCl=  1 I1Cent=           0 NGrid=           0
         NMat0=    1 NMatS0=  24339 NMatT0=    0 NMatD0=    1 NMtDS0=    0 NMtDT0=    0
 Symmetry not used in FoFCou.
 Spin components of T(2) and E(2):
     alpha-alpha T2 =       0.2293264045D-01 E2=     -0.6931736223D-01
     alpha-beta  T2 =       0.1198847245D+00 E2=     -0.3705557789D+00
     beta-beta   T2 =       0.2293264045D-01 E2=     -0.6931736223D-01
 The integrals were generated   1 times.
 ANorm=    0.1079699035D+01
 E2 =    -0.5091905034D+00 EUMP2 =    -0.37129218992631D+03
 Leave Link  906 at Tue Oct 12 16:23:49 2021, MaxMem=  1048576000 cpu:       101.4
 (Enter /usr/local/gaussian/g09/l1002.exe)
 Minotr:  Closed shell wavefunction.
          Computing MP2/KS-MP2 derivatives.
          Using Z-Vector for PSCF gradient.
          Skipping F1 and S1 gradient terms here.
          Frozen-core window.
          Direct CPHF calculation.
          Differentiating once with respect to electric field.
                with respect to dipole field.
          Electric field/nuclear overlap derivatives assumed to be zero.
          Requested convergence is 1.0D-10 RMS, and 1.0D-09 maximum.
          NewPWx=F KeepS1=T KeepF1=T KeepIn=T MapXYZ=F SortEE=F KeepMc=T.
          MDV=    1048575822 using IRadAn=       0.
 Keep R1 ints in memory in canonical form, NReq=176526682.
 FoFCou: FMM=F IPFlag=           0 FMFlag=           0 FMFlg1=           0
         NFxFlg=           0 DoJE=F BraDBF=F KetDBF=F FulRan=T
         wScrn=  0.000000 ICntrl=     600 IOpCl=  0 I1Cent=           0 NGrid=           0
         NMat0=    1 NMatS0=  18336 NMatT0=    0 NMatD0=    1 NMtDS0=    0 NMtDT0=    0
 Symmetry not used in FoFCou.
          Solving linear equations separately, MaxMat=       0.
          There are     1 degrees of freedom in the 1st order CPHF.  IDoFFX=0 NUNeed=     1.
 LinEq1:  Iter=  0 NonCon=     1 RMS=3.15D-03 Max=6.40D-02 NDo=     1
 AX will form     1 AO Fock derivatives at one time.
 LinEq1:  Iter=  1 NonCon=     1 RMS=5.40D-04 Max=6.67D-03 NDo=     1
 LinEq1:  Iter=  2 NonCon=     1 RMS=2.13D-04 Max=2.85D-03 NDo=     1
 LinEq1:  Iter=  3 NonCon=     1 RMS=5.61D-05 Max=1.08D-03 NDo=     1
 LinEq1:  Iter=  4 NonCon=     1 RMS=7.41D-06 Max=8.09D-05 NDo=     1
 LinEq1:  Iter=  5 NonCon=     1 RMS=2.63D-06 Max=3.89D-05 NDo=     1
 LinEq1:  Iter=  6 NonCon=     1 RMS=1.20D-06 Max=1.39D-05 NDo=     1
 LinEq1:  Iter=  7 NonCon=     1 RMS=2.43D-07 Max=2.39D-06 NDo=     1
 LinEq1:  Iter=  8 NonCon=     1 RMS=4.65D-08 Max=5.67D-07 NDo=     1
 LinEq1:  Iter=  9 NonCon=     1 RMS=1.42D-08 Max=1.84D-07 NDo=     1
 LinEq1:  Iter= 10 NonCon=     1 RMS=3.33D-09 Max=5.74D-08 NDo=     1
 LinEq1:  Iter= 11 NonCon=     1 RMS=6.02D-10 Max=7.63D-09 NDo=     1
 LinEq1:  Iter= 12 NonCon=     1 RMS=1.40D-10 Max=2.37D-09 NDo=     1
 LinEq1:  Iter= 13 NonCon=     0 RMS=2.91D-11 Max=2.80D-10 NDo=     1
 Linear equations converged to 1.000D-10 1.000D-09 after    13 iterations.
 End of Minotr F.D. properties file   721 does not exist.
 End of Minotr F.D. properties file   722 does not exist.
 End of Minotr F.D. properties file   788 does not exist.
 Leave Link 1002 at Tue Oct 12 16:23:54 2021, MaxMem=  1048576000 cpu:        18.7
 (Enter /usr/local/gaussian/g09/l601.exe)
 Copying SCF densities to generalized density rwf, IOpCl= 0 IROHF=0.

 **********************************************************************

            Population analysis using the MP2 density.

 **********************************************************************

 Alpha  occ. eigenvalues --  -20.38882  -7.47838  -5.30433  -5.30349  -5.30343
 Alpha  occ. eigenvalues --   -2.03192  -2.03145  -2.03139  -2.03049  -2.03049
 Alpha  occ. eigenvalues --   -1.12657  -0.64149  -0.47833  -0.38570  -0.31738
 Alpha  occ. eigenvalues --   -0.15880  -0.15258  -0.15216
 Alpha virt. eigenvalues --    0.13681   0.17025   0.23150   0.24412   0.24886
 Alpha virt. eigenvalues --    0.27453   0.29647   0.29706   0.31319   0.34080
 Alpha virt. eigenvalues --    0.36538   0.36894   0.37249   0.39404   0.40325
 Alpha virt. eigenvalues --    0.42676   0.44151   0.47757   0.50983   0.54916
 Alpha virt. eigenvalues --    0.57450   0.59976   0.67009   0.71717   0.76878
 Alpha virt. eigenvalues --    0.76945   0.77920   0.79004   0.79122   0.79580
 Alpha virt. eigenvalues --    0.82140   0.82862   0.85331   0.85892   0.86341
 Alpha virt. eigenvalues --    0.87416   0.87655   0.89618   0.90347   0.93260
 Alpha virt. eigenvalues --    0.93813   0.97023   1.02794   1.05470   1.07633
 Alpha virt. eigenvalues --    1.11054   1.12036   1.12087   1.15677   1.17184
 Alpha virt. eigenvalues --    1.19846   1.19897   1.30284   1.36404   1.37693
 Alpha virt. eigenvalues --    1.44922   1.48943   1.51472   1.59921   1.63631
 Alpha virt. eigenvalues --    1.71397   1.73382   1.74219   1.74317   1.75766
 Alpha virt. eigenvalues --    1.76544   1.80390   1.84709   1.85785   1.89994
 Alpha virt. eigenvalues --    2.01492   2.04739   2.05090   2.05395   2.09327
 Alpha virt. eigenvalues --    2.11132   2.14640   2.32586   2.44170   2.46144
 Alpha virt. eigenvalues --    2.55286   2.57722   2.60043   2.62715   2.70845
 Alpha virt. eigenvalues --    2.78329   2.91520   2.92223   2.97775   3.02674
 Alpha virt. eigenvalues --    3.20035   3.31867   3.32203   3.54293   3.87029
 Alpha virt. eigenvalues --    4.15149   4.21628   4.24822   4.27386   4.36568
 Alpha virt. eigenvalues --    4.40670   4.50925   4.53963   4.59497   4.66783
 Alpha virt. eigenvalues --    4.80193   4.88524   4.92922   5.03678   5.23381
 Alpha virt. eigenvalues --    5.41520   5.55250   5.64456   6.32407   6.67697
 Alpha virt. eigenvalues --    6.88569   6.98297   7.08080   7.34366   7.40961
 Alpha virt. eigenvalues --    7.45351   7.52974   7.56344   7.68131   7.87456
 Alpha virt. eigenvalues --    8.14609   8.34447  14.45667  59.21068
          Condensed to atoms (all electrons):
               1          2          3          4
     1  O    8.332888   0.179469  -0.078050   0.147075
     2  H    0.179469   0.607139   0.001110   0.042861
     3  I   -0.078050   0.001110  25.859312   0.020641
     4  H    0.147075   0.042861   0.020641   0.574451
 Mulliken charges:
               1
     1  O   -0.581381
     2  H    0.169422
     3  I   -0.803013
     4  H    0.214972
 Sum of Mulliken charges =  -1.00000
 Mulliken charges with hydrogens summed into heavy atoms:
               1
     1  O   -0.196987
     3  I   -0.803013
 Electronic spatial extent (au):  <R**2>=           1233.4720
 Charge=             -1.0000 electrons
 Dipole moment (field-independent basis, Debye):
    X=              3.8045    Y=             12.3137    Z=              0.0000  Tot=             12.8881
 Quadrupole moment (field-independent basis, Debye-Ang):
   XX=            -41.0469   YY=            -86.7768   ZZ=            -41.7488
   XY=             -8.9760   XZ=             -0.0000   YZ=             -0.0000
 Traceless Quadrupole moment (field-independent basis, Debye-Ang):
   XX=             15.4773   YY=            -30.2526   ZZ=             14.7754
   XY=             -8.9760   XZ=             -0.0000   YZ=             -0.0000
 Octapole moment (field-independent basis, Debye-Ang**2):
  XXX=             72.9137  YYY=            501.3285  ZZZ=              0.0000  XYY=             55.1472
  XXY=            121.2240  XXZ=              0.0000  XZZ=             23.2302  YZZ=            114.6534
  YYZ=              0.0000  XYZ=              0.0000
 Hexadecapole moment (field-independent basis, Debye-Ang**3):
 XXXX=           -176.5295 YYYY=          -2947.3809 ZZZZ=            -74.2342 XXXY=           -249.7991
 XXXZ=             -0.0000 YYYX=           -351.4232 YYYZ=             -0.0000 ZZZX=             -0.0000
 ZZZY=             -0.0000 XXYY=           -455.5310 XXZZ=            -41.9980 YYZZ=           -416.6535
 XXYZ=             -0.0000 YYXZ=             -0.0000 ZZXY=            -81.8111
 N-N= 4.760390697476D+01 E-N=-9.081179086999D+02  KE= 1.868175304766D+02
 No NMR shielding tensors so no spin-rotation constants.
 Leave Link  601 at Tue Oct 12 16:23:54 2021, MaxMem=  1048576000 cpu:         2.3
 (Enter /usr/local/gaussian/g09/l607.exe)
 ******************************Gaussian NBO Version 3.1******************************
             N A T U R A L   A T O M I C   O R B I T A L   A N D
          N A T U R A L   B O N D   O R B I T A L   A N A L Y S I S
 ******************************Gaussian NBO Version 3.1******************************
       /RESON  / : Allow strongly delocalized NBO set

 Analyzing the MP2 density

 Job title: title                                                           

 Storage needed:    110417 in NPA,    146568 in NBO (1048575904 available)


 NATURAL POPULATIONS:  Natural atomic orbital occupancies 
                                                          
   NAO  Atom  No  lang   Type(AO)    Occupancy
 --------------------------------------------
     1    O    1  S      Cor( 1S)     1.99992
     2    O    1  S      Val( 2S)     1.90526
     3    O    1  S      Ryd( 3S)     0.00666
     4    O    1  S      Ryd( 4S)     0.00029
     5    O    1  S      Ryd( 5S)     0.00014
     6    O    1  px     Val( 2p)     1.67401
     7    O    1  px     Ryd( 3p)     0.01338
     8    O    1  px     Ryd( 4p)     0.00049
     9    O    1  px     Ryd( 5p)     0.00011
    10    O    1  py     Val( 2p)     1.76295
    11    O    1  py     Ryd( 3p)     0.01266
    12    O    1  py     Ryd( 4p)     0.00055
    13    O    1  py     Ryd( 5p)     0.00023
    14    O    1  pz     Val( 2p)     1.95360
    15    O    1  pz     Ryd( 3p)     0.02206
    16    O    1  pz     Ryd( 4p)     0.00055
    17    O    1  pz     Ryd( 5p)     0.00000
    18    O    1  dxy    Ryd( 3d)     0.00817
    19    O    1  dxy    Ryd( 4d)     0.00047
    20    O    1  dxy    Ryd( 5d)     0.00009
    21    O    1  dxz    Ryd( 3d)     0.00863
    22    O    1  dxz    Ryd( 4d)     0.00049
    23    O    1  dxz    Ryd( 5d)     0.00007
    24    O    1  dyz    Ryd( 3d)     0.00720
    25    O    1  dyz    Ryd( 4d)     0.00055
    26    O    1  dyz    Ryd( 5d)     0.00008
    27    O    1  dx2y2  Ryd( 3d)     0.01090
    28    O    1  dx2y2  Ryd( 4d)     0.00040
    29    O    1  dx2y2  Ryd( 5d)     0.00014
    30    O    1  dz2    Ryd( 3d)     0.00812
    31    O    1  dz2    Ryd( 4d)     0.00057
    32    O    1  dz2    Ryd( 5d)     0.00013
    33    O    1  f(0)   Ryd( 4f)     0.00067
    34    O    1  f(0)   Ryd( 5f)     0.00012
    35    O    1  f(C1)  Ryd( 4f)     0.00055
    36    O    1  f(C1)  Ryd( 5f)     0.00009
    37    O    1  f(S1)  Ryd( 4f)     0.00064
    38    O    1  f(S1)  Ryd( 5f)     0.00010
    39    O    1  f(C2)  Ryd( 4f)     0.00049
    40    O    1  f(C2)  Ryd( 5f)     0.00011
    41    O    1  f(S2)  Ryd( 4f)     0.00047
    42    O    1  f(S2)  Ryd( 5f)     0.00008
    43    O    1  f(C3)  Ryd( 4f)     0.00044
    44    O    1  f(C3)  Ryd( 5f)     0.00013
    45    O    1  f(S3)  Ryd( 4f)     0.00046
    46    O    1  f(S3)  Ryd( 5f)     0.00010

    47    H    2  S      Val( 1S)     0.33179
    48    H    2  S      Ryd( 2S)     0.00336
    49    H    2  S      Ryd( 3S)     0.00029
    50    H    2  S      Ryd( 4S)     0.00007
    51    H    2  px     Ryd( 2p)     0.00216
    52    H    2  px     Ryd( 3p)     0.00074
    53    H    2  px     Ryd( 4p)     0.00010
    54    H    2  py     Ryd( 2p)     0.00195
    55    H    2  py     Ryd( 3p)     0.00038
    56    H    2  py     Ryd( 4p)     0.00010
    57    H    2  pz     Ryd( 2p)     0.00433
    58    H    2  pz     Ryd( 3p)     0.00024
    59    H    2  pz     Ryd( 4p)     0.00006
    60    H    2  dxy    Ryd( 4d)     0.00006
    61    H    2  dxy    Ryd( 3d)     0.00006
    62    H    2  dxz    Ryd( 4d)     0.00007
    63    H    2  dxz    Ryd( 3d)     0.00007
    64    H    2  dyz    Ryd( 3d)     0.00012
    65    H    2  dyz    Ryd( 4d)     0.00005
    66    H    2  dx2y2  Ryd( 3d)     0.00009
    67    H    2  dx2y2  Ryd( 4d)     0.00006
    68    H    2  dz2    Ryd( 3d)     0.00012
    69    H    2  dz2    Ryd( 4d)     0.00008

    70    I    3  S      Cor( 4S)     1.99997
    71    I    3  S      Val( 5S)     1.97643
    72    I    3  S      Ryd( 6S)     0.00208
    73    I    3  S      Ryd( 7S)     0.00050
    74    I    3  S      Ryd( 8S)     0.00008
    75    I    3  S      Ryd( 9S)     0.00001
    76    I    3  px     Cor( 4p)     2.00005
    77    I    3  px     Val( 5p)     1.94856
    78    I    3  px     Ryd( 6p)     0.01060
    79    I    3  px     Ryd( 7p)     0.00072
    80    I    3  px     Ryd( 8p)     0.00008
    81    I    3  py     Cor( 4p)     1.99994
    82    I    3  py     Val( 5p)     1.88937
    83    I    3  py     Ryd( 6p)     0.00959
    84    I    3  py     Ryd( 7p)     0.00065
    85    I    3  py     Ryd( 8p)     0.00020
    86    I    3  pz     Cor( 4p)     2.00005
    87    I    3  pz     Val( 5p)     1.95162
    88    I    3  pz     Ryd( 6p)     0.01062
    89    I    3  pz     Ryd( 7p)     0.00072
    90    I    3  pz     Ryd( 8p)     0.00007
    91    I    3  dxy    Cor( 4d)     1.99673
    92    I    3  dxy    Ryd( 5d)     0.02011
    93    I    3  dxy    Ryd( 6d)     0.00132
    94    I    3  dxy    Ryd( 7d)     0.00019
    95    I    3  dxz    Cor( 4d)     1.99678
    96    I    3  dxz    Ryd( 5d)     0.01998
    97    I    3  dxz    Ryd( 6d)     0.00162
    98    I    3  dxz    Ryd( 7d)     0.00016
    99    I    3  dyz    Cor( 4d)     1.99675
   100    I    3  dyz    Ryd( 5d)     0.02001
   101    I    3  dyz    Ryd( 6d)     0.00130
   102    I    3  dyz    Ryd( 7d)     0.00019
   103    I    3  dx2y2  Cor( 4d)     1.99669
   104    I    3  dx2y2  Ryd( 5d)     0.02033
   105    I    3  dx2y2  Ryd( 6d)     0.00159
   106    I    3  dx2y2  Ryd( 7d)     0.00018
   107    I    3  dz2    Cor( 4d)     1.99675
   108    I    3  dz2    Ryd( 5d)     0.02015
   109    I    3  dz2    Ryd( 6d)     0.00164
   110    I    3  dz2    Ryd( 7d)     0.00016
   111    I    3  f(0)   Ryd( 4f)     0.00271
   112    I    3  f(0)   Ryd( 5f)     0.00042
   113    I    3  f(C1)  Ryd( 4f)     0.00275
   114    I    3  f(C1)  Ryd( 5f)     0.00042
   115    I    3  f(S1)  Ryd( 4f)     0.00284
   116    I    3  f(S1)  Ryd( 5f)     0.00048
   117    I    3  f(C2)  Ryd( 4f)     0.00269
   118    I    3  f(C2)  Ryd( 5f)     0.00042
   119    I    3  f(S2)  Ryd( 4f)     0.00275
   120    I    3  f(S2)  Ryd( 5f)     0.00043
   121    I    3  f(C3)  Ryd( 4f)     0.00270
   122    I    3  f(C3)  Ryd( 5f)     0.00044
   123    I    3  f(S3)  Ryd( 4f)     0.00280
   124    I    3  f(S3)  Ryd( 5f)     0.00048

   125    H    4  S      Val( 1S)     0.31104
   126    H    4  S      Ryd( 2S)     0.00479
   127    H    4  S      Ryd( 3S)     0.00059
   128    H    4  S      Ryd( 4S)     0.00028
   129    H    4  px     Ryd( 2p)     0.00370
   130    H    4  px     Ryd( 3p)     0.00045
   131    H    4  px     Ryd( 4p)     0.00007
   132    H    4  py     Ryd( 2p)     0.00514
   133    H    4  py     Ryd( 3p)     0.00106
   134    H    4  py     Ryd( 4p)     0.00026
   135    H    4  pz     Ryd( 2p)     0.00396
   136    H    4  pz     Ryd( 3p)     0.00040
   137    H    4  pz     Ryd( 4p)     0.00006
   138    H    4  dxy    Ryd( 3d)     0.00032
   139    H    4  dxy    Ryd( 4d)     0.00009
   140    H    4  dxz    Ryd( 3d)     0.00020
   141    H    4  dxz    Ryd( 4d)     0.00004
   142    H    4  dyz    Ryd( 3d)     0.00034
   143    H    4  dyz    Ryd( 4d)     0.00011
   144    H    4  dx2y2  Ryd( 3d)     0.00021
   145    H    4  dx2y2  Ryd( 4d)     0.00009
   146    H    4  dz2    Ryd( 3d)     0.00021
   147    H    4  dz2    Ryd( 4d)     0.00005

 [ 28 electrons found in the effective core potential]

 WARNING:  5 low occupancy (<1.9990e) core orbitals found on  I    3


 Summary of Natural Population Analysis:                  
                                                          
                                       Natural Population 
                Natural  -----------------------------------------------
    Atom  No    Charge         Core      Valence    Rydberg      Total
 -----------------------------------------------------------------------
      O    1   -1.40333      1.99992     7.29583    0.10758     9.40333
      H    2    0.65365      0.00000     0.33179    0.01455     0.34635
      I    3   -0.91688     45.98371     7.76598    0.16719    53.91688
      H    4    0.66654      0.00000     0.31104    0.02242     0.33346
 =======================================================================
   * Total *   -1.00001     47.98363    15.70464    0.31174    64.00001

                                 Natural Population      
 --------------------------------------------------------
   Effective Core            28.00000
   Core                      19.98363 ( 99.9182% of  20)
   Valence                   15.70464 ( 98.1540% of  16)
   Natural Minimal Basis     63.68827 ( 99.5129% of  64)
   Natural Rydberg Basis      0.31174 (  0.4871% of  64)
 --------------------------------------------------------

    Atom  No          Natural Electron Configuration
 ----------------------------------------------------------------------------
      O    1      [core]2S( 1.91)2p( 5.39)3S( 0.01)3p( 0.05)3d( 0.04)
      H    2            1S( 0.33)2p( 0.01)
      I    3      [core]5S( 1.98)5p( 5.79)4f( 0.02)5d( 0.10)6p( 0.03)6d( 0.01)
      H    4            1S( 0.31)2p( 0.01)


 NATURAL BOND ORBITAL ANALYSIS:
 Warning:  a bond orbital has occupanc of -0.00011

                       Occupancies       Lewis Structure    Low   High
           Occ.    -------------------  -----------------   occ   occ
  Cycle   Thresh.   Lewis   Non-Lewis     CR  BD  3C  LP    (L)   (NL)   Dev
 =============================================================================
   1(1)    1.90    63.59744   0.40256     10   2   0   6     1      0    0.11
 Warning:  a bond orbital has occupanc of -0.00011
   2(2)    1.90    63.59744   0.40256     10   2   0   6     1      0    0.11
 Warning:  a bond orbital has occupanc of -0.00011
   3(1)    1.80    63.59744   0.40256     10   2   0   6     0      0    0.11
 Warning:  a bond orbital has occupanc of -0.00011
   4(2)    1.80    63.59744   0.40256     10   2   0   6     0      0    0.11
 Warning:  a bond orbital has occupanc of -0.00011
   5(1)    1.70    63.36789   0.63211     10   1   0   7     0      1    0.36
 Warning:  a bond orbital has occupanc of -0.00011
   6(2)    1.70    63.36789   0.63211     10   1   0   7     0      1    0.36
 Warning:  a bond orbital has occupanc of -0.00011
   7(1)    1.60    63.06685   0.93315     10   0   0   8     0      2    0.52
 Warning:  a bond orbital has occupanc of -0.00011
   8(2)    1.60    63.06685   0.93315     10   0   0   8     0      2    0.52
 Warning:  a bond orbital has occupanc of -0.00011
   9(1)    1.50    63.06685   0.93315     10   0   0   8     0      2    0.52
 Warning:  a bond orbital has occupanc of -0.00011
  10(2)    1.50    63.06685   0.93315     10   0   0   8     0      2    0.52
 Warning:  a bond orbital has occupanc of -0.00011
  11(1)    1.90    63.59744   0.40256     10   2   0   6     1      0    0.11
 -----------------------------------------------------------------------------

 Structure accepted: RESONANCE keyword permits strongly delocalized structure

 WARNING:  5 low occupancy (<1.9990e) core orbitals found on  I    3

 --------------------------------------------------------
   Effective Core           28.00000
   Core                     19.98363 ( 99.918% of  20)
   Valence Lewis            15.61381 ( 97.586% of  16)
  ==================       ============================
   Total Lewis              63.59744 ( 99.371% of  64)
  -----------------------------------------------------
   Valence non-Lewis         0.11353 (  0.177% of  64)
   Rydberg non-Lewis         0.28904 (  0.452% of  64)
  ==================       ============================
   Total non-Lewis           0.40256 (  0.629% of  64)
 --------------------------------------------------------


       (Occupancy)   Bond orbital/ Coefficients/ Hybrids
 ---------------------------------------------------------------------------------
     1. (1.96205) BD ( 1) O   1 - H   2  
                ( 83.88%)   0.9158* O   1 s( 14.49%)p 5.87( 85.14%)d 0.02(  0.36%)
                                                  f 0.00(  0.01%)
                                            0.0001  0.3807  0.0008 -0.0010 -0.0014
                                            0.9222 -0.0227  0.0055 -0.0049 -0.0167
                                           -0.0066 -0.0010 -0.0005  0.0000  0.0000
                                            0.0000  0.0000 -0.0190  0.0049 -0.0022
                                            0.0000  0.0000  0.0000  0.0000  0.0000
                                            0.0000  0.0481 -0.0034  0.0028 -0.0292
                                            0.0009 -0.0003  0.0000  0.0000 -0.0089
                                            0.0007  0.0000 -0.0002  0.0000  0.0000
                                            0.0000  0.0000  0.0032  0.0035  0.0009
                                           -0.0005
                ( 16.12%)   0.4016* H   2 s( 99.62%)p 0.00(  0.38%)d 0.00(  0.01%)
                                            0.9980 -0.0132  0.0002 -0.0004  0.0399
                                           -0.0440 -0.0040 -0.0153  0.0016 -0.0001
                                            0.0000  0.0000  0.0000  0.0003  0.0033
                                            0.0000  0.0000  0.0000  0.0000  0.0020
                                            0.0024 -0.0045 -0.0035
     2. (1.95299) BD ( 1) O   1 - H   4  
                ( 88.31%)   0.9397* O   1 s( 11.50%)p 7.67( 88.16%)d 0.03(  0.33%)
                                                  f 0.00(  0.01%)
                                           -0.0001 -0.3391  0.0024  0.0014 -0.0002
                                            0.1553 -0.0116  0.0012 -0.0018  0.9259
                                           -0.0020  0.0037 -0.0037  0.0000  0.0000
                                            0.0000  0.0000  0.0146 -0.0030  0.0011
                                            0.0000  0.0000  0.0000  0.0000  0.0000
                                            0.0000  0.0456 -0.0078  0.0024  0.0302
                                           -0.0042 -0.0002  0.0000  0.0000 -0.0015
                                            0.0002 -0.0100  0.0027  0.0000  0.0000
                                            0.0000  0.0000 -0.0031 -0.0004 -0.0008
                                           -0.0004
                ( 11.69%)   0.3420* H   4 s( 99.71%)p 0.00(  0.27%)d 0.00(  0.01%)
                                           -0.9978  0.0379 -0.0113  0.0006 -0.0317
                                           -0.0029 -0.0059  0.0118 -0.0342 -0.0195
                                            0.0000  0.0000  0.0000 -0.0020  0.0025
                                            0.0000  0.0000  0.0000  0.0000  0.0053
                                            0.0010  0.0093 -0.0003
     3. (1.99992) CR ( 1) O   1           s(100.00%)
                                            1.0000 -0.0003  0.0000  0.0000  0.0000
                                           -0.0000  0.0000 -0.0000  0.0000  0.0001
                                           -0.0000  0.0000 -0.0000  0.0000  0.0000
                                            0.0000  0.0000  0.0000 -0.0000  0.0000
                                            0.0000  0.0000  0.0000  0.0000  0.0000
                                            0.0000  0.0000 -0.0000  0.0000  0.0000
                                           -0.0000 -0.0000  0.0000  0.0000  0.0000
                                            0.0000 -0.0000  0.0000  0.0000  0.0000
                                            0.0000  0.0000 -0.0000 -0.0000 -0.0000
                                           -0.0000
     4. (1.99997) CR ( 1) I   3           s(100.00%)
                                            1.0000 -0.0001  0.0000 -0.0000  0.0000
                                            0.0000  0.0000  0.0000 -0.0000  0.0000
                                           -0.0000  0.0000  0.0000 -0.0000  0.0000
                                           -0.0000  0.0000  0.0000  0.0000  0.0000
                                            0.0000  0.0000 -0.0000  0.0000  0.0000
                                            0.0000  0.0000  0.0000  0.0000  0.0000
                                            0.0000  0.0000  0.0000 -0.0000  0.0000
                                           -0.0000  0.0000 -0.0000  0.0000 -0.0000
                                            0.0000  0.0000  0.0000  0.0000  0.0000
                                            0.0000  0.0000  0.0000  0.0000  0.0000
                                            0.0000  0.0000  0.0000  0.0000  0.0000
     5. (2.00005) CR ( 2) I   3           s(  0.00%)p 1.00(100.00%)
                                            0.0000  0.0000  0.0000 -0.0000  0.0000
                                           -0.0000  1.0000 -0.0002 -0.0000 -0.0000
                                            0.0000  0.0000  0.0000  0.0000 -0.0000
                                            0.0000  0.0000  0.0000  0.0000  0.0000
                                            0.0000  0.0000 -0.0000 -0.0000  0.0000
                                            0.0000  0.0000  0.0000  0.0000  0.0000
                                            0.0000  0.0000  0.0000  0.0000 -0.0000
                                            0.0000 -0.0000  0.0000  0.0000 -0.0000
                                            0.0000  0.0000  0.0000  0.0000  0.0000
                                           -0.0000 -0.0000  0.0000  0.0000  0.0000
                                            0.0000  0.0000  0.0000 -0.0000 -0.0000
     6. (1.99994) CR ( 3) I   3           s(  0.00%)p 1.00(100.00%)
                                            0.0000  0.0001 -0.0000  0.0000 -0.0000
                                           -0.0000  0.0000  0.0000  0.0000  0.0000
                                           -0.0000  1.0000 -0.0000  0.0000 -0.0000
                                           -0.0000  0.0000  0.0000  0.0000  0.0000
                                            0.0000 -0.0000  0.0000 -0.0000 -0.0000
                                            0.0000  0.0000  0.0000  0.0000  0.0000
                                            0.0000  0.0000  0.0000  0.0000  0.0000
                                            0.0000 -0.0000  0.0000 -0.0000  0.0000
                                           -0.0000  0.0000  0.0000 -0.0000 -0.0000
                                           -0.0000 -0.0000  0.0000  0.0000  0.0000
                                            0.0000 -0.0000 -0.0000  0.0000  0.0000
     7. (2.00005) CR ( 4) I   3           s(  0.00%)p 1.00(100.00%)
                                            0.0000  0.0000  0.0000  0.0000  0.0000
                                            0.0000  0.0000  0.0000  0.0000  0.0000
                                            0.0000  0.0000  0.0000  0.0000  0.0000
                                            0.0000  1.0000 -0.0002 -0.0000 -0.0000
                                            0.0000  0.0000  0.0000  0.0000  0.0000
                                            0.0000 -0.0000  0.0000 -0.0000  0.0000
                                           -0.0000 -0.0000  0.0000  0.0000  0.0000
                                            0.0000  0.0000  0.0000  0.0000  0.0000
                                            0.0000  0.0000  0.0000  0.0000  0.0000
                                            0.0000  0.0000  0.0000  0.0000 -0.0000
                                           -0.0000  0.0000  0.0000  0.0000  0.0000
     8. (1.99673) CR ( 5) I   3           s(  0.00%)p 0.00(  0.00%)d 1.00(100.00%)
                                            0.0000  0.0000 -0.0000  0.0000 -0.0000
                                           -0.0000  0.0000  0.0000  0.0000  0.0000
                                           -0.0000 -0.0000 -0.0000  0.0000 -0.0000
                                           -0.0000  0.0000  0.0000  0.0000  0.0000
                                            0.0000  1.0000  0.0000  0.0000 -0.0000
                                            0.0000  0.0000  0.0000  0.0000  0.0000
                                            0.0000  0.0000  0.0000  0.0000  0.0000
                                           -0.0000 -0.0000  0.0000 -0.0000  0.0000
                                           -0.0000  0.0000  0.0000 -0.0000 -0.0000
                                           -0.0000 -0.0000  0.0000  0.0000  0.0000
                                            0.0000 -0.0000 -0.0000  0.0000  0.0000
     9. (1.99678) CR ( 6) I   3           s(  0.00%)p 0.00(  0.00%)d 1.00(100.00%)
                                            0.0000  0.0000  0.0000  0.0000  0.0000
                                            0.0000  0.0000  0.0000  0.0000  0.0000
                                            0.0000  0.0000  0.0000  0.0000  0.0000
                                            0.0000  0.0000  0.0000  0.0000  0.0000
                                           -0.0000  0.0000  0.0000  0.0000  0.0000
                                            1.0000  0.0000 -0.0000  0.0000 -0.0000
                                            0.0000  0.0000 -0.0000  0.0000  0.0000
                                            0.0000  0.0000  0.0000  0.0000  0.0000
                                            0.0000 -0.0000 -0.0000  0.0000  0.0000
                                            0.0000  0.0000 -0.0000 -0.0000  0.0000
                                            0.0000  0.0000  0.0000  0.0000  0.0000
    10. (1.99675) CR ( 7) I   3           s(  0.00%)p 0.00(  0.00%)d 1.00(100.00%)
                                            0.0000  0.0000  0.0000  0.0000  0.0000
                                            0.0000  0.0000  0.0000  0.0000  0.0000
                                            0.0000  0.0000  0.0000  0.0000  0.0000
                                            0.0000  0.0000  0.0000  0.0000  0.0000
                                           -0.0000  0.0000  0.0000  0.0000  0.0000
                                           -0.0000  0.0000 -0.0000  0.0000  1.0000
                                            0.0000  0.0000 -0.0000  0.0000  0.0000
                                            0.0000  0.0000  0.0000  0.0000  0.0000
                                            0.0000 -0.0000 -0.0000  0.0000  0.0000
                                            0.0000  0.0000 -0.0000 -0.0000  0.0000
                                            0.0000  0.0000  0.0000  0.0000  0.0000
    11. (1.99669) CR ( 8) I   3           s(  0.00%)p 0.00(  0.00%)d 1.00(100.00%)
                                           -0.0000 -0.0000 -0.0000 -0.0000 -0.0000
                                            0.0000  0.0000  0.0000  0.0000  0.0000
                                           -0.0000  0.0000  0.0000 -0.0000  0.0000
                                           -0.0000  0.0000  0.0000  0.0000  0.0000
                                            0.0000  0.0000  0.0000  0.0000 -0.0000
                                            0.0000  0.0000  0.0000  0.0000  0.0000
                                            0.0000  0.0000  0.0000  1.0000  0.0000
                                           -0.0000  0.0000 -0.0000  0.0000 -0.0000
                                           -0.0000  0.0000  0.0000 -0.0000 -0.0000
                                            0.0000  0.0000  0.0000  0.0000  0.0000
                                            0.0000 -0.0000 -0.0000  0.0000  0.0000
    12. (1.99675) CR ( 9) I   3           s(  0.00%)p 0.00(  0.00%)d 1.00(100.00%)
                                           -0.0000 -0.0000  0.0000 -0.0000  0.0000
                                            0.0000  0.0000  0.0000 -0.0000  0.0000
                                           -0.0000  0.0000  0.0000 -0.0000  0.0000
                                           -0.0000  0.0000  0.0000  0.0000  0.0000
                                            0.0000  0.0000 -0.0000  0.0000  0.0000
                                            0.0000  0.0000  0.0000  0.0000  0.0000
                                            0.0000  0.0000  0.0000 -0.0000  0.0000
                                           -0.0000  0.0000  1.0000  0.0000 -0.0000
                                            0.0000  0.0000  0.0000  0.0000  0.0000
                                            0.0000  0.0000  0.0000  0.0000  0.0000
                                            0.0000  0.0000  0.0000  0.0000  0.0000
    13. (1.97238) LP ( 1) O   1           s( 73.95%)p 0.35( 25.98%)d 0.00(  0.06%)
                                                  f 0.00(  0.00%)
                                            0.0002  0.8600  0.0005  0.0010  0.0004
                                           -0.3476 -0.0082  0.0035  0.0004  0.3726
                                            0.0050 -0.0050  0.0013  0.0000  0.0000
                                            0.0000  0.0000  0.0229 -0.0029 -0.0009
                                            0.0000  0.0000  0.0000  0.0000  0.0000
                                            0.0000 -0.0014 -0.0002 -0.0001  0.0078
                                           -0.0026  0.0023  0.0000  0.0000  0.0017
                                           -0.0011 -0.0012  0.0005  0.0000  0.0000
                                            0.0000  0.0000  0.0023 -0.0010  0.0017
                                            0.0001
    14. (1.95824) LP ( 2) O   1           s(  0.00%)p 1.00( 99.80%)d 0.00(  0.19%)
                                                  f 0.00(  0.01%)
                                            0.0000  0.0000  0.0000  0.0000  0.0000
                                            0.0000  0.0000  0.0000  0.0000  0.0000
                                            0.0000  0.0000  0.0000  0.9988  0.0186
                                           -0.0045  0.0062  0.0000  0.0000  0.0000
                                            0.0362 -0.0032 -0.0010 -0.0229  0.0030
                                            0.0014  0.0000  0.0000  0.0000  0.0000
                                            0.0000  0.0000 -0.0100  0.0035  0.0000
                                            0.0000  0.0000  0.0000  0.0010  0.0013
                                            0.0020 -0.0007  0.0000  0.0000  0.0000
                                            0.0000
    15. (1.97937) LP ( 1) I   3           s( 96.96%)p 0.03(  3.04%)d 0.00(  0.00%)
                                                  f 0.00(  0.00%)
                                            0.0001  0.9847 -0.0001  0.0007 -0.0003
                                           -0.0001 -0.0000 -0.0333  0.0004 -0.0001
                                            0.0001 -0.0001 -0.1711  0.0010 -0.0007
                                            0.0002  0.0000  0.0000  0.0000  0.0000
                                            0.0000 -0.0000  0.0004 -0.0004  0.0000
                                            0.0000  0.0000  0.0000  0.0000  0.0000
                                            0.0000  0.0000  0.0000  0.0000 -0.0007
                                            0.0005 -0.0001  0.0000 -0.0006  0.0004
                                           -0.0000  0.0000  0.0000 -0.0001 -0.0001
                                           -0.0006 -0.0004  0.0000  0.0000  0.0000
                                            0.0000 -0.0004 -0.0003 -0.0005 -0.0003
    16. (1.95174) LP ( 2) I   3           s(  0.00%)p 1.00( 99.99%)d 0.00(  0.00%)
                                                  f 0.00(  0.00%)
                                            0.0000  0.0000  0.0000  0.0000  0.0000
                                            0.0000  0.0000  0.0000  0.0000  0.0000
                                            0.0000  0.0000  0.0000  0.0000  0.0000
                                            0.0000  0.0002  1.0000  0.0022  0.0014
                                           -0.0002  0.0000  0.0000  0.0000  0.0000
                                           -0.0000  0.0023 -0.0009  0.0005 -0.0000
                                            0.0046  0.0003 -0.0031  0.0000  0.0000
                                            0.0000  0.0000  0.0000  0.0000  0.0000
                                            0.0000 -0.0024 -0.0013  0.0000  0.0000
                                            0.0000  0.0000 -0.0024 -0.0010  0.0014
                                            0.0009  0.0000  0.0000  0.0000  0.0000
    17. (1.95152) LP ( 3) I   3           s(  0.00%)p 1.00( 99.99%)d 0.00(  0.01%)
                                                  f 0.00(  0.00%)
                                           -0.0000  0.0030  0.0005 -0.0018  0.0016
                                           -0.0001 -0.0002 -0.9781 -0.0033 -0.0018
                                            0.0007  0.0000  0.2081 -0.0000 -0.0001
                                            0.0005 -0.0000 -0.0000 -0.0000 -0.0000
                                           -0.0000  0.0000 -0.0051 -0.0003  0.0028
                                           -0.0000 -0.0000 -0.0000 -0.0000 -0.0000
                                           -0.0000 -0.0000 -0.0000  0.0000 -0.0041
                                            0.0011 -0.0000 -0.0000  0.0006 -0.0005
                                            0.0007 -0.0000 -0.0000  0.0011  0.0006
                                           -0.0002 -0.0001 -0.0000 -0.0000 -0.0000
                                           -0.0000  0.0025  0.0009 -0.0024 -0.0014
    18. (1.88551) LP ( 4) I   3           s(  3.04%)p31.92( 96.87%)d 0.02(  0.08%)
                                                  f 0.01(  0.02%)
                                            0.0000  0.1742  0.0005 -0.0043  0.0015
                                            0.0008  0.0000  0.2054 -0.0006 -0.0005
                                           -0.0002 -0.0000  0.9625 -0.0056 -0.0034
                                            0.0010  0.0000  0.0000  0.0000  0.0000
                                            0.0000 -0.0000  0.0103 -0.0017 -0.0002
                                            0.0000  0.0000  0.0000  0.0000  0.0000
                                            0.0000  0.0000  0.0000 -0.0000 -0.0206
                                            0.0036  0.0021  0.0000 -0.0140  0.0028
                                            0.0004  0.0000  0.0000 -0.0015 -0.0010
                                           -0.0071 -0.0046  0.0000  0.0000  0.0000
                                            0.0000 -0.0051 -0.0027 -0.0071 -0.0042
    19. (0.02163) RY*( 1) O   1           s(  0.00%)p 1.00( 98.59%)d 0.01(  1.38%)
                                                  f 0.00(  0.04%)
                                            0.0000  0.0000  0.0000  0.0000  0.0000
                                            0.0000  0.0000  0.0000  0.0000  0.0000
                                            0.0000  0.0000  0.0000 -0.0235  0.9924
                                            0.0201 -0.0074  0.0000  0.0000  0.0000
                                            0.0904 -0.0152  0.0041 -0.0706  0.0174
                                           -0.0062  0.0000  0.0000  0.0000  0.0000
                                            0.0000  0.0000 -0.0142  0.0129  0.0000
                                            0.0000  0.0000  0.0000 -0.0031  0.0025
                                           -0.0001 -0.0015  0.0000  0.0000  0.0000
                                            0.0000
    20. (0.01708) RY*( 2) O   1           s( 13.86%)p 6.02( 83.49%)d 0.18(  2.56%)
                                                  f 0.01(  0.10%)
                                           -0.0000 -0.0093  0.3718  0.0164 -0.0050
                                           -0.0024 -0.5826 -0.0036  0.0098 -0.0142
                                            0.7035  0.0003 -0.0163  0.0000  0.0000
                                            0.0000  0.0000  0.1522 -0.0234  0.0063
                                            0.0000  0.0000  0.0000  0.0000  0.0000
                                            0.0000  0.0134 -0.0071  0.0086  0.0328
                                           -0.0183  0.0107  0.0000  0.0000  0.0003
                                           -0.0037 -0.0022  0.0056  0.0000  0.0000
                                            0.0000  0.0000  0.0252 -0.0110  0.0116
                                           -0.0039
    21. (0.01000) RY*( 3) O   1           s(  1.21%)p76.70( 93.10%)d 4.51(  5.48%)
                                                  f 0.17(  0.21%)
                                            0.0000  0.0076  0.1086  0.0161 -0.0046
                                            0.0329  0.7745  0.0069 -0.0289  0.0171
                                            0.5735  0.0046  0.0068  0.0000  0.0000
                                            0.0000  0.0000  0.0726  0.0089 -0.0057
                                            0.0000  0.0000  0.0000  0.0000  0.0000
                                            0.0000 -0.2178 -0.0376  0.0217  0.0034
                                           -0.0002 -0.0034  0.0000  0.0000  0.0197
                                           -0.0013  0.0079 -0.0022  0.0000  0.0000
                                            0.0000  0.0000 -0.0289  0.0086  0.0240
                                           -0.0133
    22. (0.00666) RY*( 4) O   1           s( 34.00%)p 0.06(  1.90%)d 1.87( 63.54%)
                                                  f 0.02(  0.56%)
                                            0.0000  0.0118  0.5825 -0.0145  0.0191
                                           -0.0056  0.0525 -0.0174 -0.0008  0.0082
                                           -0.1183  0.0052 -0.0424 -0.0000 -0.0000
                                           -0.0000 -0.0000 -0.7232 -0.0129 -0.0062
                                           -0.0000 -0.0000 -0.0000 -0.0000 -0.0000
                                           -0.0000 -0.0685 -0.0019  0.0121  0.3256
                                            0.0364 -0.0049 -0.0000 -0.0000 -0.0034
                                            0.0113  0.0102 -0.0068 -0.0000 -0.0000
                                           -0.0000 -0.0000 -0.0562  0.0238 -0.0391
                                            0.0091
    23. (0.00633) RY*( 5) O   1           s(  0.00%)p 1.00(  0.01%)d99.99( 98.62%)
                                                  f99.99(  1.37%)
                                            0.0000  0.0000  0.0000  0.0000  0.0000
                                            0.0000  0.0000  0.0000  0.0000  0.0000
                                            0.0000  0.0000  0.0000 -0.0031  0.0029
                                            0.0092 -0.0015  0.0000  0.0000  0.0000
                                            0.5925  0.0371 -0.0072  0.7948  0.0444
                                           -0.0013  0.0000  0.0000  0.0000  0.0000
                                            0.0000  0.0000  0.0120 -0.0122  0.0000
                                            0.0000  0.0000  0.0000  0.0998 -0.0588
                                           -0.0026  0.0066  0.0000  0.0000  0.0000
                                            0.0000
    24. (0.00593) RY*( 6) O   1           s(  0.00%)p 1.00(  1.53%)d63.62( 97.44%)
                                                  f 0.67(  1.03%)
                                            0.0000  0.0000  0.0000  0.0000  0.0000
                                            0.0000  0.0000  0.0000  0.0000  0.0000
                                            0.0000  0.0000  0.0000 -0.0405 -0.1130
                                           -0.0253  0.0161  0.0000  0.0000  0.0000
                                            0.7860  0.0765 -0.0256 -0.5890 -0.0553
                                            0.0130  0.0000  0.0000  0.0000  0.0000
                                            0.0000  0.0000 -0.0760  0.0412  0.0000
                                            0.0000  0.0000  0.0000  0.0284 -0.0119
                                           -0.0392  0.0173  0.0000  0.0000  0.0000
                                            0.0000
    25. (0.00586) RY*( 7) O   1           s(  4.30%)p 1.02(  4.36%)d21.07( 90.48%)
                                                  f 0.20(  0.87%)
                                           -0.0000  0.0084  0.2068 -0.0097  0.0033
                                            0.0189  0.1129  0.0166 -0.0070 -0.0443
                                           -0.1667 -0.0200 -0.0077  0.0000  0.0000
                                            0.0000  0.0000  0.5163  0.0243 -0.0047
                                            0.0000  0.0000  0.0000  0.0000  0.0000
                                            0.0000  0.2474  0.0177  0.0070  0.7541
                                            0.0832 -0.0214  0.0000  0.0000  0.0491
                                           -0.0221 -0.0567  0.0327  0.0000  0.0000
                                            0.0000  0.0000  0.0311 -0.0173  0.0147
                                           -0.0021
    26. (0.00399) RY*( 8) O   1           s( 29.06%)p 0.46( 13.48%)d 1.92( 55.71%)
                                                  f 0.06(  1.75%)
                                            0.0000 -0.0060  0.5377 -0.0352 -0.0148
                                            0.0256 -0.0091  0.0051 -0.0152  0.0217
                                           -0.3564 -0.0010 -0.0797  0.0000  0.0000
                                            0.0000  0.0000  0.3968  0.0339 -0.0051
                                            0.0000  0.0000  0.0000  0.0000  0.0000
                                            0.0000 -0.5424 -0.0514  0.0307 -0.3135
                                           -0.0467  0.0137  0.0000  0.0000  0.0171
                                           -0.0066  0.0426 -0.0335  0.0000  0.0000
                                            0.0000  0.0000  0.0063 -0.0202  0.0990
                                           -0.0628
    27. (0.00312) RY*( 9) O   1           s( 16.43%)p 0.33(  5.46%)d 4.67( 76.77%)
                                                  f 0.08(  1.34%)
                                            0.0000 -0.0058  0.4053  0.0072 -0.0021
                                           -0.0442  0.2044 -0.0735  0.0082 -0.0162
                                           -0.0610 -0.0303 -0.0212  0.0000  0.0000
                                            0.0000  0.0000  0.0773  0.0014 -0.0008
                                            0.0000  0.0000  0.0000  0.0000  0.0000
                                            0.0000  0.7407  0.0913  0.0218 -0.4402
                                           -0.1014  0.0144  0.0000  0.0000 -0.0388
                                            0.0448 -0.0004  0.0010  0.0000  0.0000
                                            0.0000  0.0000  0.0603 -0.0616 -0.0433
                                            0.0242
    28. (0.00059) RY*(10) O   1           s( 19.97%)p 3.31( 66.03%)d 0.60( 12.05%)
                                                  f 0.10(  1.95%)
                                            0.0000 -0.0067  0.0038  0.4469 -0.0013
                                           -0.0015 -0.0138  0.2927 -0.0708  0.0036
                                           -0.0025 -0.7542  0.0231 -0.0000 -0.0000
                                           -0.0000 -0.0000 -0.0183  0.3097 -0.0937
                                           -0.0000 -0.0000 -0.0000 -0.0000 -0.0000
                                           -0.0000 -0.0106  0.0839  0.0440 -0.0056
                                            0.0273  0.0749 -0.0000 -0.0000  0.0032
                                           -0.0014  0.1286 -0.0150 -0.0000 -0.0000
                                           -0.0000 -0.0000 -0.0439  0.0182 -0.0130
                                            0.0170
    29. (0.00057) RY*(11) O   1           s(  0.00%)p 1.00( 42.44%)d 1.24( 52.58%)
                                                  f 0.12(  4.99%)
                                            0.0000  0.0000  0.0000  0.0000  0.0000
                                            0.0000  0.0000  0.0000  0.0000  0.0000
                                            0.0000  0.0000  0.0000 -0.0034 -0.0400
                                            0.6501  0.0124  0.0000  0.0000  0.0000
                                            0.0435 -0.3511  0.0244 -0.0426  0.6302
                                           -0.0323  0.0000  0.0000  0.0000  0.0000
                                            0.0000  0.0000 -0.1699  0.0301  0.0000
                                            0.0000  0.0000  0.0000 -0.0985  0.0084
                                           -0.1012 -0.0085  0.0000  0.0000  0.0000
                                            0.0000
    30. (0.00053) RY*(12) O   1           s(  1.58%)p 5.44(  8.59%)d41.04( 64.85%)
                                                  f15.81( 24.98%)
                                           -0.0000 -0.0000 -0.0657  0.0812  0.0700
                                            0.0036  0.0086 -0.1120 -0.0383 -0.0070
                                           -0.0073 -0.1216 -0.2386 -0.0000 -0.0000
                                           -0.0000 -0.0000 -0.0496 -0.2730 -0.0776
                                           -0.0000 -0.0000 -0.0000 -0.0000 -0.0000
                                           -0.0000  0.0138 -0.2106  0.1205  0.1162
                                           -0.6906  0.1265 -0.0000 -0.0000  0.1798
                                           -0.0095  0.1825  0.0152 -0.0000 -0.0000
                                           -0.0000 -0.0000  0.3028  0.0107  0.3033
                                            0.0085
    31. (0.00048) RY*(13) O   1           s(  0.00%)p 1.00( 43.22%)d 0.53( 22.94%)
                                                  f 0.78( 33.84%)
                                            0.0000  0.0000  0.0000  0.0000  0.0000
                                            0.0000  0.0000  0.0000  0.0000  0.0000
                                            0.0000  0.0000  0.0000  0.0035 -0.0007
                                            0.6438  0.1329  0.0000  0.0000  0.0000
                                           -0.0049  0.1180  0.0091 -0.0094 -0.4611
                                           -0.0514  0.0000  0.0000  0.0000  0.0000
                                            0.0000  0.0000  0.0928  0.0111  0.0000
                                            0.0000  0.0000  0.0000  0.2076 -0.0052
                                            0.5347  0.0260  0.0000  0.0000  0.0000
                                            0.0000
    32. (0.00046) RY*(14) O   1           s(  3.39%)p 1.49(  5.04%)d 3.01( 10.22%)
                                                  f23.98( 81.35%)
                                           -0.0000  0.0008  0.0353  0.1807 -0.0043
                                            0.0083  0.0112 -0.0073  0.0762  0.0002
[...]
                                            0.0000  0.0000  0.0000  0.0000  0.0000
                                            0.0000  0.0000  0.0000  0.0000  0.0000
                                            0.9851  0.1024  0.0018  0.0000  0.0000
                                           -0.0169  0.0176 -0.1092  0.0808  0.0000
                                            0.0000  0.0000  0.0000
   126. (0.00357) RY*( 3) H   4           s(  0.22%)p99.99( 97.54%)d10.34(  2.24%)
                                            0.0308 -0.0255  0.0173 -0.0163 -0.9689
                                            0.0425  0.0100  0.1855  0.0181  0.0108
                                           -0.0000 -0.0000 -0.0000  0.1397 -0.0304
                                           -0.0000 -0.0000 -0.0000 -0.0000  0.0192
                                           -0.0207  0.0317 -0.0124
   127. (0.00233) RY*( 4) H   4           s( 44.74%)p 1.22( 54.75%)d 0.01(  0.51%)
                                            0.0400  0.6263 -0.1154 -0.2006  0.1089
                                            0.0385  0.0189  0.6688 -0.2940  0.0019
                                            0.0000  0.0000  0.0000 -0.0230  0.0296
                                            0.0000  0.0000  0.0000  0.0000  0.0414
                                           -0.0134  0.0424 -0.0071
   128. (0.00152) RY*( 5) H   4           s( 39.90%)p 1.45( 58.05%)d 0.05(  2.05%)
                                           -0.0189  0.2466  0.5789 -0.0529  0.0472
                                            0.2217 -0.0384  0.1449  0.7027 -0.1134
                                            0.0000  0.0000  0.0000 -0.0377 -0.0438
                                            0.0000  0.0000  0.0000  0.0000  0.0117
                                            0.1086  0.0320  0.0646
   129. (0.00044) RY*( 6) H   4           s(  7.41%)p11.90( 88.16%)d 0.60(  4.43%)
                                           -0.0011 -0.0631  0.0368  0.2622  0.0175
                                            0.8979  0.0056 -0.0161 -0.2362  0.1375
                                            0.0000  0.0000  0.0000 -0.0296  0.1762
                                            0.0000  0.0000  0.0000  0.0000 -0.0021
                                            0.0287 -0.1071 -0.0106
   130. (0.00040) RY*( 7) H   4           s(  0.00%)p 1.00( 73.10%)d 0.37( 26.90%)
                                            0.0000  0.0000  0.0000  0.0000  0.0000
                                            0.0000  0.0000  0.0000  0.0000  0.0000
                                           -0.0496  0.8403  0.1499  0.0000  0.0000
                                            0.0427  0.0627  0.4800  0.1812  0.0000
                                            0.0000  0.0000  0.0000
   131. (0.00029) RY*( 8) H   4           s(  3.52%)p 3.60( 12.69%)d23.80( 83.79%)
                                           -0.0046  0.0033  0.1618 -0.0949 -0.0999
                                           -0.0795 -0.1385  0.0153 -0.0537  0.2971
                                           -0.0000 -0.0000 -0.0000 -0.6301  0.0538
                                           -0.0000 -0.0000 -0.0000 -0.0000 -0.6223
                                           -0.1564 -0.1288 -0.0980
   132. (0.00029) RY*( 9) H   4           s(  0.00%)p 1.00( 28.81%)d 2.47( 71.19%)
                                            0.0000  0.0000  0.0000  0.0000  0.0000
                                            0.0000  0.0000  0.0000  0.0000  0.0000
                                            0.1506 -0.4865  0.1695  0.0000  0.0000
                                            0.0764 -0.0075  0.8369 -0.0753  0.0000
                                            0.0000  0.0000  0.0000
   133. (0.00026) RY*(10) H   4           s(  9.00%)p 2.50( 22.48%)d 7.61( 68.52%)
                                           -0.0186  0.0152  0.2223 -0.2001  0.0963
                                           -0.0386  0.1978 -0.0182 -0.0115  0.4176
                                           -0.0000 -0.0000 -0.0000  0.6793  0.1321
                                           -0.0000 -0.0000 -0.0000 -0.0000 -0.3316
                                           -0.2031 -0.1557 -0.1756
   134. (0.00019) RY*(11) H   4           s(  0.00%)p 1.00(  0.47%)d99.99( 99.53%)
                                            0.0000  0.0000  0.0000  0.0000  0.0000
                                            0.0000  0.0000  0.0000  0.0000  0.0000
                                            0.0111  0.0157 -0.0659  0.0000  0.0000
                                            0.9922 -0.0666 -0.0736 -0.0309  0.0000
                                            0.0000  0.0000  0.0000
   135. (0.00019) RY*(12) H   4           s( 20.62%)p 0.06(  1.19%)d 3.79( 78.19%)
                                            0.0067  0.0392  0.0485  0.4497  0.0388
                                           -0.0398  0.0455  0.0566 -0.0405  0.0440
                                            0.0000  0.0000  0.0000  0.1055 -0.0454
                                            0.0000  0.0000  0.0000  0.0000 -0.3198
                                            0.0134  0.8158 -0.0268
   136. (0.00013) RY*(13) H   4           s( 54.75%)p 0.40( 21.77%)d 0.43( 23.48%)
                                           -0.0042  0.1310  0.0964  0.7218 -0.0012
                                           -0.2708  0.0833  0.1552  0.0825  0.3264
                                            0.0000  0.0000  0.0000 -0.0713  0.0158
                                            0.0000  0.0000  0.0000  0.0000  0.2847
                                           -0.1820 -0.3300 -0.0798
   137. (0.00013) RY*(14) H   4           s( 43.69%)p 1.07( 46.75%)d 0.22(  9.55%)
                                            0.0168 -0.0784  0.6549  0.0394 -0.0054
                                           -0.1291 -0.1372 -0.0220 -0.4884 -0.4394
                                            0.0000  0.0000  0.0000  0.0203  0.1506
                                            0.0000  0.0000  0.0000  0.0000  0.1100
                                           -0.2006 -0.0069 -0.1416
   138. (0.00008) RY*(15) H   4           s(  0.04%)p99.99( 28.85%)d99.99( 71.11%)
   139. (0.00009) RY*(16) H   4           s(  0.00%)p 1.00( 29.16%)d 2.43( 70.84%)
   140. (0.00005) RY*(17) H   4           s(  7.73%)p 1.39( 10.73%)d10.55( 81.55%)
   141. (0.00003) RY*(18) H   4           s( 11.84%)p 3.14( 37.17%)d 4.31( 51.00%)
   142. (0.00003) RY*(19) H   4           s(  0.00%)p 1.00( 68.98%)d 0.45( 31.02%)
   143. (0.00003) RY*(20) H   4           s(  0.00%)p 1.00(  1.39%)d71.16( 98.61%)
   144. (0.00003) RY*(21) H   4           s(  2.89%)p23.17( 67.06%)d10.38( 30.05%)
   145. (0.00003) RY*(22) H   4           s(  2.08%)p 2.21(  4.59%)d44.93( 93.33%)
   146. (0.01988) BD*( 1) O   1 - H   2  
                ( 16.12%)   0.4016* O   1 s( 14.49%)p 5.87( 85.14%)d 0.02(  0.36%)
                                                  f 0.00(  0.01%)
                                           -0.0001 -0.3807 -0.0008  0.0010  0.0014
                                           -0.9222  0.0227 -0.0055  0.0049  0.0167
                                            0.0066  0.0010  0.0005 -0.0000 -0.0000
                                           -0.0000 -0.0000  0.0190 -0.0049  0.0022
                                           -0.0000 -0.0000 -0.0000 -0.0000 -0.0000
                                           -0.0000 -0.0481  0.0034 -0.0028  0.0292
                                           -0.0009  0.0003 -0.0000 -0.0000  0.0089
                                           -0.0007 -0.0000  0.0002 -0.0000 -0.0000
                                           -0.0000 -0.0000 -0.0032 -0.0035 -0.0009
                                            0.0005
                ( 83.88%)  -0.9158* H   2 s( 99.62%)p 0.00(  0.38%)d 0.00(  0.01%)
                                           -0.9980  0.0132 -0.0002  0.0004 -0.0399
                                            0.0440  0.0040  0.0153 -0.0016  0.0001
                                           -0.0000 -0.0000 -0.0000 -0.0003 -0.0033
                                           -0.0000 -0.0000 -0.0000 -0.0000 -0.0020
                                           -0.0024  0.0045  0.0035
   147. (0.09365) BD*( 1) O   1 - H   4  
                ( 11.69%)   0.3420* O   1 s( 11.50%)p 7.67( 88.16%)d 0.03(  0.33%)
                                                  f 0.00(  0.01%)
                                            0.0001  0.3391 -0.0024 -0.0014  0.0002
                                           -0.1553  0.0116 -0.0012  0.0018 -0.9259
                                            0.0020 -0.0037  0.0037 -0.0000 -0.0000
                                           -0.0000 -0.0000 -0.0146  0.0030 -0.0011
                                           -0.0000 -0.0000 -0.0000 -0.0000 -0.0000
                                           -0.0000 -0.0456  0.0078 -0.0024 -0.0302
                                            0.0042  0.0002 -0.0000 -0.0000  0.0015
                                           -0.0002  0.0100 -0.0027 -0.0000 -0.0000
                                           -0.0000 -0.0000  0.0031  0.0004  0.0008
                                            0.0004
                ( 88.31%)  -0.9397* H   4 s( 99.71%)p 0.00(  0.27%)d 0.00(  0.01%)
                                            0.9978 -0.0379  0.0113 -0.0006  0.0317
                                            0.0029  0.0059 -0.0118  0.0342  0.0195
                                           -0.0000 -0.0000 -0.0000  0.0020 -0.0025
                                           -0.0000 -0.0000 -0.0000 -0.0000 -0.0053
                                           -0.0010 -0.0093  0.0003


 NHO Directionality and "Bond Bending" (deviations from line of nuclear centers)

         [Thresholds for printing:  angular deviation  >  1.0 degree]
                                    hybrid p-character > 25.0%
                                    orbital occupancy  >  0.10e

                                Line of Centers        Hybrid 1              Hybrid 2
                                ---------------  -------------------   ------------------
                NBO               Theta   Phi    Theta   Phi    Dev    Theta   Phi    Dev
 ========================================================================================
     1. BD (   1) O   1 - H   2    90.0    0.0    90.0  358.4   1.6      --     --    --
     2. BD (   1) O   1 - H   4    90.0  258.1    90.0  261.2   3.1      --     --    --
    13. LP (   1) O   1             --     --     90.0  133.3   --       --     --    --
    14. LP (   2) O   1             --     --      0.0    0.0   --       --     --    --
    16. LP (   2) I   3             --     --      0.0    0.0   --       --     --    --
    17. LP (   3) I   3             --     --     90.0  168.0   --       --     --    --
    18. LP (   4) I   3             --     --     90.0   77.9   --       --     --    --


 Natural Bond Orbitals (Summary):

           NBO                  Occupancy  
 -----------------------------------------------
 Molecular unit  1  (H2O)
     1. BD (   1) O   1 - H   2          1.96205
     2. BD (   1) O   1 - H   4          1.95299
     3. CR (   1) O   1                  1.99992
    13. LP (   1) O   1                  1.97238
    14. LP (   2) O   1                  1.95824
    19. RY*(   1) O   1                  0.02163
    20. RY*(   2) O   1                  0.01708
    21. RY*(   3) O   1                  0.01000
    22. RY*(   4) O   1                  0.00666
    23. RY*(   5) O   1                  0.00633
    24. RY*(   6) O   1                  0.00593
    25. RY*(   7) O   1                  0.00586
    26. RY*(   8) O   1                  0.00399
    27. RY*(   9) O   1                  0.00312
    28. RY*(  10) O   1                  0.00059
    29. RY*(  11) O   1                  0.00057
    30. RY*(  12) O   1                  0.00053
    31. RY*(  13) O   1                  0.00048
    32. RY*(  14) O   1                  0.00046
    33. RY*(  15) O   1                  0.00045
    34. RY*(  16) O   1                  0.00045
    35. RY*(  17) O   1                  0.00044
    36. RY*(  18) O   1                  0.00043
    37. RY*(  19) O   1                  0.00043
    38. RY*(  20) O   1                  0.00040
    39. RY*(  21) O   1                  0.00041
    40. RY*(  22) O   1                  0.00037
    41. RY*(  23) O   1                  0.00033
    42. RY*(  24) O   1                  0.00022
    43. RY*(  25) O   1                  0.00022
    44. RY*(  26) O   1                  0.00018
    45. RY*(  27) O   1                  0.00012
    46. RY*(  28) O   1                  0.00009
    47. RY*(  29) O   1                  0.00008
    48. RY*(  30) O   1                  0.00008
    49. RY*(  31) O   1                  0.00007
    50. RY*(  32) O   1                  0.00007
    51. RY*(  33) O   1                  0.00007
    52. RY*(  34) O   1                  0.00007
    53. RY*(  35) O   1                  0.00004
    54. RY*(  36) O   1                  0.00005
    55. RY*(  37) O   1                  0.00005
    56. RY*(  38) O   1                  0.00005
    57. RY*(  39) O   1                  0.00002
    58. RY*(  40) O   1                  0.00001
    59. RY*(  41) O   1                 -0.00011
    60. RY*(   1) H   2                  0.00443
    61. RY*(   2) H   2                  0.00435
    62. RY*(   3) H   2                  0.00184
    63. RY*(   4) H   2                  0.00104
    64. RY*(   5) H   2                  0.00036
    65. RY*(   6) H   2                  0.00022
    66. RY*(   7) H   2                  0.00016
    67. RY*(   8) H   2                  0.00013
    68. RY*(   9) H   2                  0.00012
    69. RY*(  10) H   2                  0.00012
    70. RY*(  11) H   2                  0.00009
    71. RY*(  12) H   2                  0.00009
    72. RY*(  13) H   2                  0.00008
    73. RY*(  14) H   2                  0.00006
    74. RY*(  15) H   2                  0.00005
    75. RY*(  16) H   2                  0.00003
    76. RY*(  17) H   2                  0.00003
    77. RY*(  18) H   2                  0.00003
    78. RY*(  19) H   2                  0.00004
    79. RY*(  20) H   2                  0.00001
    80. RY*(  21) H   2                  0.00002
    81. RY*(  22) H   2                  0.00002
   124. RY*(   1) H   4                  0.00819
   125. RY*(   2) H   4                  0.00408
   126. RY*(   3) H   4                  0.00357
   127. RY*(   4) H   4                  0.00233
   128. RY*(   5) H   4                  0.00152
   129. RY*(   6) H   4                  0.00044
   130. RY*(   7) H   4                  0.00040
   131. RY*(   8) H   4                  0.00029
   132. RY*(   9) H   4                  0.00029
   133. RY*(  10) H   4                  0.00026
   134. RY*(  11) H   4                  0.00019
   135. RY*(  12) H   4                  0.00019
   136. RY*(  13) H   4                  0.00013
   137. RY*(  14) H   4                  0.00013
   138. RY*(  15) H   4                  0.00008
   139. RY*(  16) H   4                  0.00009
   140. RY*(  17) H   4                  0.00005
   141. RY*(  18) H   4                  0.00003
   142. RY*(  19) H   4                  0.00003
   143. RY*(  20) H   4                  0.00003
   144. RY*(  21) H   4                  0.00003
   145. RY*(  22) H   4                  0.00003
   146. BD*(   1) O   1 - H   2          0.01988
   147. BD*(   1) O   1 - H   4          0.09365
       -------------------------------
              Total Lewis    9.84558  ( 97.6442%)
        Valence non-Lewis    0.11353  (  1.1259%)
        Rydberg non-Lewis    0.12401  (  1.2299%)
       -------------------------------
            Total unit  1   10.08312  (100.0000%)
           Charge unit  1   -0.08312

 Molecular unit  2  (I)
     4. CR (   1) I   3                  1.99997
     5. CR (   2) I   3                  2.00005
     6. CR (   3) I   3                  1.99994
     7. CR (   4) I   3                  2.00005
     8. CR (   5) I   3                  1.99673
     9. CR (   6) I   3                  1.99678
    10. CR (   7) I   3                  1.99675
    11. CR (   8) I   3                  1.99669
    12. CR (   9) I   3                  1.99675
    15. LP (   1) I   3                  1.97937
    16. LP (   2) I   3                  1.95174
    17. LP (   3) I   3                  1.95152
    18. LP (   4) I   3                  1.88551
    82. RY*(   1) I   3                  0.02001
    83. RY*(   2) I   3                  0.01998
    84. RY*(   3) I   3                  0.01995
    85. RY*(   4) I   3                  0.01993
    86. RY*(   5) I   3                  0.01960
    87. RY*(   6) I   3                  0.01064
    88. RY*(   7) I   3                  0.01061
    89. RY*(   8) I   3                  0.00937
    90. RY*(   9) I   3                  0.00303
    91. RY*(  10) I   3                  0.00276
    92. RY*(  11) I   3                  0.00276
    93. RY*(  12) I   3                  0.00276
    94. RY*(  13) I   3                  0.00276
    95. RY*(  14) I   3                  0.00268
    96. RY*(  15) I   3                  0.00267
    97. RY*(  16) I   3                  0.00252
    98. RY*(  17) I   3                  0.00164
    99. RY*(  18) I   3                  0.00164
   100. RY*(  19) I   3                  0.00130
   101. RY*(  20) I   3                  0.00128
   102. RY*(  21) I   3                  0.00108
   103. RY*(  22) I   3                  0.00072
   104. RY*(  23) I   3                  0.00072
   105. RY*(  24) I   3                  0.00061
   106. RY*(  25) I   3                  0.00043
   107. RY*(  26) I   3                  0.00044
   108. RY*(  27) I   3                  0.00042
   109. RY*(  28) I   3                  0.00042
   110. RY*(  29) I   3                  0.00042
   111. RY*(  30) I   3                  0.00037
   112. RY*(  31) I   3                  0.00037
   113. RY*(  32) I   3                  0.00030
   114. RY*(  33) I   3                  0.00015
   115. RY*(  34) I   3                  0.00015
   116. RY*(  35) I   3                  0.00012
   117. RY*(  36) I   3                  0.00012
   118. RY*(  37) I   3                  0.00007
   119. RY*(  38) I   3                  0.00007
   120. RY*(  39) I   3                  0.00006
   121. RY*(  40) I   3                  0.00005
   122. RY*(  41) I   3                  0.00006
   123. RY*(  42) I   3                  0.00001
       -------------------------------
              Total Lewis   53.75186  ( 99.6939%)
        Valence non-Lewis    0.00000  (  0.0000%)
        Rydberg non-Lewis    0.16503  (  0.3061%)
       -------------------------------
            Total unit  2   53.91688  (100.0000%)
           Charge unit  2   -0.91688
 Leave Link  607 at Tue Oct 12 16:23:55 2021, MaxMem=  1048576000 cpu:         7.9
 (Enter /usr/local/gaussian/g09/l9999.exe)
 1\1\GINC-KRYPTON\SP\RMP2-FC\Gen\H2I1O1(1-)\CGAVINH\12-Oct-2021\0\\#p p
 op=NBO SP NoSymm mp2/gen Pseudo=read density=current\\title\\-1,1\O\X,
 1,10.\H,1,0.9609077,2,90.\I,1,3.50850362,2,90.,3,101.85830594,0\H,1,1.
 2,2,90.,3,101.85830594,0\\Version=ES64L-G09RevE.01\HF=-370.7829994\MP2
 =-371.2921899\RMSD=3.152e-09\Dipole=0.5622227,0.1464656,0.\Quadrupole=
 11.5069568,-22.4920848,10.985128,-6.6734468,0.,0.\PG=CS [SG(H2I1O1)]\\
 @


 There are more things in heaven and earth, Horatio,
 than are dreamt of in your philosophy.
                   -- Hamlet, Act I, Scene 5
 Job cpu time:       0 days  0 hours  2 minutes 37.9 seconds.
 File lengths (MBytes):  RWF=     15 Int=      0 D2E=      0 Chk=      3 Scr=      1
 Normal termination of Gaussian 09 at Tue Oct 12 16:23:55 2021.
