title                                                                   
SP        RMP2-FC                                                     Gen                 
Number of atoms                            I                4
Info1-9                                    I   N=           9
         144         135           0           0           0         110
           1           2           1
Charge                                     I               -1
Multiplicity                               I                1
Number of electrons                        I               36
Number of alpha electrons                  I               18
Number of beta electrons                   I               18
Number of basis functions                  I              191
Number of independent functions            I              147
Number of point charges in /Mol/           I                0
Number of translation vectors              I                0
Atomic numbers                             I   N=           4
           8           1          53           1
Nuclear charges                            R   N=           4
  8.00000000E+00  1.00000000E+00  2.50000000E+01  1.00000000E+00
Current cartesian coordinates              R   N=          12
  0.00000000E+00  0.00000000E+00  0.00000000E+00  1.81585239E+00  0.00000000E+00
  0.00000000E+00 -1.36243524E+00 -6.48861632E+00  0.00000000E+00 -3.88323737E-01
 -1.84939707E+00  0.00000000E+00
Force Field                                I                0
Int Atom Types                             I   N=           4
           0           0           0           0
MM charges                                 R   N=           4
  0.00000000E+00  0.00000000E+00  0.00000000E+00  0.00000000E+00
Integer atomic weights                     I   N=           4
          16           2         127           1
Real atomic weights                        R   N=           4
  1.59949146E+01  2.01410179E+00  1.26900400E+02  1.00782504E+00
Atom fragment info                         I   N=           4
           0           0           0           0
Atom residue num                           I   N=           4
           0           0           0           0
Nuclear spins                              I   N=           4
           0           2           5           1
Nuclear ZEff                               R   N=           4
 -5.60000000E+00 -1.00000000E+00 -5.83000000E+03 -1.00000000E+00
Nuclear ZNuc                               R   N=           4
  8.00000000E+00  1.00000000E+00  5.30000000E+01  1.00000000E+00
Nuclear QMom                               R   N=           4
  0.00000000E+00  2.86000000E-01 -7.10000000E+01  0.00000000E+00
Nuclear GFac                               R   N=           4
  0.00000000E+00  8.57438000E-01  2.81328000E+00  2.79284600E+00
MicOpt                                     I   N=           4
          -1          -1          -1          -1
Number of contracted shells                I               65
Number of primitive shells                 I              119
Pure/Cartesian d shells                    I                0
Pure/Cartesian f shells                    I                0
Highest angular momentum                   I                3
Largest degree of contraction              I                9
Shell types                                I   N=          65
           0           0           0           0           0           1
           1           1           1          -2          -2          -2
          -3          -3           0           0           0           0
           0           0           0           1           1           1
           1           1           1          -2          -2          -2
          -2           0           0           0           0           0
           0           1           1           1           1           1
          -2          -2          -2          -2          -3          -3
           0           0           0           0           0           0
           0           1           1           1           1           1
           1          -2          -2          -2          -2
Number of primitives per shell             I   N=          65
           7           6           1           1           1           3
           1           1           1           1           1           1
           1           1           3           1           1           1
           1           1           1           1           1           1
           1           1           1           1           1           1
           1           9           8           1           1           1
           1           8           8           1           1           1
           9           1           1           1           1           1
           3           1           1           1           1           1
           1           1           1           1           1           1
           1           1           1           1           1
Shell to atom map                          I   N=          65
           1           1           1           1           1           1
           1           1           1           1           1           1
           1           1           2           2           2           2
           2           2           2           2           2           2
           2           2           2           2           2           2
           2           3           3           3           3           3
           3           3           3           3           3           3
           3           3           3           3           3           3
           4           4           4           4           4           4
           4           4           4           4           4           4
           4           4           4           4           4
Primitive exponents                        R   N=         119
  1.53300000E+04  2.29900000E+03  5.22400000E+02  1.47300000E+02  4.75500000E+01
  1.67600000E+01  6.20700000E+00  5.22400000E+02  1.47300000E+02  4.75500000E+01
  1.67600000E+01  6.20700000E+00  6.88200000E-01  1.75200000E+00  2.38400000E-01
  7.37600000E-02  3.44600000E+01  7.74900000E+00  2.28000000E+00  7.15600000E-01
  2.14000000E-01  5.97400000E-02  2.31400000E+00  6.45000000E-01  2.14000000E-01
  1.42800000E+00  5.00000000E-01  3.38700000E+01  5.09500000E+00  1.15900000E+00
  3.25800000E-01  1.02700000E-01  2.52600000E-02  3.25800000E-01  1.02700000E-01
  2.52600000E-02  1.40700000E+00  3.88000000E-01  1.02000000E-01  1.40700000E+00
  3.88000000E-01  1.02000000E-01  1.05700000E+00  2.47000000E-01  1.05700000E+00
  2.47000000E-01  5.54650000E+03  8.38214000E+02  1.82187000E+02  3.12123000E+01
  1.95314000E+01  8.24099000E+00  2.19455000E+00  1.10911000E+00  8.10610000E-02
  5.54650000E+03  8.38214000E+02  3.12123000E+01  1.95314000E+01  8.24099000E+00
  2.19455000E+00  1.10911000E+00  8.10610000E-02  3.74641000E-01  1.77080000E-01
  1.00100000E-01  4.12000000E-02  1.88988000E+02  2.12868000E+01  1.00396000E+01
  3.45180000E+00  1.97456000E+00  1.02420000E+00  4.49437000E-01  7.34810000E-02
  1.88988000E+02  1.00396000E+01  3.45180000E+00  1.97456000E+00  1.02420000E+00
  4.49437000E-01  1.86648000E-01  7.34810000E-02  5.98100000E-01  9.61800000E-02
  3.59000000E-02  1.32662000E+02  3.76054000E+01  1.03891000E+01  6.49017000E+00
  3.45451000E+00  1.84413000E+00  9.62478000E-01  4.72853000E-01  1.93200000E-01
  4.72853000E-01  1.93200000E-01  7.82000000E-02  4.06400000E-01  1.84800000E-01
  3.38700000E+01  5.09500000E+00  1.15900000E+00  3.25800000E-01  1.02700000E-01
  2.52600000E-02  3.25800000E-01  1.02700000E-01  2.52600000E-02  1.40700000E+00
  3.88000000E-01  1.02000000E-01  1.40700000E+00  3.88000000E-01  1.02000000E-01
  1.05700000E+00  2.47000000E-01  1.05700000E+00  2.47000000E-01
Contraction coefficients                   R   N=         119
  5.19808943E-04  4.02025621E-03  2.07128267E-02  8.10105536E-02  2.35962985E-01
  4.42653446E-01  3.57064423E-01 -4.42115008E-05 -1.22591041E-03 -1.05517725E-02
 -6.74452633E-02 -1.71198607E-01  1.07329856E+00  1.00000000E+00  1.00000000E+00
  1.00000000E+00  4.11634896E-02  2.57762836E-01  8.02419274E-01  1.00000000E+00
  1.00000000E+00  1.00000000E+00  1.00000000E+00  1.00000000E+00  1.00000000E+00
  1.00000000E+00  1.00000000E+00  2.54948632E-02  1.90362766E-01  8.52162022E-01
  1.00000000E+00  1.00000000E+00  1.00000000E+00  1.00000000E+00  1.00000000E+00
  1.00000000E+00  1.00000000E+00  1.00000000E+00  1.00000000E+00  1.00000000E+00
  1.00000000E+00  1.00000000E+00  1.00000000E+00  1.00000000E+00  1.00000000E+00
  1.00000000E+00  1.58603022E-04  1.00211458E-03  2.83966410E-03 -4.40310212E-02
  2.38198152E-01 -7.63568980E-01  8.96516870E-01  4.68371203E-01  2.16251781E-03
 -2.17177846E-05 -2.59237305E-04 -1.50376554E-02  2.42214079E-02  6.99888661E-02
 -5.50491335E-01 -5.69654432E-01  3.76065139E-01  1.00000000E+00  1.00000000E+00
  1.00000000E+00  1.00000000E+00  5.85232173E-04  3.69335916E-02 -2.35399435E-01
  3.41625365E-01  5.34991615E-01  2.65244797E-01  2.54463150E-02  3.82802808E-04
 -6.76097015E-05  8.33123161E-03 -4.66496478E-02 -5.27406452E-02 -2.91398344E-02
  3.65650039E-01  5.48502805E-01  2.34644635E-01  1.00000000E+00  1.00000000E+00
  1.00000000E+00  5.72000072E-04  4.40200055E-03 -4.09220051E-02  9.96610125E-02
  3.22663040E-01  4.00343050E-01  2.68306034E-01  8.48470106E-02  7.63200096E-03
  1.00000000E+00  1.00000000E+00  1.00000000E+00  1.00000000E+00  1.00000000E+00
  2.54948632E-02  1.90362766E-01  8.52162022E-01  1.00000000E+00  1.00000000E+00
  1.00000000E+00  1.00000000E+00  1.00000000E+00  1.00000000E+00  1.00000000E+00
  1.00000000E+00  1.00000000E+00  1.00000000E+00  1.00000000E+00  1.00000000E+00
  1.00000000E+00  1.00000000E+00  1.00000000E+00  1.00000000E+00
Coordinates of each shell                  R   N=         195
  0.00000000E+00  0.00000000E+00  0.00000000E+00  0.00000000E+00  0.00000000E+00
  0.00000000E+00  0.00000000E+00  0.00000000E+00  0.00000000E+00  0.00000000E+00
  0.00000000E+00  0.00000000E+00  0.00000000E+00  0.00000000E+00  0.00000000E+00
  0.00000000E+00  0.00000000E+00  0.00000000E+00  0.00000000E+00  0.00000000E+00
  0.00000000E+00  0.00000000E+00  0.00000000E+00  0.00000000E+00  0.00000000E+00
  0.00000000E+00  0.00000000E+00  0.00000000E+00  0.00000000E+00  0.00000000E+00
  0.00000000E+00  0.00000000E+00  0.00000000E+00  0.00000000E+00  0.00000000E+00
  0.00000000E+00  0.00000000E+00  0.00000000E+00  0.00000000E+00  0.00000000E+00
  0.00000000E+00  0.00000000E+00  1.81585239E+00  0.00000000E+00  0.00000000E+00
  1.81585239E+00  0.00000000E+00  0.00000000E+00  1.81585239E+00  0.00000000E+00
  0.00000000E+00  1.81585239E+00  0.00000000E+00  0.00000000E+00  1.81585239E+00
  0.00000000E+00  0.00000000E+00  1.81585239E+00  0.00000000E+00  0.00000000E+00
  1.81585239E+00  0.00000000E+00  0.00000000E+00  1.81585239E+00  0.00000000E+00
  0.00000000E+00  1.81585239E+00  0.00000000E+00  0.00000000E+00  1.81585239E+00
  0.00000000E+00  0.00000000E+00  1.81585239E+00  0.00000000E+00  0.00000000E+00
  1.81585239E+00  0.00000000E+00  0.00000000E+00  1.81585239E+00  0.00000000E+00
  0.00000000E+00  1.81585239E+00  0.00000000E+00  0.00000000E+00  1.81585239E+00
  0.00000000E+00  0.00000000E+00  1.81585239E+00  0.00000000E+00  0.00000000E+00
  1.81585239E+00  0.00000000E+00  0.00000000E+00 -1.36243524E+00 -6.48861632E+00
  0.00000000E+00 -1.36243524E+00 -6.48861632E+00  0.00000000E+00 -1.36243524E+00
 -6.48861632E+00  0.00000000E+00 -1.36243524E+00 -6.48861632E+00  0.00000000E+00
 -1.36243524E+00 -6.48861632E+00  0.00000000E+00 -1.36243524E+00 -6.48861632E+00
  0.00000000E+00 -1.36243524E+00 -6.48861632E+00  0.00000000E+00 -1.36243524E+00
 -6.48861632E+00  0.00000000E+00 -1.36243524E+00 -6.48861632E+00  0.00000000E+00
 -1.36243524E+00 -6.48861632E+00  0.00000000E+00 -1.36243524E+00 -6.48861632E+00
  0.00000000E+00 -1.36243524E+00 -6.48861632E+00  0.00000000E+00 -1.36243524E+00
 -6.48861632E+00  0.00000000E+00 -1.36243524E+00 -6.48861632E+00  0.00000000E+00
 -1.36243524E+00 -6.48861632E+00  0.00000000E+00 -1.36243524E+00 -6.48861632E+00
  0.00000000E+00 -1.36243524E+00 -6.48861632E+00  0.00000000E+00 -3.88323737E-01
 -1.84939707E+00  0.00000000E+00 -3.88323737E-01 -1.84939707E+00  0.00000000E+00
 -3.88323737E-01 -1.84939707E+00  0.00000000E+00 -3.88323737E-01 -1.84939707E+00
  0.00000000E+00 -3.88323737E-01 -1.84939707E+00  0.00000000E+00 -3.88323737E-01
 -1.84939707E+00  0.00000000E+00 -3.88323737E-01 -1.84939707E+00  0.00000000E+00
 -3.88323737E-01 -1.84939707E+00  0.00000000E+00 -3.88323737E-01 -1.84939707E+00
  0.00000000E+00 -3.88323737E-01 -1.84939707E+00  0.00000000E+00 -3.88323737E-01
 -1.84939707E+00  0.00000000E+00 -3.88323737E-01 -1.84939707E+00  0.00000000E+00
 -3.88323737E-01 -1.84939707E+00  0.00000000E+00 -3.88323737E-01 -1.84939707E+00
  0.00000000E+00 -3.88323737E-01 -1.84939707E+00  0.00000000E+00 -3.88323737E-01
 -1.84939707E+00  0.00000000E+00 -3.88323737E-01 -1.84939707E+00  0.00000000E+00
Constraint Structure                       R   N=          12
  0.00000000E+00  0.00000000E+00  0.00000000E+00  1.81585239E+00  0.00000000E+00
  0.00000000E+00 -1.36243524E+00 -6.48861632E+00  0.00000000E+00 -3.88323737E-01
 -1.84939707E+00  0.00000000E+00
Num ILSW                                   I              100
ILSW                                       I   N=         100
           0           0           0           0           2           0
           0           0           0           0           0          -1
           0           0           0           0           0           0
           0           0           0           0           0           0
           1           1           0           0           0           0
           0           0      100000           0          -1           0
           0           0           0           0           0           0
           0           0           0           1           0           0
           0           0           1           0           0           0
           0           0           4          41           0           0
           0           0           0           0           0           0
           0           0           0           4           0           0
           0           0           0           0           0           0
           0           0           0           0           0           0
           0           0           0           0           0           0
           0           0           0           0           0           0
           0           0           0           0
Num RLSW                                   I               41
RLSW                                       R   N=          41
  1.00000000E+00  1.00000000E+00  1.00000000E+00  1.00000000E+00  1.00000000E+00
  0.00000000E+00  0.00000000E+00  1.00000000E+00  0.00000000E+00  0.00000000E+00
  0.00000000E+00  0.00000000E+00  1.00000000E+00  0.00000000E+00  0.00000000E+00
  0.00000000E+00  0.00000000E+00  1.00000000E+00  0.00000000E+00  0.00000000E+00
  0.00000000E+00  0.00000000E+00  1.00000000E+00  0.00000000E+00  0.00000000E+00
  0.00000000E+00  0.00000000E+00  1.00000000E+00  0.00000000E+00  0.00000000E+00
  0.00000000E+00  0.00000000E+00  1.00000000E+00  0.00000000E+00  0.00000000E+00
  0.00000000E+00  0.00000000E+00  0.00000000E+00  1.00000000E+00  1.00000000E+00
  0.00000000E+00
ECP-MxAtEC                                 I           250000
ECP-MaxLECP                                I               10
ECP-MaxAtL                                 I          2250000
ECP-MxTECP                                 I         11250000
ECP-LenNCZ                                 I               16
ECP-KFirst                                 I   N=          40
           0           0           1           0           0           0
           2           0           0           0           5           0
           0           0           9           0           0           0
          13           0           0           0           0           0
           0           0           0           0           0           0
           0           0           0           0           0           0
           0           0           0           0
ECP-KLast                                  I   N=          40
           0           0           1           0           0           0
           4           0           0           0           8           0
           0           0          12           0           0           0
          16           0           0           0           0           0
           0           0           0           0           0           0
           0           0           0           0           0           0
           0           0           0           0
ECP-LMax                                   I   N=           4
           0           0           4           0
ECP-LPSkip                                 I   N=           4
           1           1           0           1
ECP-RNFroz                                 R   N=           4
  0.00000000E+00  0.00000000E+00  2.80000000E+01  0.00000000E+00
ECP-NLP                                    I   N=          16
           2           2           2           2           2           2
           2           2           2           2           2           2
           2           2           2           2
ECP-CLP1                                   R   N=          16
  0.00000000E+00  4.99896490E+01  2.81006556E+02  6.14167390E+01  6.74162390E+01
  1.34807696E+02  1.45665480E+01  2.89684220E+01  3.55387560E+01  5.33397590E+01
  9.71646600E+00  1.49775000E+01 -2.01766180E+01 -2.60880770E+01 -2.20434000E-01
 -2.21646000E-01
ECP-CLP2                                   R   N=          16
  0.00000000E+00  0.00000000E+00  0.00000000E+00  0.00000000E+00  0.00000000E+00
  0.00000000E+00  0.00000000E+00  0.00000000E+00  0.00000000E+00  0.00000000E+00
  0.00000000E+00  0.00000000E+00  0.00000000E+00  0.00000000E+00  0.00000000E+00
  0.00000000E+00
ECP-ZLP                                    R   N=          16
  1.00000000E+00  4.00333760E+01  1.73005760E+01  8.85172000E+00  1.57201410E+01
  1.52082220E+01  8.29418600E+00  7.75394900E+00  1.38177510E+01  1.35878050E+01
  6.94763000E+00  6.96009900E+00  1.85229500E+01  1.82510350E+01  7.55790100E+00
  7.59740400E+00
MxBond                                     I                2
NBond                                      I   N=           4
           2           1           0           1
IBond                                      I   N=           8
           2           4           1           0           0           0
           1           0
RBond                                      R   N=           8
  1.00000000E+00  1.00000000E+00  1.00000000E+00  0.00000000E+00  0.00000000E+00
  0.00000000E+00  1.00000000E+00  0.00000000E+00
Virial Ratio                               R      2.984970259542737E+00
SCF Energy                                 R     -3.708156026853662E+02
MP2 Energy                                 R     -3.713135496904989E+02
Total Energy                               R     -3.713135496904989E+02
Post-SCF wavefunction norm                 R      1.075696133244983E+00
RMS Density                                R      3.416311545256036E-09
Job Status                                 I                1
Nuclear derivative order                   I                0
External E-field                           R   N=          35
  0.00000000E+00  0.00000000E+00  0.00000000E+00  0.00000000E+00  0.00000000E+00
  0.00000000E+00  0.00000000E+00  0.00000000E+00  0.00000000E+00  0.00000000E+00
  0.00000000E+00  0.00000000E+00  0.00000000E+00  0.00000000E+00  0.00000000E+00
  0.00000000E+00  0.00000000E+00  0.00000000E+00  0.00000000E+00  0.00000000E+00
  0.00000000E+00  0.00000000E+00  0.00000000E+00  0.00000000E+00  0.00000000E+00
  0.00000000E+00  0.00000000E+00  0.00000000E+00  0.00000000E+00  0.00000000E+00
  0.00000000E+00  0.00000000E+00  0.00000000E+00  0.00000000E+00  0.00000000E+00
IOpCl                                      I                0
IROHF                                      I                0
Alpha Orbital Energies                     R   N=         147
 -2.04027377E+01 -7.46756636E+00 -5.29313718E+00 -5.29285350E+00 -5.29280877E+00
 -2.02060443E+00 -2.02042578E+00 -2.02036977E+00 -2.02007256E+00 -2.02007185E+00
 -1.17943620E+00 -6.29403361E-01 -5.35725479E-01 -4.25795323E-01 -3.45152253E-01
 -1.48478314E-01 -1.42934190E-01 -1.42557393E-01  1.32448655E-01  1.69885002E-01
  2.33247442E-01  2.45428138E-01  2.52256783E-01  2.70134995E-01  2.88584427E-01
  2.92625104E-01  3.12576300E-01  3.36761933E-01  3.66677207E-01  3.71970235E-01
  3.75762615E-01  3.95578580E-01  4.09417272E-01  4.20537977E-01  4.44447792E-01
  4.75952470E-01  5.39356187E-01  5.43178087E-01  5.70719040E-01  5.97862197E-01
  6.68259059E-01  7.15352958E-01  7.77540526E-01  7.78092963E-01  7.85261159E-01
  7.97470120E-01  7.99708639E-01  8.00177152E-01  8.27810727E-01  8.41237622E-01
  8.53637554E-01  8.57619245E-01  8.66048989E-01  8.77085702E-01  8.83657401E-01
  8.88733344E-01  8.99423213E-01  9.05219702E-01  9.32237183E-01  9.71895393E-01
  1.00868818E+00  1.05833548E+00  1.06907360E+00  1.09481423E+00  1.10595006E+00
  1.12251090E+00  1.14499698E+00  1.15965049E+00  1.16508095E+00  1.19037403E+00
  1.32557514E+00  1.36306230E+00  1.38205351E+00  1.42297149E+00  1.48513699E+00
  1.52425504E+00  1.55042218E+00  1.67694180E+00  1.72648819E+00  1.73337465E+00
  1.75125024E+00  1.75196986E+00  1.76863616E+00  1.77839161E+00  1.81189285E+00
  1.85085438E+00  1.88639556E+00  1.89334669E+00  2.03367820E+00  2.04392539E+00
  2.05564286E+00  2.07316608E+00  2.10647475E+00  2.10693868E+00  2.15302272E+00
  2.29859142E+00  2.44207307E+00  2.52551795E+00  2.56010376E+00  2.60415789E+00
  2.60914901E+00  2.63867223E+00  2.64800776E+00  2.82053889E+00  2.89197355E+00
  2.89249967E+00  2.97453288E+00  3.01828825E+00  3.06795142E+00  3.26668617E+00
  3.28237426E+00  3.76073391E+00  3.87119903E+00  4.19960929E+00  4.24909426E+00
  4.31413830E+00  4.31764482E+00  4.42688681E+00  4.42972784E+00  4.53947356E+00
  4.56855575E+00  4.59291294E+00  4.74059824E+00  4.93958662E+00  5.11364453E+00
  5.25610810E+00  5.32824855E+00  5.44605480E+00  5.48654718E+00  5.64367477E+00
  5.79681161E+00  6.36223726E+00  6.69324987E+00  6.87914956E+00  7.07982208E+00
  7.26348746E+00  7.41267597E+00  7.42672463E+00  7.45408268E+00  7.53152127E+00
  7.57510175E+00  7.79958521E+00  8.04252735E+00  8.09534358E+00  8.90374674E+00
  1.59279332E+01  5.92212799E+01
Alpha MO coefficients                      R   N=       28077
  9.76662032E-01 -9.30916319E-03  4.36268256E-02 -3.84276358E-05  4.51373481E-04
  1.20878539E-03 -1.24125170E-03  1.82868561E-16 -9.48974890E-04  1.30333178E-03
 -4.34605863E-16 -6.25122541E-04  4.24088430E-05 -1.48844025E-14 -9.86116260E-05
 -2.26123775E-04 -3.44154696E-15 -5.47467616E-05 -3.94643612E-16 -1.02758198E-16
  3.09535724E-05  8.08466234E-06  5.11152279E-04 -2.22409708E-17  1.03879893E-15
 -1.28233199E-04 -1.73607146E-04  1.26660023E-04 -2.28149677E-15  4.81444413E-15
 -4.46828781E-05 -1.50952081E-04 -5.10312488E-16  2.23255464E-07  4.55145894E-06
 -4.41251366E-16  3.78211184E-16  2.66082713E-05  2.00713547E-05  1.78700962E-15
  9.57748221E-05 -8.09727571E-05  6.81499231E-16 -1.06708079E-15 -2.08373757E-04
 -1.33327838E-04  5.09767809E-04  8.94793879E-04  4.52961113E-04  1.57543234E-05
  8.94793879E-04  4.52961113E-04  1.57543234E-05 -1.07952441E-04 -4.92788840E-06
  7.24769413E-17 -4.82935550E-04  8.20450582E-05  2.06628275E-15 -1.98579616E-04
  6.73625808E-05  2.07315304E-15 -1.07952441E-04 -4.92788841E-06 -4.41884514E-16
 -4.82935550E-04  8.20450582E-05  2.15587829E-15 -1.98579616E-04  6.73625808E-05
  1.77980572E-15  2.88220389E-05 -3.01453148E-16  7.28012586E-17 -6.08715692E-05
  9.96898953E-06 -8.87451186E-05 -1.13991675E-15 -1.06383644E-16  1.61283108E-04
 -5.58154560E-05  2.88220389E-05 -3.66810584E-17 -4.64301912E-17 -6.08715692E-05
  9.96898953E-06 -8.87451186E-05 -1.59599722E-15  3.11011089E-16  1.61283108E-04
 -5.58154560E-05 -3.61008765E-06  1.45243107E-05  1.42017400E-04  8.78763075E-04
 -2.40492842E-03 -6.19634333E-04 -1.56778867E-05 -7.24320143E-05  1.78610030E-16
 -6.70788145E-05 -3.16722961E-04  5.77719147E-16  4.89927036E-05  2.25030371E-04
 -2.46213950E-16 -3.64248524E-04 -1.67800936E-03 -5.52120133E-16 -3.04441455E-05
 -1.71820262E-04 -2.08449525E-16  4.06301560E-06  7.24075701E-17  1.01547143E-16
  5.40761958E-06 -3.10916082E-06 -4.80223676E-05 -1.31813426E-16 -4.96345490E-16
 -7.04640778E-05  3.56185882E-05  3.27112487E-04  2.57919396E-16  1.07817935E-15
  5.02137990E-04 -2.35035582E-04  2.41662069E-04 -2.91298626E-16 -9.70794146E-16
  4.01903738E-04 -1.74095544E-04 -2.41035573E-16  5.87663070E-06  2.20895314E-05
 -1.26186056E-16  1.30730291E-16  1.30288242E-05  1.68828658E-05  5.39791931E-17
  2.94840285E-05  1.43122167E-04 -1.78525314E-16 -4.33590814E-17  1.21623222E-04
  1.61683083E-04  3.53507513E-04  6.93422452E-04  5.81864735E-04  6.97863730E-05
  6.93422452E-04  5.81864735E-04  6.97863730E-05  2.17270201E-05  9.61335315E-05
 -3.68577478E-16  1.41328019E-04  6.95691022E-04  3.47885000E-15 -2.38707432E-04
 -1.22734603E-03  3.25386322E-15  2.17270201E-05  9.61335315E-05 -3.68577478E-16
  1.41328019E-04  6.95691022E-04  3.47885000E-15 -2.38707432E-04 -1.22734603E-03
  2.98614931E-15  1.12444226E-05 -1.08989185E-16  6.93317281E-17  2.74258282E-05
  6.89318166E-06 -3.02701822E-04  5.25960406E-16  2.79313473E-15 -4.73006190E-04
  2.00112064E-04  1.12444226E-05 -1.07684049E-16  6.65813719E-17  2.74258282E-05
  6.89318166E-06 -3.02701822E-04  5.26447680E-16  1.88435878E-15 -4.73006190E-04
  2.00112064E-04  4.17888248E-06  1.29998409E-05  2.17177528E-06 -1.16349682E-04
 -3.27759555E-05  1.18667125E-06  2.68528520E-06  3.26007240E-16 -4.23555673E-06
  1.45426421E-05 -1.09560174E-15  8.07130763E-05  1.57204220E-04  3.33048089E-15
  6.41293952E-05 -2.58694592E-05  3.30804100E-15 -9.93441137E-07 -4.77491198E-17
 -8.69460368E-16 -8.50145157E-07  6.21048046E-07  1.53704894E-05 -1.68794118E-15
  4.92480171E-16  1.87097633E-05 -1.04557602E-05  2.11722819E-05 -4.86887412E-15
 -6.41212880E-15  5.81997940E-05 -3.33681657E-05  5.37617061E-17  3.44557375E-07
 -1.14739237E-06 -3.99017010E-16 -2.75465013E-16 -1.29133589E-06 -2.44546710E-06
  2.03017277E-16 -4.25540754E-06 -9.14873125E-06 -2.16480310E-15  6.30589373E-16
 -6.49089801E-06 -5.93681423E-06  6.21405907E-08 -7.04022874E-06 -3.65774851E-05
 -6.75031362E-05 -7.04022874E-06 -3.65774851E-05 -6.75031362E-05  4.64033004E-09
  3.62941388E-07  6.29595463E-16 -4.98336876E-06 -2.01986832E-06  2.69019876E-15
  3.91863883E-06  1.89578314E-06  8.05545148E-16  4.64033114E-09  3.62941390E-07
 -7.63804994E-16 -4.98336876E-06 -2.01986832E-06  3.44475776E-15  3.91863884E-06
  1.89578315E-06  1.64127117E-15 -2.08029473E-07 -1.16833181E-15  6.55188729E-16
  3.02663264E-07 -3.97582344E-07 -2.46409531E-06 -3.41572296E-16  3.79067135E-16
  3.97002069E-06 -2.64786527E-06 -2.08029472E-07  1.58904410E-17 -6.96382027E-16
  3.02663265E-07 -3.97582343E-07 -2.46409531E-06 -2.08346698E-15  5.55309280E-17
  3.97002069E-06 -2.64786527E-06  9.83173183E-01 -2.62200136E-03  2.28911088E-02
 -5.95724049E-03  1.77689894E-03 -7.92705660E-04  9.89241056E-05  1.48770831E-04
 -2.51471345E-16 -1.46096257E-05 -4.29273472E-05 -2.30176773E-15  2.37330206E-05
  6.81791121E-05  1.01296393E-15  2.08530773E-05  9.48703179E-05  2.93429481E-15
 -1.42208505E-05 -1.29091881E-04  1.83691276E-16 -3.16221859E-05  5.03398604E-17
 -1.04824948E-16 -2.65055039E-05  3.17935678E-05 -4.13809163E-06 -8.57459638E-17
  6.46271979E-17 -4.27863225E-06  4.05742767E-06 -8.86240481E-06 -3.69381364E-16
 -7.54793503E-16 -2.10543274E-05  2.55247802E-06  6.34197921E-06  7.42232200E-16
  2.11975029E-15  1.94589926E-05  1.22936013E-06  3.09197997E-16 -3.15954362E-07
 -3.90359167E-06  5.28527018E-16  7.59172180E-17 -2.83897326E-06 -6.62781360E-06
 -1.68976001E-16 -8.56181085E-07 -1.16010513E-06 -6.13846504E-16 -1.26892403E-16
 -5.12403040E-07  2.22221239E-06  6.99386211E-07  1.14972686E-04 -6.32687933E-07
  1.72544055E-04  1.14972686E-04 -6.32687933E-07  1.72544055E-04  1.06115890E-06
  4.01416201E-06  1.02741275E-16 -4.17432055E-06  5.50210350E-06 -2.72131341E-15
 -1.36508088E-05  2.28755852E-05 -5.33866688E-15  1.06115890E-06  4.01416201E-06
  1.02741275E-16 -4.17432055E-06  5.50210350E-06 -2.72131341E-15 -1.36508088E-05
  2.28755852E-05 -4.92233971E-15 -4.19144869E-06 -5.51080411E-17 -7.18022996E-17
 -6.19119257E-06  2.64544103E-06  9.97087625E-06 -1.11331241E-17 -1.41385890E-15
  1.15364112E-05 -1.25598321E-05 -4.19144869E-06 -4.99940523E-17 -7.96814193E-17
 -6.19119257E-06  2.64544103E-06  9.97087625E-06 -1.06342074E-17 -2.76123178E-15
  1.15364112E-05 -1.25598321E-05  6.59735030E-06  1.12013027E-05 -8.42821145E-07
 -2.74941920E-05  3.55024727E-05  2.43655928E-06  1.03888649E-05  1.28308127E-16
 -7.05859689E-06  8.16341516E-06  5.05997082E-16  4.08050748E-05  8.70347333E-05
  5.69138050E-15  3.48383984E-06 -8.51504146E-06  1.20075808E-15 -2.41419492E-07
  5.89625694E-16 -4.90826040E-16 -4.36203923E-07  6.44943884E-07  7.86945766E-06
 -8.74563165E-16 -4.51665489E-16  8.90143705E-06 -5.79449103E-06  1.08135328E-05
  9.80405167E-17 -4.41182305E-15  3.18895219E-05 -3.80648233E-06  2.70084338E-16
  5.77993524E-07 -5.56511371E-07  3.93245716E-16 -3.52466096E-17 -1.21977399E-06
 -1.47175214E-06 -1.03011187E-15 -3.16790475E-06 -4.56954235E-06 -1.29518568E-15
  2.19635163E-16 -7.12968404E-07 -1.79243513E-07 -2.05790855E-07  1.18927339E-07
 -2.98044957E-05 -1.84960485E-06  1.18927343E-07 -2.98044957E-05 -1.84960485E-06
 -5.74915033E-08 -1.98512649E-07  1.13715176E-15 -6.82376558E-06 -3.40267041E-06
 -4.96141301E-16  8.27363587E-06  2.57594295E-06 -1.14483479E-15 -5.74915076E-08