title                                                                   
SP        RMP2-FC                                                     Gen                 
Number of atoms                            I                4
Info1-9                                    I   N=           9
         144         135           0           0           0         110
           1           2           1
Charge                                     I               -1
Multiplicity                               I                1
Number of electrons                        I               36
Number of alpha electrons                  I               18
Number of beta electrons                   I               18
Number of basis functions                  I              191
Number of independent functions            I              147
Number of point charges in /Mol/           I                0
Number of translation vectors              I                0
Atomic numbers                             I   N=           4
           8           1          53           1
Nuclear charges                            R   N=           4
  8.00000000E+00  1.00000000E+00  2.50000000E+01  1.00000000E+00
Current cartesian coordinates              R   N=          12
  0.00000000E+00  0.00000000E+00  0.00000000E+00  1.81585239E+00  0.00000000E+00
  0.00000000E+00 -1.36243524E+00 -6.48861632E+00  0.00000000E+00 -3.30075177E-01
 -1.57198751E+00  0.00000000E+00
Force Field                                I                0
Int Atom Types                             I   N=           4
           0           0           0           0
MM charges                                 R   N=           4
  0.00000000E+00  0.00000000E+00  0.00000000E+00  0.00000000E+00
Integer atomic weights                     I   N=           4
          16           2         127           1
Real atomic weights                        R   N=           4
  1.59949146E+01  2.01410179E+00  1.26900400E+02  1.00782504E+00
Atom fragment info                         I   N=           4
           0           0           0           0
Atom residue num                           I   N=           4
           0           0           0           0
Nuclear spins                              I   N=           4
           0           2           5           1
Nuclear ZEff                               R   N=           4
 -5.60000000E+00 -1.00000000E+00 -5.83000000E+03 -1.00000000E+00
Nuclear ZNuc                               R   N=           4
  8.00000000E+00  1.00000000E+00  5.30000000E+01  1.00000000E+00
Nuclear QMom                               R   N=           4
  0.00000000E+00  2.86000000E-01 -7.10000000E+01  0.00000000E+00
Nuclear GFac                               R   N=           4
  0.00000000E+00  8.57438000E-01  2.81328000E+00  2.79284600E+00
MicOpt                                     I   N=           4
          -1          -1          -1          -1
Number of contracted shells                I               65
Number of primitive shells                 I              119
Pure/Cartesian d shells                    I                0
Pure/Cartesian f shells                    I                0
Highest angular momentum                   I                3
Largest degree of contraction              I                9
Shell types                                I   N=          65
           0           0           0           0           0           1
           1           1           1          -2          -2          -2
          -3          -3           0           0           0           0
           0           0           0           1           1           1
           1           1           1          -2          -2          -2
          -2           0           0           0           0           0
           0           1           1           1           1           1
          -2          -2          -2          -2          -3          -3
           0           0           0           0           0           0
           0           1           1           1           1           1
           1          -2          -2          -2          -2
Number of primitives per shell             I   N=          65
           7           6           1           1           1           3
           1           1           1           1           1           1
           1           1           3           1           1           1
           1           1           1           1           1           1
           1           1           1           1           1           1
           1           9           8           1           1           1
           1           8           8           1           1           1
           9           1           1           1           1           1
           3           1           1           1           1           1
           1           1           1           1           1           1
           1           1           1           1           1
Shell to atom map                          I   N=          65
           1           1           1           1           1           1
           1           1           1           1           1           1
           1           1           2           2           2           2
           2           2           2           2           2           2
           2           2           2           2           2           2
           2           3           3           3           3           3
           3           3           3           3           3           3
           3           3           3           3           3           3
           4           4           4           4           4           4
           4           4           4           4           4           4
           4           4           4           4           4
Primitive exponents                        R   N=         119
  1.53300000E+04  2.29900000E+03  5.22400000E+02  1.47300000E+02  4.75500000E+01
  1.67600000E+01  6.20700000E+00  5.22400000E+02  1.47300000E+02  4.75500000E+01
  1.67600000E+01  6.20700000E+00  6.88200000E-01  1.75200000E+00  2.38400000E-01
  7.37600000E-02  3.44600000E+01  7.74900000E+00  2.28000000E+00  7.15600000E-01
  2.14000000E-01  5.97400000E-02  2.31400000E+00  6.45000000E-01  2.14000000E-01
  1.42800000E+00  5.00000000E-01  3.38700000E+01  5.09500000E+00  1.15900000E+00
  3.25800000E-01  1.02700000E-01  2.52600000E-02  3.25800000E-01  1.02700000E-01
  2.52600000E-02  1.40700000E+00  3.88000000E-01  1.02000000E-01  1.40700000E+00
  3.88000000E-01  1.02000000E-01  1.05700000E+00  2.47000000E-01  1.05700000E+00
  2.47000000E-01  5.54650000E+03  8.38214000E+02  1.82187000E+02  3.12123000E+01
  1.95314000E+01  8.24099000E+00  2.19455000E+00  1.10911000E+00  8.10610000E-02
  5.54650000E+03  8.38214000E+02  3.12123000E+01  1.95314000E+01  8.24099000E+00
  2.19455000E+00  1.10911000E+00  8.10610000E-02  3.74641000E-01  1.77080000E-01
  1.00100000E-01  4.12000000E-02  1.88988000E+02  2.12868000E+01  1.00396000E+01
  3.45180000E+00  1.97456000E+00  1.02420000E+00  4.49437000E-01  7.34810000E-02
  1.88988000E+02  1.00396000E+01  3.45180000E+00  1.97456000E+00  1.02420000E+00
  4.49437000E-01  1.86648000E-01  7.34810000E-02  5.98100000E-01  9.61800000E-02
  3.59000000E-02  1.32662000E+02  3.76054000E+01  1.03891000E+01  6.49017000E+00
  3.45451000E+00  1.84413000E+00  9.62478000E-01  4.72853000E-01  1.93200000E-01
  4.72853000E-01  1.93200000E-01  7.82000000E-02  4.06400000E-01  1.84800000E-01
  3.38700000E+01  5.09500000E+00  1.15900000E+00  3.25800000E-01  1.02700000E-01
  2.52600000E-02  3.25800000E-01  1.02700000E-01  2.52600000E-02  1.40700000E+00
  3.88000000E-01  1.02000000E-01  1.40700000E+00  3.88000000E-01  1.02000000E-01
  1.05700000E+00  2.47000000E-01  1.05700000E+00  2.47000000E-01
Contraction coefficients                   R   N=         119
  5.19808943E-04  4.02025621E-03  2.07128267E-02  8.10105536E-02  2.35962985E-01
  4.42653446E-01  3.57064423E-01 -4.42115008E-05 -1.22591041E-03 -1.05517725E-02
 -6.74452633E-02 -1.71198607E-01  1.07329856E+00  1.00000000E+00  1.00000000E+00
  1.00000000E+00  4.11634896E-02  2.57762836E-01  8.02419274E-01  1.00000000E+00
  1.00000000E+00  1.00000000E+00  1.00000000E+00  1.00000000E+00  1.00000000E+00
  1.00000000E+00  1.00000000E+00  2.54948632E-02  1.90362766E-01  8.52162022E-01
  1.00000000E+00  1.00000000E+00  1.00000000E+00  1.00000000E+00  1.00000000E+00
  1.00000000E+00  1.00000000E+00  1.00000000E+00  1.00000000E+00  1.00000000E+00
  1.00000000E+00  1.00000000E+00  1.00000000E+00  1.00000000E+00  1.00000000E+00
  1.00000000E+00  1.58603022E-04  1.00211458E-03  2.83966410E-03 -4.40310212E-02
  2.38198152E-01 -7.63568980E-01  8.96516870E-01  4.68371203E-01  2.16251781E-03
 -2.17177846E-05 -2.59237305E-04 -1.50376554E-02  2.42214079E-02  6.99888661E-02
 -5.50491335E-01 -5.69654432E-01  3.76065139E-01  1.00000000E+00  1.00000000E+00
  1.00000000E+00  1.00000000E+00  5.85232173E-04  3.69335916E-02 -2.35399435E-01
  3.41625365E-01  5.34991615E-01  2.65244797E-01  2.54463150E-02  3.82802808E-04
 -6.76097015E-05  8.33123161E-03 -4.66496478E-02 -5.27406452E-02 -2.91398344E-02
  3.65650039E-01  5.48502805E-01  2.34644635E-01  1.00000000E+00  1.00000000E+00
  1.00000000E+00  5.72000072E-04  4.40200055E-03 -4.09220051E-02  9.96610125E-02
  3.22663040E-01  4.00343050E-01  2.68306034E-01  8.48470106E-02  7.63200096E-03
  1.00000000E+00  1.00000000E+00  1.00000000E+00  1.00000000E+00  1.00000000E+00
  2.54948632E-02  1.90362766E-01  8.52162022E-01  1.00000000E+00  1.00000000E+00
  1.00000000E+00  1.00000000E+00  1.00000000E+00  1.00000000E+00  1.00000000E+00
  1.00000000E+00  1.00000000E+00  1.00000000E+00  1.00000000E+00  1.00000000E+00
  1.00000000E+00  1.00000000E+00  1.00000000E+00  1.00000000E+00
Coordinates of each shell                  R   N=         195
  0.00000000E+00  0.00000000E+00  0.00000000E+00  0.00000000E+00  0.00000000E+00
  0.00000000E+00  0.00000000E+00  0.00000000E+00  0.00000000E+00  0.00000000E+00
  0.00000000E+00  0.00000000E+00  0.00000000E+00  0.00000000E+00  0.00000000E+00
  0.00000000E+00  0.00000000E+00  0.00000000E+00  0.00000000E+00  0.00000000E+00
  0.00000000E+00  0.00000000E+00  0.00000000E+00  0.00000000E+00  0.00000000E+00
  0.00000000E+00  0.00000000E+00  0.00000000E+00  0.00000000E+00  0.00000000E+00
  0.00000000E+00  0.00000000E+00  0.00000000E+00  0.00000000E+00  0.00000000E+00
  0.00000000E+00  0.00000000E+00  0.00000000E+00  0.00000000E+00  0.00000000E+00
  0.00000000E+00  0.00000000E+00  1.81585239E+00  0.00000000E+00  0.00000000E+00
  1.81585239E+00  0.00000000E+00  0.00000000E+00  1.81585239E+00  0.00000000E+00
  0.00000000E+00  1.81585239E+00  0.00000000E+00  0.00000000E+00  1.81585239E+00
  0.00000000E+00  0.00000000E+00  1.81585239E+00  0.00000000E+00  0.00000000E+00
  1.81585239E+00  0.00000000E+00  0.00000000E+00  1.81585239E+00  0.00000000E+00
  0.00000000E+00  1.81585239E+00  0.00000000E+00  0.00000000E+00  1.81585239E+00
  0.00000000E+00  0.00000000E+00  1.81585239E+00  0.00000000E+00  0.00000000E+00
  1.81585239E+00  0.00000000E+00  0.00000000E+00  1.81585239E+00  0.00000000E+00
  0.00000000E+00  1.81585239E+00  0.00000000E+00  0.00000000E+00  1.81585239E+00
  0.00000000E+00  0.00000000E+00  1.81585239E+00  0.00000000E+00  0.00000000E+00
  1.81585239E+00  0.00000000E+00  0.00000000E+00 -1.36243524E+00 -6.48861632E+00
  0.00000000E+00 -1.36243524E+00 -6.48861632E+00  0.00000000E+00 -1.36243524E+00
 -6.48861632E+00  0.00000000E+00 -1.36243524E+00 -6.48861632E+00  0.00000000E+00
 -1.36243524E+00 -6.48861632E+00  0.00000000E+00 -1.36243524E+00 -6.48861632E+00
  0.00000000E+00 -1.36243524E+00 -6.48861632E+00  0.00000000E+00 -1.36243524E+00
 -6.48861632E+00  0.00000000E+00 -1.36243524E+00 -6.48861632E+00  0.00000000E+00
 -1.36243524E+00 -6.48861632E+00  0.00000000E+00 -1.36243524E+00 -6.48861632E+00
  0.00000000E+00 -1.36243524E+00 -6.48861632E+00  0.00000000E+00 -1.36243524E+00
 -6.48861632E+00  0.00000000E+00 -1.36243524E+00 -6.48861632E+00  0.00000000E+00
 -1.36243524E+00 -6.48861632E+00  0.00000000E+00 -1.36243524E+00 -6.48861632E+00
  0.00000000E+00 -1.36243524E+00 -6.48861632E+00  0.00000000E+00 -3.30075177E-01
 -1.57198751E+00  0.00000000E+00 -3.30075177E-01 -1.57198751E+00  0.00000000E+00
 -3.30075177E-01 -1.57198751E+00  0.00000000E+00 -3.30075177E-01 -1.57198751E+00
  0.00000000E+00 -3.30075177E-01 -1.57198751E+00  0.00000000E+00 -3.30075177E-01
 -1.57198751E+00  0.00000000E+00 -3.30075177E-01 -1.57198751E+00  0.00000000E+00
 -3.30075177E-01 -1.57198751E+00  0.00000000E+00 -3.30075177E-01 -1.57198751E+00
  0.00000000E+00 -3.30075177E-01 -1.57198751E+00  0.00000000E+00 -3.30075177E-01
 -1.57198751E+00  0.00000000E+00 -3.30075177E-01 -1.57198751E+00  0.00000000E+00
 -3.30075177E-01 -1.57198751E+00  0.00000000E+00 -3.30075177E-01 -1.57198751E+00
  0.00000000E+00 -3.30075177E-01 -1.57198751E+00  0.00000000E+00 -3.30075177E-01
 -1.57198751E+00  0.00000000E+00 -3.30075177E-01 -1.57198751E+00  0.00000000E+00
Constraint Structure                       R   N=          12
  0.00000000E+00  0.00000000E+00  0.00000000E+00  1.81585239E+00  0.00000000E+00
  0.00000000E+00 -1.36243524E+00 -6.48861632E+00  0.00000000E+00 -3.30075177E-01
 -1.57198751E+00  0.00000000E+00
Num ILSW                                   I              100
ILSW                                       I   N=         100
           0           0           0           0           2           0
           0           0           0           0           0          -1
           0           0           0           0           0           0
           0           0           0           0           0           0
           1           1           0           0           0           0
           0           0      100000           0          -1           0
           0           0           0           0           0           0
           0           0           0           1           0           0
           0           0           1           0           0           0
           0           0           4          41           0           0
           0           0           0           0           0           0
           0           0           0           4           0           0
           0           0           0           0           0           0
           0           0           0           0           0           0
           0           0           0           0           0           0
           0           0           0           0           0           0
           0           0           0           0
Num RLSW                                   I               41
RLSW                                       R   N=          41
  1.00000000E+00  1.00000000E+00  1.00000000E+00  1.00000000E+00  1.00000000E+00
  0.00000000E+00  0.00000000E+00  1.00000000E+00  0.00000000E+00  0.00000000E+00
  0.00000000E+00  0.00000000E+00  1.00000000E+00  0.00000000E+00  0.00000000E+00
  0.00000000E+00  0.00000000E+00  1.00000000E+00  0.00000000E+00  0.00000000E+00
  0.00000000E+00  0.00000000E+00  1.00000000E+00  0.00000000E+00  0.00000000E+00
  0.00000000E+00  0.00000000E+00  1.00000000E+00  0.00000000E+00  0.00000000E+00
  0.00000000E+00  0.00000000E+00  1.00000000E+00  0.00000000E+00  0.00000000E+00
  0.00000000E+00  0.00000000E+00  0.00000000E+00  1.00000000E+00  1.00000000E+00
  0.00000000E+00
ECP-MxAtEC                                 I           250000
ECP-MaxLECP                                I               10
ECP-MaxAtL                                 I          2250000
ECP-MxTECP                                 I         11250000
ECP-LenNCZ                                 I               16
ECP-KFirst                                 I   N=          40
           0           0           1           0           0           0
           2           0           0           0           5           0
           0           0           9           0           0           0
          13           0           0           0           0           0
           0           0           0           0           0           0
           0           0           0           0           0           0
           0           0           0           0
ECP-KLast                                  I   N=          40
           0           0           1           0           0           0
           4           0           0           0           8           0
           0           0          12           0           0           0
          16           0           0           0           0           0
           0           0           0           0           0           0
           0           0           0           0           0           0
           0           0           0           0
ECP-LMax                                   I   N=           4
           0           0           4           0
ECP-LPSkip                                 I   N=           4
           1           1           0           1
ECP-RNFroz                                 R   N=           4
  0.00000000E+00  0.00000000E+00  2.80000000E+01  0.00000000E+00
ECP-NLP                                    I   N=          16
           2           2           2           2           2           2
           2           2           2           2           2           2
           2           2           2           2
ECP-CLP1                                   R   N=          16
  0.00000000E+00  4.99896490E+01  2.81006556E+02  6.14167390E+01  6.74162390E+01
  1.34807696E+02  1.45665480E+01  2.89684220E+01  3.55387560E+01  5.33397590E+01
  9.71646600E+00  1.49775000E+01 -2.01766180E+01 -2.60880770E+01 -2.20434000E-01
 -2.21646000E-01
ECP-CLP2                                   R   N=          16
  0.00000000E+00  0.00000000E+00  0.00000000E+00  0.00000000E+00  0.00000000E+00
  0.00000000E+00  0.00000000E+00  0.00000000E+00  0.00000000E+00  0.00000000E+00
  0.00000000E+00  0.00000000E+00  0.00000000E+00  0.00000000E+00  0.00000000E+00
  0.00000000E+00
ECP-ZLP                                    R   N=          16
  1.00000000E+00  4.00333760E+01  1.73005760E+01  8.85172000E+00  1.57201410E+01
  1.52082220E+01  8.29418600E+00  7.75394900E+00  1.38177510E+01  1.35878050E+01
  6.94763000E+00  6.96009900E+00  1.85229500E+01  1.82510350E+01  7.55790100E+00
  7.59740400E+00
MxBond                                     I                2
NBond                                      I   N=           4
           2           1           0           1
IBond                                      I   N=           8
           2           4           1           0           0           0
           1           0
RBond                                      R   N=           8
  1.00000000E+00  1.00000000E+00  1.00000000E+00  0.00000000E+00  0.00000000E+00
  0.00000000E+00  1.00000000E+00  0.00000000E+00
Virial Ratio                               R      2.981466380933861E+00
SCF Energy                                 R     -3.708041019144604E+02
MP2 Energy                                 R     -3.712943909300323E+02
Total Energy                               R     -3.712943909300323E+02
Post-SCF wavefunction norm                 R      1.073133582024010E+00
RMS Density                                R      2.981865197200316E-09
Job Status                                 I                1
Nuclear derivative order                   I                0
External E-field                           R   N=          35
  0.00000000E+00  0.00000000E+00  0.00000000E+00  0.00000000E+00  0.00000000E+00
  0.00000000E+00  0.00000000E+00  0.00000000E+00  0.00000000E+00  0.00000000E+00
  0.00000000E+00  0.00000000E+00  0.00000000E+00  0.00000000E+00  0.00000000E+00
  0.00000000E+00  0.00000000E+00  0.00000000E+00  0.00000000E+00  0.00000000E+00
  0.00000000E+00  0.00000000E+00  0.00000000E+00  0.00000000E+00  0.00000000E+00
  0.00000000E+00  0.00000000E+00  0.00000000E+00  0.00000000E+00  0.00000000E+00
  0.00000000E+00  0.00000000E+00  0.00000000E+00  0.00000000E+00  0.00000000E+00
IOpCl                                      I                0
IROHF                                      I                0
Alpha Orbital Energies                     R   N=         147
 -2.04001416E+01 -7.46291962E+00 -5.28838729E+00 -5.28823590E+00 -5.28822140E+00
 -2.01578217E+00 -2.01571433E+00 -2.01567634E+00 -2.01551936E+00 -2.01551491E+00
 -1.23030953E+00 -6.24564656E-01 -5.84542174E-01 -4.47060950E-01 -3.61022067E-01
 -1.43157050E-01 -1.38478399E-01 -1.38138681E-01  1.30441723E-01  1.68833549E-01
  2.34159680E-01  2.45355971E-01  2.53647089E-01  2.67622199E-01  2.83090843E-01
  2.88152260E-01  3.13240624E-01  3.33333843E-01  3.67690671E-01  3.73057447E-01
  3.76080303E-01  3.96092397E-01  4.08693097E-01  4.17788167E-01  4.50640611E-01
  4.75031399E-01  5.39794172E-01  5.47332242E-01  5.69275992E-01  6.02669483E-01
  6.65430402E-01  7.11257456E-01  7.75854772E-01  7.83626515E-01  7.85648131E-01
  7.98926180E-01  8.03125514E-01  8.03910465E-01  8.26582799E-01  8.45298967E-01
  8.55347315E-01  8.57979055E-01  8.73005330E-01  8.74152907E-01  8.87194519E-01
  8.87778029E-01  8.91194073E-01  9.01327117E-01  9.23295171E-01  9.73803417E-01
  9.95596988E-01  1.06822778E+00  1.07220682E+00  1.08984700E+00  1.09630884E+00
  1.12956698E+00  1.13801376E+00  1.14687244E+00  1.17261453E+00  1.20048925E+00
  1.33607353E+00  1.37645798E+00  1.38647553E+00  1.40162778E+00  1.47422802E+00
  1.53551115E+00  1.54344031E+00  1.67339960E+00  1.73327199E+00  1.75534698E+00
  1.75543055E+00  1.77305920E+00  1.78186200E+00  1.78459945E+00  1.81327828E+00
  1.84967944E+00  1.87961544E+00  1.89081692E+00  2.00750374E+00  2.05460643E+00
  2.05913833E+00  2.09513206E+00  2.10941072E+00  2.11265342E+00  2.16862894E+00
  2.26510039E+00  2.43457737E+00  2.50588926E+00  2.57237462E+00  2.58014269E+00
  2.61892307E+00  2.64475687E+00  2.77362649E+00  2.82842269E+00  2.87057933E+00
  2.89009612E+00  2.99244134E+00  3.07305078E+00  3.07600001E+00  3.23890124E+00
  3.26449791E+00  3.86843403E+00  3.91474103E+00  4.19694946E+00  4.24423175E+00
  4.34091010E+00  4.39659893E+00  4.44961479E+00  4.53894670E+00  4.58143089E+00
  4.59052981E+00  4.65925955E+00  4.77095691E+00  4.99105873E+00  5.21884719E+00
  5.36972120E+00  5.40849373E+00  5.53774877E+00  5.87614908E+00  5.91607996E+00
  6.09212041E+00  6.52442308E+00  6.69254789E+00  6.90822117E+00  7.27007965E+00
  7.29608382E+00  7.42391848E+00  7.47842944E+00  7.50420167E+00  7.67612909E+00
  7.82692201E+00  8.02751788E+00  8.12958039E+00  8.61761085E+00  9.23168275E+00
  1.91259488E+01  5.92210564E+01
Alpha MO coefficients                      R   N=       28077
  9.76629946E-01 -8.50276358E-03  4.39257277E-02  3.32584517E-03  2.27535432E-03
  1.18423999E-03 -1.34574754E-03 -1.61309097E-16 -1.35158018E-03  2.28017857E-05
 -7.31920258E-16 -1.51330341E-03 -1.45431662E-03 -4.69200161E-15 -3.44426818E-04
 -5.82940269E-04 -4.91865394E-16 -1.71551269E-04 -2.33901592E-17 -7.91340438E-16
 -1.55764535E-04  8.15942615E-05  3.47633026E-04 -6.01534277E-16  1.07988259E-15
 -4.69898685E-04  4.46650659E-05  1.30741750E-04 -1.07377322E-15  7.82720690E-16
 -2.14082924E-04 -1.08747443E-04  3.08263279E-16  2.91855905E-05  1.09230493E-04
 -5.73570099E-16  1.62542764E-16  1.17012403E-04  1.38349771E-04  7.32630577E-16
  9.99949805E-05 -1.60607360E-04  2.07495265E-16 -3.43658909E-16 -2.55372014E-04
 -2.24538362E-04  4.95425748E-04  1.18634419E-03  1.25809972E-03  1.18301527E-04
  1.18634419E-03  1.25809972E-03  1.18301527E-04 -1.19087769E-04 -5.62924992E-06
  3.15944327E-16 -6.14588841E-04  6.46124950E-05  2.73635049E-15 -4.67494869E-04
  3.24213854E-06 -9.18216998E-17 -1.19087769E-04 -5.62924992E-06  6.49489883E-18
 -6.14588841E-04  6.46124950E-05 -1.22304301E-15 -4.67494869E-04  3.24213854E-06
  1.16269451E-15  1.63133844E-05 -1.11809774E-15 -3.76851310E-16 -5.02738822E-05
  2.14868066E-05 -1.09828902E-04 -1.72051801E-15  1.67950040E-16  1.75967306E-04
 -3.36958449E-05  1.63133844E-05  8.30198837E-16  3.28112737E-16 -5.02738822E-05
  2.14868066E-05 -1.09828902E-04  9.93927090E-16  1.42845035E-16  1.75967306E-04
 -3.36958449E-05 -2.69799201E-06  7.69741443E-06 -1.03422498E-05  1.07754073E-03
 -2.13362616E-03 -4.83000155E-04 -8.49353352E-06 -1.91838233E-05  4.03447015E-16
 -1.76248724E-05  2.61510440E-05  1.64418254E-15  2.91207012E-05  8.78048263E-05
 -9.45924983E-16 -2.87096181E-04 -1.52921971E-03 -1.09470055E-15 -4.03098258E-05
 -1.91980421E-04 -7.26525776E-17  6.00319552E-06 -2.04857990E-16 -1.10312946E-16
  9.50161680E-06 -4.03499251E-06 -5.51083039E-05 -8.88554236E-17 -1.26361933E-16
 -8.66867486E-05  3.81442267E-05  2.41723192E-04  2.78971638E-17  3.51313465E-16
  3.79034914E-04 -1.69427110E-04  2.30385137E-04 -4.48205929E-17 -3.80727629E-16
  3.78649262E-04 -1.40595342E-04  2.64967680E-16  4.10192855E-06  7.52411233E-06
  5.22670995E-19  1.54386449E-16  8.07414896E-06  1.27796557E-06 -1.35858814E-17
  2.23946236E-05  1.29375400E-04 -8.27289846E-17 -2.05960219E-16  9.34241639E-05
  1.50675679E-04  4.73688289E-04 -1.01158984E-03 -1.88108852E-03 -1.21281467E-04
 -1.01158984E-03 -1.88108852E-03 -1.21281467E-04 -2.19614368E-05 -2.00554112E-04
 -1.81954457E-16 -9.16408443E-06 -2.10090757E-04  1.36998664E-15 -4.39880969E-04
 -1.73948056E-03  1.04126594E-15 -2.19614368E-05 -2.00554112E-04 -1.81954457E-16
 -9.16408443E-06 -2.10090757E-04  1.36998664E-15 -4.39880969E-04 -1.73948056E-03
  5.49227671E-16  1.52866687E-04  4.19658910E-17 -5.36861296E-17  2.65439423E-04
 -7.84270391E-05 -1.75158781E-04  1.15221807E-16  1.61040214E-16 -2.82248182E-04
  1.30222999E-04  1.52866687E-04  4.19658910E-17 -5.36861296E-17  2.65439423E-04
 -7.84270391E-05 -1.75158781E-04  1.15221807E-16  9.15222206E-16 -2.82248182E-04
  1.30222999E-04  1.91120008E-06 -7.46600963E-07 -3.51348174E-07 -1.63201330E-04
 -1.03553252E-04  8.57999085E-07  2.97321551E-06  4.18528042E-16  2.33553498E-07
  2.23462749E-05 -2.80032936E-15  5.95603666E-05  1.05354634E-04 -1.26662527E-14
  6.36527658E-05 -2.45887675E-05 -3.36339588E-15  7.29280875E-09  2.43177474E-17
  1.26817189E-16  1.09065107E-06  2.90748078E-08  1.40588608E-05  2.94616648E-18
  2.64627410E-15  1.34955015E-05 -1.15462436E-05  1.04923244E-05  5.81226326E-16
  5.13933938E-15  2.32315153E-05 -2.76023959E-05  3.55151689E-17 -9.28216602E-08
 -2.09848028E-06  2.98321230E-16  5.67797300E-17 -1.71279572E-06 -2.95745586E-06
  1.63462778E-15 -2.43011717E-06 -4.67762622E-06  1.05262336E-15 -1.30452028E-15
 -6.61815845E-06 -2.02004964E-06  2.92325183E-07  5.81836268E-06 -1.85783165E-05
 -6.60904869E-05  5.81836268E-06 -1.85783165E-05 -6.60904869E-05 -1.75306704E-07
  1.62629192E-07  2.60795190E-16 -6.07650210E-06 -4.46958108E-07  9.00238815E-18
  3.20927593E-07 -4.69694985E-07  1.02738926E-15 -1.75306703E-07  1.62629190E-07
 -7.18415024E-16 -6.07650210E-06 -4.46958110E-07  1.37622521E-15  3.20927592E-07
 -4.69694985E-07  7.30011782E-16 -1.66020952E-07 -1.91463413E-16  4.28838322E-16
  2.96853331E-07 -4.56517754E-07 -1.35114944E-06 -9.73239885E-16 -2.54297889E-16
  2.86959394E-06 -1.82169510E-06 -1.66020952E-07  1.91023259E-17 -4.20745122E-16
  2.96853330E-07 -4.56517754E-07 -1.35114944E-06 -7.44954677E-16 -5.77153583E-16
  2.86959394E-06 -1.82169510E-06  9.83174949E-01 -2.62366722E-03  2.28916955E-02
 -5.95331420E-03  1.74334384E-03 -7.51123566E-04  9.14803783E-05  7.92759088E-05
  2.32764045E-16 -1.83499975E-05 -5.54637298E-05  2.28531336E-15  2.31746952E-05
  6.13730899E-05 -1.60122151E-15  2.18298919E-05  9.12033809E-05 -2.00651428E-15
 -1.18288108E-05 -1.17990092E-04 -2.92221039E-16 -1.49016621E-05 -2.51442458E-16
  2.76461517E-16  1.20746311E-06  2.27759539E-05 -2.83291483E-06 -1.18486099E-17
 -2.76408381E-16 -2.33495783E-06  3.08740381E-06 -5.13130199E-06 -3.21170977E-16
  6.85295841E-16 -1.47881855E-05  1.55015206E-07  6.24578609E-06 -1.98924177E-16
 -8.37717458E-16  1.91048100E-05  2.55973233E-06  2.54036560E-16 -1.32282815E-07
 -3.37450088E-06 -1.27640579E-16 -1.97841406E-16 -2.01039633E-06 -6.03803257E-06
 -2.80179865E-16 -4.18486329E-07  2.13228690E-06 -3.83184369E-17  2.13781157E-16
  7.69943064E-07  5.87703258E-06  4.52228003E-06  8.47974437E-05  4.59217237E-05
  1.62269046E-04  8.47974437E-05  4.59217237E-05  1.62269046E-04  1.64085344E-06
  7.37779837E-06  3.22020410E-16 -1.02928253E-05  5.62664411E-07  4.54224153E-15
 -1.78877055E-05  4.07234703E-05  3.51615722E-15  1.64085344E-06  7.37779837E-06
  3.22020410E-16 -1.02928253E-05  5.62664411E-07  4.54224153E-15 -1.78877055E-05
  4.07234703E-05  3.54766626E-15 -3.32655518E-06  2.35674988E-16  8.36942954E-16
 -5.17635730E-06  1.63481431E-06  1.31542204E-06  7.18498391E-17  2.23534525E-15
 -2.27896339E-06 -7.65478237E-06 -3.32655518E-06  2.35674988E-16  8.36942954E-16
 -5.17635730E-06  1.63481431E-06  1.31542204E-06  7.18498391E-17  1.82124735E-15
 -2.27896339E-06 -7.65478237E-06  3.30691498E-06 -2.34354413E-06 -1.16561253E-06
 -1.13444246E-04 -3.92702121E-05  1.22561974E-06  6.55260355E-06  2.36501345E-16
  7.04879287E-07  2.55176016E-05 -1.17427972E-15  3.73945311E-05  8.31582767E-05
 -9.55189366E-16  5.56478488E-06  4.99199519E-06 -1.49890575E-16  6.35836531E-07
 -1.51190108E-16  3.67991565E-17  1.49309157E-06  1.78735572E-07  1.03634100E-05
 -8.38959612E-16  5.71550363E-17  9.34164574E-06 -1.03054113E-05  1.00263727E-05
 -1.22886734E-15 -1.63707512E-15  1.02277605E-05 -2.52924515E-06  7.42086065E-16
 -4.97472812E-08 -1.93645820E-06  2.62559794E-17  1.77686447E-16 -2.39773504E-06
 -2.92429763E-06 -1.22661760E-16 -1.55305657E-06 -2.03058471E-06 -8.07954788E-16
 -2.25882129E-16 -6.00648116E-07  2.95365053E-06 -1.93243860E-07  1.32764590E-05
 -1.86281406E-05  4.82335515E-06  1.32764590E-05 -1.86281406E-05  4.82335515E-06
 -1.43162773E-07 -3.75786859E-07 -2.09486407E-16 -7.89348942E-06 -2.51854335E-06
  2.88301109E-15  6.93942980E-06  6.63302850E-07 -5.55667971E-16 -1.43162768E-07