title                                                                   
SP        RMP2-FC                                                     Gen                 
Number of atoms                            I                4
Info1-9                                    I   N=           9
         144         135           0           0           0         110
           1           2           1
Charge                                     I               -1
Multiplicity                               I                1
Number of electrons                        I               36
Number of alpha electrons                  I               18
Number of beta electrons                   I               18
Number of basis functions                  I              191
Number of independent functions            I              147
Number of point charges in /Mol/           I                0
Number of translation vectors              I                0
Atomic numbers                             I   N=           4
           8           1          53           1
Nuclear charges                            R   N=           4
  8.00000000E+00  1.00000000E+00  2.50000000E+01  1.00000000E+00
Current cartesian coordinates              R   N=          12
  0.00000000E+00  0.00000000E+00  0.00000000E+00  1.81585239E+00  0.00000000E+00
  0.00000000E+00 -1.36243524E+00 -6.48861632E+00  0.00000000E+00 -5.43653232E-01
 -2.58915590E+00  0.00000000E+00
Force Field                                I                0
Int Atom Types                             I   N=           4
           0           0           0           0
MM charges                                 R   N=           4
  0.00000000E+00  0.00000000E+00  0.00000000E+00  0.00000000E+00
Integer atomic weights                     I   N=           4
          16           2         127           1
Real atomic weights                        R   N=           4
  1.59949146E+01  2.01410179E+00  1.26900400E+02  1.00782504E+00
Atom fragment info                         I   N=           4
           0           0           0           0
Atom residue num                           I   N=           4
           0           0           0           0
Nuclear spins                              I   N=           4
           0           2           5           1
Nuclear ZEff                               R   N=           4
 -5.60000000E+00 -1.00000000E+00 -5.83000000E+03 -1.00000000E+00
Nuclear ZNuc                               R   N=           4
  8.00000000E+00  1.00000000E+00  5.30000000E+01  1.00000000E+00
Nuclear QMom                               R   N=           4
  0.00000000E+00  2.86000000E-01 -7.10000000E+01  0.00000000E+00
Nuclear GFac                               R   N=           4
  0.00000000E+00  8.57438000E-01  2.81328000E+00  2.79284600E+00
MicOpt                                     I   N=           4
          -1          -1          -1          -1
Number of contracted shells                I               65
Number of primitive shells                 I              119
Pure/Cartesian d shells                    I                0
Pure/Cartesian f shells                    I                0
Highest angular momentum                   I                3
Largest degree of contraction              I                9
Shell types                                I   N=          65
           0           0           0           0           0           1
           1           1           1          -2          -2          -2
          -3          -3           0           0           0           0
           0           0           0           1           1           1
           1           1           1          -2          -2          -2
          -2           0           0           0           0           0
           0           1           1           1           1           1
          -2          -2          -2          -2          -3          -3
           0           0           0           0           0           0
           0           1           1           1           1           1
           1          -2          -2          -2          -2
Number of primitives per shell             I   N=          65
           7           6           1           1           1           3
           1           1           1           1           1           1
           1           1           3           1           1           1
           1           1           1           1           1           1
           1           1           1           1           1           1
           1           9           8           1           1           1
           1           8           8           1           1           1
           9           1           1           1           1           1
           3           1           1           1           1           1
           1           1           1           1           1           1
           1           1           1           1           1
Shell to atom map                          I   N=          65
           1           1           1           1           1           1
           1           1           1           1           1           1
           1           1           2           2           2           2
           2           2           2           2           2           2
           2           2           2           2           2           2
           2           3           3           3           3           3
           3           3           3           3           3           3
           3           3           3           3           3           3
           4           4           4           4           4           4
           4           4           4           4           4           4
           4           4           4           4           4
Primitive exponents                        R   N=         119
  1.53300000E+04  2.29900000E+03  5.22400000E+02  1.47300000E+02  4.75500000E+01
  1.67600000E+01  6.20700000E+00  5.22400000E+02  1.47300000E+02  4.75500000E+01
  1.67600000E+01  6.20700000E+00  6.88200000E-01  1.75200000E+00  2.38400000E-01
  7.37600000E-02  3.44600000E+01  7.74900000E+00  2.28000000E+00  7.15600000E-01
  2.14000000E-01  5.97400000E-02  2.31400000E+00  6.45000000E-01  2.14000000E-01
  1.42800000E+00  5.00000000E-01  3.38700000E+01  5.09500000E+00  1.15900000E+00
  3.25800000E-01  1.02700000E-01  2.52600000E-02  3.25800000E-01  1.02700000E-01
  2.52600000E-02  1.40700000E+00  3.88000000E-01  1.02000000E-01  1.40700000E+00
  3.88000000E-01  1.02000000E-01  1.05700000E+00  2.47000000E-01  1.05700000E+00
  2.47000000E-01  5.54650000E+03  8.38214000E+02  1.82187000E+02  3.12123000E+01
  1.95314000E+01  8.24099000E+00  2.19455000E+00  1.10911000E+00  8.10610000E-02
  5.54650000E+03  8.38214000E+02  3.12123000E+01  1.95314000E+01  8.24099000E+00
  2.19455000E+00  1.10911000E+00  8.10610000E-02  3.74641000E-01  1.77080000E-01
  1.00100000E-01  4.12000000E-02  1.88988000E+02  2.12868000E+01  1.00396000E+01
  3.45180000E+00  1.97456000E+00  1.02420000E+00  4.49437000E-01  7.34810000E-02
  1.88988000E+02  1.00396000E+01  3.45180000E+00  1.97456000E+00  1.02420000E+00
  4.49437000E-01  1.86648000E-01  7.34810000E-02  5.98100000E-01  9.61800000E-02
  3.59000000E-02  1.32662000E+02  3.76054000E+01  1.03891000E+01  6.49017000E+00
  3.45451000E+00  1.84413000E+00  9.62478000E-01  4.72853000E-01  1.93200000E-01
  4.72853000E-01  1.93200000E-01  7.82000000E-02  4.06400000E-01  1.84800000E-01
  3.38700000E+01  5.09500000E+00  1.15900000E+00  3.25800000E-01  1.02700000E-01
  2.52600000E-02  3.25800000E-01  1.02700000E-01  2.52600000E-02  1.40700000E+00
  3.88000000E-01  1.02000000E-01  1.40700000E+00  3.88000000E-01  1.02000000E-01
  1.05700000E+00  2.47000000E-01  1.05700000E+00  2.47000000E-01
Contraction coefficients                   R   N=         119
  5.19808943E-04  4.02025621E-03  2.07128267E-02  8.10105536E-02  2.35962985E-01
  4.42653446E-01  3.57064423E-01 -4.42115008E-05 -1.22591041E-03 -1.05517725E-02
 -6.74452633E-02 -1.71198607E-01  1.07329856E+00  1.00000000E+00  1.00000000E+00
  1.00000000E+00  4.11634896E-02  2.57762836E-01  8.02419274E-01  1.00000000E+00
  1.00000000E+00  1.00000000E+00  1.00000000E+00  1.00000000E+00  1.00000000E+00
  1.00000000E+00  1.00000000E+00  2.54948632E-02  1.90362766E-01  8.52162022E-01
  1.00000000E+00  1.00000000E+00  1.00000000E+00  1.00000000E+00  1.00000000E+00
  1.00000000E+00  1.00000000E+00  1.00000000E+00  1.00000000E+00  1.00000000E+00
  1.00000000E+00  1.00000000E+00  1.00000000E+00  1.00000000E+00  1.00000000E+00
  1.00000000E+00  1.58603022E-04  1.00211458E-03  2.83966410E-03 -4.40310212E-02
  2.38198152E-01 -7.63568980E-01  8.96516870E-01  4.68371203E-01  2.16251781E-03
 -2.17177846E-05 -2.59237305E-04 -1.50376554E-02  2.42214079E-02  6.99888661E-02
 -5.50491335E-01 -5.69654432E-01  3.76065139E-01  1.00000000E+00  1.00000000E+00
  1.00000000E+00  1.00000000E+00  5.85232173E-04  3.69335916E-02 -2.35399435E-01
  3.41625365E-01  5.34991615E-01  2.65244797E-01  2.54463150E-02  3.82802808E-04
 -6.76097015E-05  8.33123161E-03 -4.66496478E-02 -5.27406452E-02 -2.91398344E-02
  3.65650039E-01  5.48502805E-01  2.34644635E-01  1.00000000E+00  1.00000000E+00
  1.00000000E+00  5.72000072E-04  4.40200055E-03 -4.09220051E-02  9.96610125E-02
  3.22663040E-01  4.00343050E-01  2.68306034E-01  8.48470106E-02  7.63200096E-03
  1.00000000E+00  1.00000000E+00  1.00000000E+00  1.00000000E+00  1.00000000E+00
  2.54948632E-02  1.90362766E-01  8.52162022E-01  1.00000000E+00  1.00000000E+00
  1.00000000E+00  1.00000000E+00  1.00000000E+00  1.00000000E+00  1.00000000E+00
  1.00000000E+00  1.00000000E+00  1.00000000E+00  1.00000000E+00  1.00000000E+00
  1.00000000E+00  1.00000000E+00  1.00000000E+00  1.00000000E+00
Coordinates of each shell                  R   N=         195
  0.00000000E+00  0.00000000E+00  0.00000000E+00  0.00000000E+00  0.00000000E+00
  0.00000000E+00  0.00000000E+00  0.00000000E+00  0.00000000E+00  0.00000000E+00
  0.00000000E+00  0.00000000E+00  0.00000000E+00  0.00000000E+00  0.00000000E+00
  0.00000000E+00  0.00000000E+00  0.00000000E+00  0.00000000E+00  0.00000000E+00
  0.00000000E+00  0.00000000E+00  0.00000000E+00  0.00000000E+00  0.00000000E+00
  0.00000000E+00  0.00000000E+00  0.00000000E+00  0.00000000E+00  0.00000000E+00
  0.00000000E+00  0.00000000E+00  0.00000000E+00  0.00000000E+00  0.00000000E+00
  0.00000000E+00  0.00000000E+00  0.00000000E+00  0.00000000E+00  0.00000000E+00
  0.00000000E+00  0.00000000E+00  1.81585239E+00  0.00000000E+00  0.00000000E+00
  1.81585239E+00  0.00000000E+00  0.00000000E+00  1.81585239E+00  0.00000000E+00
  0.00000000E+00  1.81585239E+00  0.00000000E+00  0.00000000E+00  1.81585239E+00
  0.00000000E+00  0.00000000E+00  1.81585239E+00  0.00000000E+00  0.00000000E+00
  1.81585239E+00  0.00000000E+00  0.00000000E+00  1.81585239E+00  0.00000000E+00
  0.00000000E+00  1.81585239E+00  0.00000000E+00  0.00000000E+00  1.81585239E+00
  0.00000000E+00  0.00000000E+00  1.81585239E+00  0.00000000E+00  0.00000000E+00
  1.81585239E+00  0.00000000E+00  0.00000000E+00  1.81585239E+00  0.00000000E+00
  0.00000000E+00  1.81585239E+00  0.00000000E+00  0.00000000E+00  1.81585239E+00
  0.00000000E+00  0.00000000E+00  1.81585239E+00  0.00000000E+00  0.00000000E+00
  1.81585239E+00  0.00000000E+00  0.00000000E+00 -1.36243524E+00 -6.48861632E+00
  0.00000000E+00 -1.36243524E+00 -6.48861632E+00  0.00000000E+00 -1.36243524E+00
 -6.48861632E+00  0.00000000E+00 -1.36243524E+00 -6.48861632E+00  0.00000000E+00
 -1.36243524E+00 -6.48861632E+00  0.00000000E+00 -1.36243524E+00 -6.48861632E+00
  0.00000000E+00 -1.36243524E+00 -6.48861632E+00  0.00000000E+00 -1.36243524E+00
 -6.48861632E+00  0.00000000E+00 -1.36243524E+00 -6.48861632E+00  0.00000000E+00
 -1.36243524E+00 -6.48861632E+00  0.00000000E+00 -1.36243524E+00 -6.48861632E+00
  0.00000000E+00 -1.36243524E+00 -6.48861632E+00  0.00000000E+00 -1.36243524E+00
 -6.48861632E+00  0.00000000E+00 -1.36243524E+00 -6.48861632E+00  0.00000000E+00
 -1.36243524E+00 -6.48861632E+00  0.00000000E+00 -1.36243524E+00 -6.48861632E+00
  0.00000000E+00 -1.36243524E+00 -6.48861632E+00  0.00000000E+00 -5.43653232E-01
 -2.58915590E+00  0.00000000E+00 -5.43653232E-01 -2.58915590E+00  0.00000000E+00
 -5.43653232E-01 -2.58915590E+00  0.00000000E+00 -5.43653232E-01 -2.58915590E+00
  0.00000000E+00 -5.43653232E-01 -2.58915590E+00  0.00000000E+00 -5.43653232E-01
 -2.58915590E+00  0.00000000E+00 -5.43653232E-01 -2.58915590E+00  0.00000000E+00
 -5.43653232E-01 -2.58915590E+00  0.00000000E+00 -5.43653232E-01 -2.58915590E+00
  0.00000000E+00 -5.43653232E-01 -2.58915590E+00  0.00000000E+00 -5.43653232E-01
 -2.58915590E+00  0.00000000E+00 -5.43653232E-01 -2.58915590E+00  0.00000000E+00
 -5.43653232E-01 -2.58915590E+00  0.00000000E+00 -5.43653232E-01 -2.58915590E+00
  0.00000000E+00 -5.43653232E-01 -2.58915590E+00  0.00000000E+00 -5.43653232E-01
 -2.58915590E+00  0.00000000E+00 -5.43653232E-01 -2.58915590E+00  0.00000000E+00
Constraint Structure                       R   N=          12
  0.00000000E+00  0.00000000E+00  0.00000000E+00  1.81585239E+00  0.00000000E+00
  0.00000000E+00 -1.36243524E+00 -6.48861632E+00  0.00000000E+00 -5.43653232E-01
 -2.58915590E+00  0.00000000E+00
Num ILSW                                   I              100
ILSW                                       I   N=         100
           0           0           0           0           2           0
           0           0           0           0           0          -1
           0           0           0           0           0           0
           0           0           0           0           0           0
           1           1           0           0           0           0
           0           0      100000           0          -1           0
           0           0           0           0           0           0
           0           0           0           1           0           0
           0           0           1           0           0           0
           0           0           4          41           0           0
           0           0           0           0           0           0
           0           0           0           4           0           0
           0           0           0           0           0           0
           0           0           0           0           0           0
           0           0           0           0           0           0
           0           0           0           0           0           0
           0           0           0           0
Num RLSW                                   I               41
RLSW                                       R   N=          41
  1.00000000E+00  1.00000000E+00  1.00000000E+00  1.00000000E+00  1.00000000E+00
  0.00000000E+00  0.00000000E+00  1.00000000E+00  0.00000000E+00  0.00000000E+00
  0.00000000E+00  0.00000000E+00  1.00000000E+00  0.00000000E+00  0.00000000E+00
  0.00000000E+00  0.00000000E+00  1.00000000E+00  0.00000000E+00  0.00000000E+00
  0.00000000E+00  0.00000000E+00  1.00000000E+00  0.00000000E+00  0.00000000E+00
  0.00000000E+00  0.00000000E+00  1.00000000E+00  0.00000000E+00  0.00000000E+00
  0.00000000E+00  0.00000000E+00  1.00000000E+00  0.00000000E+00  0.00000000E+00
  0.00000000E+00  0.00000000E+00  0.00000000E+00  1.00000000E+00  1.00000000E+00
  0.00000000E+00
ECP-MxAtEC                                 I           250000
ECP-MaxLECP                                I               10
ECP-MaxAtL                                 I          2250000
ECP-MxTECP                                 I         11250000
ECP-LenNCZ                                 I               16
ECP-KFirst                                 I   N=          40
           0           0           1           0           0           0
           2           0           0           0           5           0
           0           0           9           0           0           0
          13           0           0           0           0           0
           0           0           0           0           0           0
           0           0           0           0           0           0
           0           0           0           0
ECP-KLast                                  I   N=          40
           0           0           1           0           0           0
           4           0           0           0           8           0
           0           0          12           0           0           0
          16           0           0           0           0           0
           0           0           0           0           0           0
           0           0           0           0           0           0
           0           0           0           0
ECP-LMax                                   I   N=           4
           0           0           4           0
ECP-LPSkip                                 I   N=           4
           1           1           0           1
ECP-RNFroz                                 R   N=           4
  0.00000000E+00  0.00000000E+00  2.80000000E+01  0.00000000E+00
ECP-NLP                                    I   N=          16
           2           2           2           2           2           2
           2           2           2           2           2           2
           2           2           2           2
ECP-CLP1                                   R   N=          16
  0.00000000E+00  4.99896490E+01  2.81006556E+02  6.14167390E+01  6.74162390E+01
  1.34807696E+02  1.45665480E+01  2.89684220E+01  3.55387560E+01  5.33397590E+01
  9.71646600E+00  1.49775000E+01 -2.01766180E+01 -2.60880770E+01 -2.20434000E-01
 -2.21646000E-01
ECP-CLP2                                   R   N=          16
  0.00000000E+00  0.00000000E+00  0.00000000E+00  0.00000000E+00  0.00000000E+00
  0.00000000E+00  0.00000000E+00  0.00000000E+00  0.00000000E+00  0.00000000E+00
  0.00000000E+00  0.00000000E+00  0.00000000E+00  0.00000000E+00  0.00000000E+00
  0.00000000E+00
ECP-ZLP                                    R   N=          16
  1.00000000E+00  4.00333760E+01  1.73005760E+01  8.85172000E+00  1.57201410E+01
  1.52082220E+01  8.29418600E+00  7.75394900E+00  1.38177510E+01  1.35878050E+01
  6.94763000E+00  6.96009900E+00  1.85229500E+01  1.82510350E+01  7.55790100E+00
  7.59740400E+00
MxBond                                     I                1
NBond                                      I   N=           4
           1           1           0           0
IBond                                      I   N=           4
           2           1           0           0
RBond                                      R   N=           4
  1.00000000E+00  1.00000000E+00  0.00000000E+00  0.00000000E+00
Virial Ratio                               R      2.987606582130127E+00
SCF Energy                                 R     -3.707444233384921E+02
MP2 Energy                                 R     -3.712643506780910E+02
Total Energy                               R     -3.712643506780910E+02
Post-SCF wavefunction norm                 R      1.083674788862425E+00
RMS Density                                R      6.904358138236358E-09
Job Status                                 I                1
Nuclear derivative order                   I                0
External E-field                           R   N=          35
  0.00000000E+00  0.00000000E+00  0.00000000E+00  0.00000000E+00  0.00000000E+00
  0.00000000E+00  0.00000000E+00  0.00000000E+00  0.00000000E+00  0.00000000E+00
  0.00000000E+00  0.00000000E+00  0.00000000E+00  0.00000000E+00  0.00000000E+00
  0.00000000E+00  0.00000000E+00  0.00000000E+00  0.00000000E+00  0.00000000E+00
  0.00000000E+00  0.00000000E+00  0.00000000E+00  0.00000000E+00  0.00000000E+00
  0.00000000E+00  0.00000000E+00  0.00000000E+00  0.00000000E+00  0.00000000E+00
  0.00000000E+00  0.00000000E+00  0.00000000E+00  0.00000000E+00  0.00000000E+00
IOpCl                                      I                0
IROHF                                      I                0
Alpha Orbital Energies                     R   N=         147
 -2.03534743E+01 -7.49685642E+00 -5.32352350E+00 -5.32160283E+00 -5.32154868E+00
 -2.05134888E+00 -2.05032452E+00 -2.05026436E+00 -2.04816615E+00 -2.04816587E+00
 -1.07589852E+00 -6.61600908E-01 -4.26779422E-01 -3.40270252E-01 -2.77712219E-01
 -1.71807634E-01 -1.68246184E-01 -1.67752913E-01  1.43641983E-01  1.68841376E-01
  2.27926878E-01  2.40429553E-01  2.43173925E-01  2.80584464E-01  3.00184739E-01
  3.07056239E-01  3.14956269E-01  3.42938762E-01  3.61692227E-01  3.62877031E-01
  3.65110335E-01  3.90670369E-01  3.95147169E-01  4.37404387E-01  4.50639692E-01
  4.71420331E-01  4.92759252E-01  5.53584162E-01  5.76625054E-01  6.15634459E-01
  6.64458013E-01  7.12831068E-01  7.55658154E-01  7.56419942E-01  7.60730989E-01
  7.76954700E-01  7.77723586E-01  7.86916019E-01  8.15003653E-01  8.28232996E-01
  8.45705804E-01  8.60679056E-01  8.63297032E-01  8.63335324E-01  8.74009142E-01
  9.13333624E-01  9.19957015E-01  9.36910516E-01  9.58096276E-01  9.87691624E-01
  1.04436002E+00  1.07580535E+00  1.09104596E+00  1.12362556E+00  1.13631651E+00
  1.13709303E+00  1.18149692E+00  1.20224072E+00  1.22058082E+00  1.23812869E+00
  1.27127590E+00  1.37159180E+00  1.37435413E+00  1.48140075E+00  1.49619649E+00
  1.51400272E+00  1.58778802E+00  1.66158592E+00  1.72445734E+00  1.72645764E+00
  1.72852729E+00  1.73541477E+00  1.74464724E+00  1.74612352E+00  1.77831256E+00
  1.82233687E+00  1.86733775E+00  1.90919355E+00  1.98985053E+00  2.03254352E+00
  2.03302505E+00  2.03766879E+00  2.06957750E+00  2.11347357E+00  2.16124021E+00
  2.33333067E+00  2.43507376E+00  2.49365307E+00  2.56502944E+00  2.57211803E+00
  2.61588960E+00  2.61835978E+00  2.72793487E+00  2.77366554E+00  2.87335205E+00
  2.90014428E+00  2.98211513E+00  3.01024132E+00  3.22651635E+00  3.38041351E+00
  3.38295620E+00  3.57578102E+00  3.88912670E+00  4.13434759E+00  4.15280769E+00
  4.29563340E+00  4.31108183E+00  4.32760862E+00  4.39614936E+00  4.44908188E+00
  4.53672543E+00  4.57171287E+00  4.59079877E+00  4.63433515E+00  4.78914245E+00
  4.79829306E+00  5.04619035E+00  5.15402744E+00  5.40512539E+00  5.53327622E+00
  5.57475131E+00  6.10749221E+00  6.52015843E+00  6.91156935E+00  6.99845154E+00
  7.05580120E+00  7.15235444E+00  7.43185619E+00  7.46402969E+00  7.53337356E+00
  7.53833220E+00  7.55797940E+00  7.75698965E+00  7.91367673E+00  8.47521485E+00
  1.45251588E+01  5.91905960E+01
Alpha MO coefficients                      R   N=       28077
  9.76866970E-01 -9.01708045E-03  4.33099237E-02  1.93828891E-03  1.18086349E-03
  1.35409299E-03 -7.84380283E-04 -2.38535009E-16 -1.26203649E-03  7.20266451E-04
  8.22786227E-16 -7.42609138E-05 -3.94350474E-04 -4.34867464E-15 -2.58681105E-06
 -4.13201498E-04  2.99439745E-16 -1.25279278E-05  4.89479401E-16  3.65847928E-17
  8.29587397E-05 -2.35407293E-06  4.28436100E-04 -5.51437950E-16 -1.17850928E-16
 -2.99024973E-04 -1.41945038E-04 -4.38998648E-05 -2.22561793E-16  2.14999562E-15
  1.49277461E-04 -1.16300698E-04 -3.66625731E-16  2.00033589E-05 -8.51322464E-06
  5.32451057E-16  2.09675759E-16 -1.38356765E-05  3.65965519E-07  6.58300031E-16
  4.57060012E-05 -2.89336676E-05  4.47680882E-17 -1.68897030E-16 -1.43582349E-04
 -5.38114903E-05  5.31981239E-04  6.65949991E-04  6.21924794E-05 -6.76012974E-07
  6.65949991E-04  6.21924794E-05 -6.76012973E-07 -1.27203988E-04 -8.57343391E-06
 -9.24445067E-16 -5.44824991E-04  7.52643481E-05  4.71282447E-16 -1.38811525E-04
  7.98557145E-05  9.43274528E-16 -1.27203988E-04 -8.57343392E-06  6.10019296E-16
 -5.44824991E-04  7.52643481E-05  1.10302627E-15 -1.38811525E-04  7.98557145E-05
 -8.06390870E-16  2.13397277E-05  2.52947279E-17  4.81988155E-16 -3.87965782E-05
  5.96192041E-06 -1.20650801E-04 -2.84300706E-16  4.97884916E-17  2.42979634E-04
 -5.84571486E-05  2.13397277E-05  4.95986489E-17 -4.29575178E-16 -3.87965782E-05
  5.96192041E-06 -1.20650801E-04 -5.04089917E-16 -3.40257180E-16  2.42979634E-04
 -5.84571486E-05  3.23071701E-06 -3.35402932E-07  9.68219611E-05  7.45970709E-04
 -3.58124769E-03 -8.83749510E-04 -2.19445485E-05 -1.10604786E-04  6.72698053E-16
 -1.30196338E-04 -6.83096518E-04  2.75458399E-15  5.68244646E-05  2.76544425E-04
 -1.62962378E-15 -5.26998476E-04 -2.10102619E-03 -1.71931179E-15 -5.59418318E-05
 -2.14568510E-04 -2.29233725E-16  3.41627304E-07  4.51335144E-18  5.53268813E-17
 -1.74922143E-06 -1.27767812E-06 -1.55991617E-05 -5.23473647E-18 -2.67740425E-16
 -1.23895898E-05  1.79472385E-05  2.89780398E-04  2.32477910E-16  1.11747255E-15
  4.22885390E-04 -2.29968475E-04  2.60363501E-04 -1.52141746E-16 -7.57835192E-16
  4.18862483E-04 -2.38650115E-04  5.84703183E-17  7.70910229E-06  3.66577695E-05
  4.24352314E-17  7.26624773E-17  1.71719249E-05  3.59113254E-05 -3.32185292E-16
  1.67105355E-05  4.43189447E-05 -3.94620804E-16  1.08317601E-16  7.51686568E-05
  3.59223377E-05 -9.70831079E-05  1.15954050E-04  1.10928084E-03  1.31186204E-04
  1.15954050E-04  1.10928084E-03  1.31186204E-04  4.11488950E-06  2.22458654E-05
 -8.48941614E-17  2.04302455E-05  2.19370074E-04  5.43034716E-16 -2.68479782E-04
 -1.73750286E-03  7.49951412E-16  4.11488950E-06  2.22458654E-05 -8.48941614E-17
  2.04302455E-05  2.19370074E-04  5.43034716E-16 -2.68479782E-04 -1.73750286E-03
  8.25501002E-16 -4.69223251E-05  1.14098727E-17 -5.49085126E-17 -8.17799214E-05
  2.73077386E-05 -1.75876563E-04  1.84886590E-16  1.83487006E-15 -2.73137845E-04
  9.39264321E-05 -4.69223251E-05  2.03898919E-18 -5.79732909E-17 -8.17799214E-05
  2.73077386E-05 -1.75876563E-04  1.82661508E-16  5.43197011E-16 -2.73137845E-04
  9.39264321E-05  3.58888490E-06  1.82928204E-06 -4.99599444E-06  1.35198676E-04
  1.12066459E-04  2.74455046E-06  1.18162578E-05  2.77965753E-16 -9.88130400E-06
 -2.43877395E-05 -5.93549391E-16  4.68093088E-05  2.72938387E-05  3.22938223E-15
  5.17517784E-05 -3.85710297E-05  2.39920368E-15  2.30626415E-07 -1.95052723E-16
 -1.39836413E-16  3.83008272E-07 -9.17646896E-07 -2.55273524E-06 -3.31761735E-16
  6.49384206E-16 -5.84388433E-06  8.17345887E-06  8.95646225E-06  1.75932872E-15
 -2.07781423E-15  5.19510611E-05 -1.00463800E-05  6.45508058E-16  1.20797661E-06
  2.76046161E-06 -2.94745910E-16  2.88111822E-16  5.65952211E-07  2.14340958E-06
 -9.72333494E-16 -3.79656410E-06 -1.03363803E-05  6.78325871E-18 -6.08519902E-16
 -1.54584479E-06 -2.86760322E-06 -3.47796468E-07 -2.01507756E-05 -4.14912803E-05
 -5.70266051E-05 -2.01507756E-05 -4.14912803E-05 -5.70266051E-05 -6.50379912E-07
  5.39878773E-07  8.37287969E-16  3.86463850E-07 -9.21095600E-06 -1.19307609E-15
  2.97962959E-06 -8.57135443E-08 -1.03866688E-16 -6.50379912E-07  5.39878774E-07
 -3.67118384E-16  3.86463851E-07 -9.21095600E-06 -5.88542668E-16  2.97962959E-06
 -8.57135431E-08 -2.05234756E-15 -3.47225124E-07  2.26414794E-16  2.35094176E-16
  2.14817632E-07  1.51994999E-06 -3.22289577E-06  7.28192994E-16 -3.80054145E-17
  2.35922050E-06 -3.38982200E-07 -3.47225124E-07 -5.05634120E-16 -1.30028804E-16
  2.14817631E-07  1.51994999E-06 -3.22289577E-06 -2.67890056E-16  4.47555547E-16
  2.35922050E-06 -3.38982203E-07  9.83167247E-01 -2.61407798E-03  2.29070719E-02
 -5.93862889E-03  1.83798381E-03 -8.14868405E-04  1.97371875E-04  7.41905588E-04
 -1.14676300E-15 -1.44204563E-05 -5.22776936E-05 -4.32564451E-15  4.00212102E-05
  1.58614873E-04  2.42793641E-15  3.41941018E-05  1.56257697E-04  3.71545520E-15
 -1.47420202E-05 -1.17008694E-04 -6.45468419E-16 -1.80401283E-04  1.26411055E-16
 -1.11015333E-16 -2.67698203E-04  1.26381765E-04 -1.83250840E-05  2.02262616E-17
  5.77323672E-16 -2.74356705E-05  1.30453348E-05  5.39494826E-06 -2.13366213E-16
 -7.13874763E-16  3.79634428E-06 -4.67376179E-06 -1.05678667E-05  2.55603179E-16
  8.50529926E-16 -9.16064293E-06  1.08119056E-05  1.80604900E-16  1.68863477E-06
  6.99534162E-06  1.25694912E-16 -2.36162937E-16  4.85923448E-06  5.83474363E-06
  2.60010205E-17 -2.84164934E-06 -1.13463204E-05  1.38195438E-17  3.28788601E-16
 -7.96203156E-06 -8.99263017E-06  2.56634063E-05  6.31907323E-05 -1.71116157E-04
  1.69550005E-04  6.31907323E-05 -1.71116157E-04  1.69550005E-04 -7.98984132E-07
 -2.10268289E-06 -4.33195666E-17 -2.10807776E-06 -1.84859633E-05 -1.89519131E-16
 -8.64226809E-06  5.49026840E-06 -1.11824236E-15 -7.98984132E-07 -2.10268289E-06
 -4.33195666E-17 -2.10807776E-06 -1.84859633E-05 -1.89519131E-16 -8.64226809E-06
  5.49026840E-06 -1.11033798E-15  4.87414612E-07 -3.43150760E-18  8.96067677E-18
  1.50688039E-06 -1.72507336E-07  2.59042684E-05 -3.83254173E-16 -6.27216338E-16
  3.86049896E-05 -1.91871158E-05  4.87414612E-07  8.79583770E-18  5.07455847E-17
  1.50688039E-06 -1.72507336E-07  2.59042684E-05 -4.00859493E-16 -6.38500700E-16
  3.86049896E-05 -1.91871158E-05  6.34641226E-06 -5.53711580E-06 -6.60588007E-06
  1.19864814E-04  1.37094053E-04  2.91240754E-06  1.92373284E-05 -6.68746342E-16
  4.96190088E-06  7.61105496E-06  9.85332064E-16  8.02524568E-05 -2.42267547E-05
  2.99212936E-14  3.03478795E-05 -3.76471697E-05  6.02190136E-15  4.32112121E-07
 -4.24930204E-16 -6.51507852E-16 -4.63727376E-08 -8.78978537E-08 -2.80490280E-06
  4.40665833E-15  6.16284382E-16  7.73183053E-06  1.79697615E-06 -3.32279862E-05
  1.01539908E-14 -7.25235366E-15 -5.25946609E-06  1.82938808E-05  6.34623655E-17
  5.02399550E-08 -1.44435633E-06  1.22500926E-15 -3.43956113E-16 -1.01862947E-06
 -1.54651439E-06 -4.39580100E-15 -3.31293338E-06  3.49930205E-06  1.66031066E-15
  5.50205993E-16  6.85848093E-06  6.80261710E-06 -1.10906171E-08 -4.51490382E-05
 -9.38953391E-05 -1.93900304E-05 -4.51490382E-05 -9.38953391E-05 -1.93900304E-05
  9.74917355E-07 -2.18621980E-07  1.08701929E-15  1.24435701E-05 -3.10144961E-06
 -9.17998399E-15  2.40164759E-05 -1.31996872E-06 -9.24591723E-15  9.74917348E-07
 -2.18621984E-07 -1.11931278E-15  1.24435701E-05 -3.10144961E-06 -8.07530039E-15