 Entering Gaussian System, Link 0=g16
 Input=ihod_rOH_100_sp.gjf
 Output=ihod_rOH_100_sp.log
 Initial command:
 /sw/contrib/gaussian/g16/B01/g16/l1.exe "/scr/Gau-26014.inp" -scrdir="/scr/"
 Entering Link 1 = /sw/contrib/gaussian/g16/B01/g16/l1.exe PID=     26015.
  
 Copyright (c) 1988-2017, Gaussian, Inc.  All Rights Reserved.
  
 This is part of the Gaussian(R) 16 program.  It is based on
 the Gaussian(R) 09 system (copyright 2009, Gaussian, Inc.),
 the Gaussian(R) 03 system (copyright 2003, Gaussian, Inc.),
 the Gaussian(R) 98 system (copyright 1998, Gaussian, Inc.),
 the Gaussian(R) 94 system (copyright 1995, Gaussian, Inc.),
 the Gaussian 92(TM) system (copyright 1992, Gaussian, Inc.),
 the Gaussian 90(TM) system (copyright 1990, Gaussian, Inc.),
 the Gaussian 88(TM) system (copyright 1988, Gaussian, Inc.),
 the Gaussian 86(TM) system (copyright 1986, Carnegie Mellon
 University), and the Gaussian 82(TM) system (copyright 1983,
 Carnegie Mellon University). Gaussian is a federally registered
 trademark of Gaussian, Inc.
  
 This software contains proprietary and confidential information,
 including trade secrets, belonging to Gaussian, Inc.
  
 This software is provided under written license and may be
 used, copied, transmitted, or stored only in accord with that
 written license.
  
 The following legend is applicable only to US Government
 contracts under FAR:
  
                    RESTRICTED RIGHTS LEGEND
  
 Use, reproduction and disclosure by the US Government is
 subject to restrictions as set forth in subparagraphs (a)
 and (c) of the Commercial Computer Software - Restricted
 Rights clause in FAR 52.227-19.
  
 Gaussian, Inc.
 340 Quinnipiac St., Bldg. 40, Wallingford CT 06492
  
  
 ---------------------------------------------------------------
 Warning -- This program may not be used in any manner that
 competes with the business of Gaussian, Inc. or will provide
 assistance to any competitor of Gaussian, Inc.  The licensee
 of this program is prohibited from giving any competitor of
 Gaussian, Inc. access to this program.  By using this program,
 the user acknowledges that Gaussian, Inc. is engaged in the
 business of creating and licensing software in the field of
 computational chemistry and represents and warrants to the
 licensee that it is not a competitor of Gaussian, Inc. and that
 it will not use this program in any manner prohibited above.
 ---------------------------------------------------------------
  

 Cite this work as:
 Gaussian 16, Revision B.01,
 M. J. Frisch, G. W. Trucks, H. B. Schlegel, G. E. Scuseria, 
 M. A. Robb, J. R. Cheeseman, G. Scalmani, V. Barone, 
 G. A. Petersson, H. Nakatsuji, X. Li, M. Caricato, A. V. Marenich, 
 J. Bloino, B. G. Janesko, R. Gomperts, B. Mennucci, H. P. Hratchian, 
 J. V. Ortiz, A. F. Izmaylov, J. L. Sonnenberg, D. Williams-Young, 
 F. Ding, F. Lipparini, F. Egidi, J. Goings, B. Peng, A. Petrone, 
 T. Henderson, D. Ranasinghe, V. G. Zakrzewski, J. Gao, N. Rega, 
 G. Zheng, W. Liang, M. Hada, M. Ehara, K. Toyota, R. Fukuda, 
 J. Hasegawa, M. Ishida, T. Nakajima, Y. Honda, O. Kitao, H. Nakai, 
 T. Vreven, K. Throssell, J. A. Montgomery, Jr., J. E. Peralta, 
 F. Ogliaro, M. J. Bearpark, J. J. Heyd, E. N. Brothers, K. N. Kudin, 
 V. N. Staroverov, T. A. Keith, R. Kobayashi, J. Normand, 
 K. Raghavachari, A. P. Rendell, J. C. Burant, S. S. Iyengar, 
 J. Tomasi, M. Cossi, J. M. Millam, M. Klene, C. Adamo, R. Cammi, 
 J. W. Ochterski, R. L. Martin, K. Morokuma, O. Farkas, 
 J. B. Foresman, and D. J. Fox, Gaussian, Inc., Wallingford CT, 2016.
 
 ******************************************
 Gaussian 16:  ES64L-G16RevB.01 20-Dec-2017
                26-Oct-2021 
 ******************************************
 %nproc=28
 Will use up to   28 processors via shared memory.
 %mem=120GB
 %chk=/gscratch/ilahie/mccoygrp/coire_hocl/rOH_s_oop_0/ihod/ihod_rOH_100.chk
 --------------------------------------------------------
 #p pop=NBO SP NoSymm mp2/gen Pseudo=read density=current
 --------------------------------------------------------
 1/30=1,38=1,172=1/1;
 2/12=2,15=1,17=6,18=5,40=1/2;
 3/5=7,11=9,16=1,17=8,25=1,30=1,71=1/1,2,3;
 4//1;
 5/5=2,38=5/2;
 8/6=4,10=1/1;
 9/15=1,16=-3/6;
 10/5=1,13=10,31=1/2;
 6/7=2,8=2,9=2,10=2,22=-1,40=1/1,7;
 99/5=1,9=1/99;
 Leave Link    1 at Tue Oct 26 13:20:54 2021, MaxMem= 16106127360 cpu:               3.0 elap:               0.1
 (Enter /sw/contrib/gaussian/g16/B01/g16/l101.exe)
 -----
 title
 -----
 Symbolic Z-matrix:
 Charge = -1 Multiplicity = 1
 O
 X                    1     10. 
 H(iso=2)             1    r1       2     90. 
 I                    1    r2       2     90.      3    a1       0
 H                    1    r3       2    oop      3    a1       0
       Variables:
  r1                    0.96091                  
  r2                    3.5085                   
  r3                    1.                       
  a1                  101.85832                  
  OOP                  90.                       
 
 ITRead=  0  0  0  0
 MicOpt= -1 -1 -1 -1
 NAtoms=      4 NQM=        4 NQMF=       0 NMMI=      0 NMMIF=      0
                NMic=       0 NMicF=      0.
                    Isotopes and Nuclear Properties:
 (Nuclear quadrupole moments (NQMom) in fm**2, nuclear magnetic moments (NMagM)
  in nuclear magnetons)

  Atom         1           2           3           4
 IAtWgt=          16           2         127           1
 AtmWgt=  15.9949146   2.0141018 126.9004000   1.0078250
 NucSpn=           0           2           5           1
 AtZEff=  -0.0000000  -0.0000000  -0.0000000  -0.0000000
 NQMom=    0.0000000   0.2860000 -71.0000000   0.0000000
 NMagM=    0.0000000   0.8574380   2.8132800   2.7928460
 AtZNuc=   8.0000000   1.0000000  53.0000000   1.0000000
 Leave Link  101 at Tue Oct 26 13:20:54 2021, MaxMem= 16106127360 cpu:               2.2 elap:               0.1
 (Enter /sw/contrib/gaussian/g16/B01/g16/l202.exe)
                          Input orientation:                          
 ---------------------------------------------------------------------
 Center     Atomic      Atomic             Coordinates (Angstroms)
 Number     Number       Type             X           Y           Z
 ---------------------------------------------------------------------
      1          8           0        0.000000    0.000000    0.000000
      2          1           0        0.960908    0.000000    0.000000
      3         53           0       -0.720970   -3.433626    0.000000
      4          1           0       -0.205492   -0.978659    0.000000
 ---------------------------------------------------------------------
                    Distance matrix (angstroms):
                    1          2          3          4
     1  O    0.000000
     2  H    0.960908   0.000000
     3  I    3.508501   3.823414   0.000000
     4  H    1.000000   1.522584   2.508501   0.000000
 Symmetry turned off by external request.
 Stoichiometry    H2IO(1-)
 Framework group  CS[SG(H2IO)]
 Deg. of freedom     5
 Full point group                 CS      NOp   2
 Rotational constants (GHZ):         322.6790189           2.5126694           2.4932547
 Leave Link  202 at Tue Oct 26 13:20:54 2021, MaxMem= 16106127360 cpu:               0.4 elap:               0.0
 (Enter /sw/contrib/gaussian/g16/B01/g16/l301.exe)
 General basis read from cards:  (5D, 7F)
 Centers:       1      2      4
 aug-cc-pVTZ
 ****
 Centers:       3
 S 11 1.00
     Exponent=  5.5465000000D+03 Coefficients=  1.5600000000D-04
     Exponent=  8.3821400000D+02 Coefficients=  9.8600000000D-04
     Exponent=  1.8218700000D+02 Coefficients=  2.7920000000D-03
     Exponent=  3.1212300000D+01 Coefficients= -4.3251000000D-02
     Exponent=  1.9531400000D+01 Coefficients=  2.3413400000D-01
     Exponent=  8.2409900000D+00 Coefficients= -7.5094300000D-01
     Exponent=  2.1945500000D+00 Coefficients=  8.8296800000D-01
     Exponent=  1.1091100000D+00 Coefficients=  4.6206100000D-01
     Exponent=  3.7464100000D-01 Coefficients=  2.2286000000D-02
     Exponent=  1.7708000000D-01 Coefficients= -4.3530000000D-03
     Exponent=  8.1061000000D-02 Coefficients=  1.1020000000D-03
 S 11 1.00
     Exponent=  5.5465000000D+03 Coefficients= -7.3000000000D-05
     Exponent=  8.3821400000D+02 Coefficients= -5.0800000000D-04
     Exponent=  1.8218700000D+02 Coefficients= -1.1580000000D-03
     Exponent=  3.1212300000D+01 Coefficients=  1.2193000000D-02
     Exponent=  1.9531400000D+01 Coefficients= -8.7854000000D-02
     Exponent=  8.2409900000D+00 Coefficients=  3.3820000000D-01
     Exponent=  2.1945500000D+00 Coefficients= -5.7655000000D-01
     Exponent=  1.1091100000D+00 Coefficients= -4.0929800000D-01
     Exponent=  3.7464100000D-01 Coefficients=  5.6745900000D-01
     Exponent=  1.7708000000D-01 Coefficients=  6.1248900000D-01
     Exponent=  8.1061000000D-02 Coefficients=  1.4323100000D-01
 S 1 1.00
     Exponent=  3.7464100000D-01 Coefficients=  1.0000000000D+00
 S 1 1.00
     Exponent=  1.7708000000D-01 Coefficients=  1.0000000000D+00
 S 1 1.00
     Exponent=  1.0010000000D-01 Coefficients=  1.0000000000D+00
 S 1 1.00
     Exponent=  4.1200000000D-02 Coefficients=  1.0000000000D+00
 P 9 1.00
     Exponent=  1.8898800000D+02 Coefficients=  5.8500000000D-04
     Exponent=  2.1286800000D+01 Coefficients=  3.6923000000D-02
     Exponent=  1.0039600000D+01 Coefficients= -2.3532400000D-01
     Exponent=  3.4518000000D+00 Coefficients=  3.4148300000D-01
     Exponent=  1.9745600000D+00 Coefficients=  5.3478800000D-01
     Exponent=  1.0242000000D+00 Coefficients=  2.6514100000D-01
     Exponent=  4.4943700000D-01 Coefficients=  2.5787000000D-02
     Exponent=  1.8664800000D-01 Coefficients=  5.2200000000D-04
     Exponent=  7.3481000000D-02 Coefficients=  6.0600000000D-04
 P 9 1.00
     Exponent=  1.8898800000D+02 Coefficients= -2.5600000000D-04
     Exponent=  2.1286800000D+01 Coefficients= -1.1682000000D-02
     Exponent=  1.0039600000D+01 Coefficients=  8.3192000000D-02
     Exponent=  3.4518000000D+00 Coefficients= -1.5697000000D-01
     Exponent=  1.9745600000D+00 Coefficients= -2.2451800000D-01
     Exponent=  1.0242000000D+00 Coefficients= -1.1445100000D-01
     Exponent=  4.4943700000D-01 Coefficients=  3.7535600000D-01
     Exponent=  1.8664800000D-01 Coefficients=  5.7513600000D-01
     Exponent=  7.3481000000D-02 Coefficients=  2.4591700000D-01
 P 1 1.00
     Exponent=  5.9810000000D-01 Coefficients=  1.0000000000D+00
 P 1 1.00
     Exponent=  9.6180000000D-02 Coefficients=  1.0000000000D+00
 P 1 1.00
     Exponent=  3.5900000000D-02 Coefficients=  1.0000000000D+00
 D 9 1.00
     Exponent=  1.3266200000D+02 Coefficients=  5.7200000000D-04
     Exponent=  3.7605400000D+01 Coefficients=  4.4020000000D-03
     Exponent=  1.0389100000D+01 Coefficients= -4.0922000000D-02
     Exponent=  6.4901700000D+00 Coefficients=  9.9661000000D-02
     Exponent=  3.4545100000D+00 Coefficients=  3.2266300000D-01
     Exponent=  1.8441300000D+00 Coefficients=  4.0034300000D-01
     Exponent=  9.6247800000D-01 Coefficients=  2.6830600000D-01
     Exponent=  4.7285300000D-01 Coefficients=  8.4847000000D-02
     Exponent=  1.9320000000D-01 Coefficients=  7.6320000000D-03
 D 1 1.00
     Exponent=  4.7285300000D-01 Coefficients=  1.0000000000D+00
 D 1 1.00
     Exponent=  1.9320000000D-01 Coefficients=  1.0000000000D+00
 D 1 1.00
     Exponent=  7.8200000000D-02 Coefficients=  1.0000000000D+00
 F 1 1.00
     Exponent=  4.0640000000D-01 Coefficients=  1.0000000000D+00
 F 1 1.00
     Exponent=  1.8480000000D-01 Coefficients=  1.0000000000D+00
 ****
 ======================================================================================================
                                       Pseudopotential Parameters
 ======================================================================================================
  Center     Atomic      Valence      Angular      Power
  Number     Number     Electrons     Momentum     of R      Exponent        Coefficient   SO-Coeffient
 ======================================================================================================
    1          8
                                   No pseudopotential on this center.
    2          1
                                   No pseudopotential on this center.
    3         53           25
                                      G and up 
                                                     2        1.0000000        0.00000000    0.00000000
                                      S - G
                                                     2       40.0333760       49.98964900    0.00000000
                                                     2       17.3005760      281.00655600    0.00000000
                                                     2        8.8517200       61.41673900    0.00000000
                                      P - G
                                                     2       15.7201410       67.41623900    0.00000000
                                                     2       15.2082220      134.80769600    0.00000000
                                                     2        8.2941860       14.56654800    0.00000000
                                                     2        7.7539490       28.96842200    0.00000000
                                      D - G
                                                     2       13.8177510       35.53875600    0.00000000
                                                     2       13.5878050       53.33975900    0.00000000
                                                     2        6.9476300        9.71646600    0.00000000
                                                     2        6.9600990       14.97750000    0.00000000
                                      F - G
                                                     2       18.5229500      -20.17661800    0.00000000
                                                     2       18.2510350      -26.08807700    0.00000000
                                                     2        7.5579010       -0.22043400    0.00000000
                                                     2        7.5974040       -0.22164600    0.00000000
    4          1
                                   No pseudopotential on this center.
 ======================================================================================================
 Ernie: Thresh=  0.10000D-02 Tol=  0.10000D-05 Strict=F.
 Ernie:  10 primitive shells out of 113 were deleted.
   147 basis functions,   296 primitive gaussians,   170 cartesian basis functions
    18 alpha electrons       18 beta electrons
       nuclear repulsion energy        47.8859881537 Hartrees.
 IExCor=    0 DFT=F Ex=HF Corr=None ExCW=0 ScaHFX=  1.000000
 ScaDFX=  1.000000  1.000000  1.000000  1.000000 ScalE2=  1.000000  1.000000
 IRadAn=      5 IRanWt=     -1 IRanGd=            0 ICorTp=0 IEmpDi=  4
 NAtoms=    4 NActive=    4 NUniq=    4 SFac= 1.00D+00 NAtFMM=   60 NAOKFM=F Big=F
 Integral buffers will be    131072 words long.
 Raffenetti 1 integral format.
 Two-electron integral symmetry is turned off.
 Leave Link  301 at Tue Oct 26 13:20:54 2021, MaxMem= 16106127360 cpu:               4.4 elap:               0.2
 (Enter /sw/contrib/gaussian/g16/B01/g16/l302.exe)
 NPDir=0 NMtPBC=     1 NCelOv=     1 NCel=       1 NClECP=     1 NCelD=      1
         NCelK=      1 NCelE2=     1 NClLst=     1 CellRange=     0.0.
 One-electron integrals computed using PRISM.
   1 Symmetry operations used in ECPInt.
 ECPInt:  NShTT=    1225 NPrTT=    5557 LenC2=    1226 LenP2D=    4931.
 LDataN:  DoStor=T MaxTD1= 7 Len=  274
 NBasis=   147 RedAO= T EigKep=  2.84D-04  NBF=   147
 NBsUse=   147 1.00D-06 EigRej= -1.00D+00 NBFU=   147
 Leave Link  302 at Tue Oct 26 13:20:54 2021, MaxMem= 16106127360 cpu:               6.4 elap:               0.3
 (Enter /sw/contrib/gaussian/g16/B01/g16/l303.exe)
 DipDrv:  MaxL=1.
 Leave Link  303 at Tue Oct 26 13:20:54 2021, MaxMem= 16106127360 cpu:               0.7 elap:               0.0
 (Enter /sw/contrib/gaussian/g16/B01/g16/l401.exe)
 ExpMin= 2.53D-02 ExpMax= 1.53D+04 ExpMxC= 5.22D+02 IAcc=3 IRadAn=         5 AccDes= 0.00D+00
 Harris functional with IExCor=  205 and IRadAn=       5 diagonalized for initial guess.
 HarFok:  IExCor=  205 AccDes= 0.00D+00 IRadAn=         5 IDoV= 1 UseB2=F ITyADJ=14
 ICtDFT=  3500011 ScaDFX=  1.000000  1.000000  1.000000  1.000000
 Defaulting to unpruned grid for atomic number  53.
 FoFCou: FMM=F IPFlag=           0 FMFlag=      100000 FMFlg1=           0
         NFxFlg=           0 DoJE=T BraDBF=F KetDBF=T FulRan=T
         wScrn=  0.000000 ICntrl=       500 IOpCl=  0 I1Cent=   200000004 NGrid=           0
         NMat0=    1 NMatS0=      1 NMatT0=    0 NMatD0=    1 NMtDS0=    0 NMtDT0=    0
 Symmetry not used in FoFCou.
 Harris En= -372.681508315112    
 JPrj=0 DoOrth=F DoCkMO=F.
 Leave Link  401 at Tue Oct 26 13:20:54 2021, MaxMem= 16106127360 cpu:               6.4 elap:               0.3
 (Enter /sw/contrib/gaussian/g16/B01/g16/l502.exe)
 Keep R1 ints in memory in canonical form, NReq=117069207.
 FoFCou: FMM=F IPFlag=           0 FMFlag=           0 FMFlg1=           0
         NFxFlg=           0 DoJE=F BraDBF=F KetDBF=F FulRan=T
         wScrn=  0.000000 ICntrl=       600 IOpCl=  0 I1Cent=           0 NGrid=           0
         NMat0=    1 NMatS0=  10878 NMatT0=    0 NMatD0=    1 NMtDS0=    0 NMtDT0=    0
 Symmetry not used in FoFCou.
 Two-electron integral symmetry not used.
 Closed shell SCF:
 Using DIIS extrapolation, IDIIS=  1040.
 NGot= 16106127360 LenX= 16046892795 LenY= 16046863454
 Requested convergence on RMS density matrix=1.00D-08 within 128 cycles.
 Requested convergence on MAX density matrix=1.00D-06.
 Requested convergence on             energy=1.00D-06.
 No special actions if energy rises.

 Cycle   1  Pass 1  IDiag  1:
 E= -370.655109839754    
 DIIS: error= 4.01D-02 at cycle   1 NSaved=   1.
 NSaved= 1 IEnMin= 1 EnMin= -370.655109839754     IErMin= 1 ErrMin= 4.01D-02
 ErrMax= 4.01D-02  0.00D+00 EMaxC= 1.00D-01 BMatC= 3.70D-01 BMatP= 3.70D-01
 IDIUse=3 WtCom= 5.99D-01 WtEn= 4.01D-01
 Coeff-Com:  0.100D+01
 Coeff-En:   0.100D+01
 Coeff:      0.100D+01
 Gap=     0.402 Goal=   None    Shift=    0.000
 GapD=    0.402 DampG=2.000 DampE=0.500 DampFc=1.0000 IDamp=-1.
 RMSDP=3.70D-03 MaxDP=1.02D-01              OVMax= 1.27D-01

 Cycle   2  Pass 1  IDiag  1:
 E= -370.770889693674     Delta-E=       -0.115779853920 Rises=F Damp=F
 DIIS: error= 2.75D-02 at cycle   2 NSaved=   2.
 NSaved= 2 IEnMin= 2 EnMin= -370.770889693674     IErMin= 2 ErrMin= 2.75D-02
 ErrMax= 2.75D-02  0.00D+00 EMaxC= 1.00D-01 BMatC= 7.19D-02 BMatP= 3.70D-01
 IDIUse=3 WtCom= 7.25D-01 WtEn= 2.75D-01
 Coeff-Com:  0.270D+00 0.730D+00
 Coeff-En:   0.000D+00 0.100D+01
 Coeff:      0.196D+00 0.804D+00
 Gap=     0.270 Goal=   None    Shift=    0.000
 RMSDP=1.66D-03 MaxDP=7.14D-02 DE=-1.16D-01 OVMax= 7.59D-02

 Cycle   3  Pass 1  IDiag  1:
 E= -370.809826881763     Delta-E=       -0.038937188089 Rises=F Damp=F
 DIIS: error= 9.88D-03 at cycle   3 NSaved=   3.
 NSaved= 3 IEnMin= 3 EnMin= -370.809826881763     IErMin= 3 ErrMin= 9.88D-03
 ErrMax= 9.88D-03  0.00D+00 EMaxC= 1.00D-01 BMatC= 9.24D-03 BMatP= 7.19D-02
 IDIUse=3 WtCom= 9.01D-01 WtEn= 9.88D-02
 Coeff-Com: -0.248D-02 0.256D+00 0.746D+00
 Coeff-En:   0.000D+00 0.000D+00 0.100D+01
 Coeff:     -0.224D-02 0.231D+00 0.771D+00
 Gap=     0.274 Goal=   None    Shift=    0.000
 RMSDP=3.98D-04 MaxDP=1.91D-02 DE=-3.89D-02 OVMax= 2.06D-02

 Cycle   4  Pass 1  IDiag  1:
 E= -370.815500992049     Delta-E=       -0.005674110286 Rises=F Damp=F
 DIIS: error= 1.05D-03 at cycle   4 NSaved=   4.
 NSaved= 4 IEnMin= 4 EnMin= -370.815500992049     IErMin= 4 ErrMin= 1.05D-03
 ErrMax= 1.05D-03  0.00D+00 EMaxC= 1.00D-01 BMatC= 9.92D-05 BMatP= 9.24D-03
 IDIUse=3 WtCom= 9.90D-01 WtEn= 1.05D-02
 Coeff-Com: -0.773D-02-0.571D-02 0.892D-01 0.924D+00
 Coeff-En:   0.000D+00 0.000D+00 0.000D+00 0.100D+01
 Coeff:     -0.765D-02-0.565D-02 0.883D-01 0.925D+00
 Gap=     0.276 Goal=   None    Shift=    0.000
 RMSDP=9.98D-05 MaxDP=5.82D-03 DE=-5.67D-03 OVMax= 3.27D-03

 Cycle   5  Pass 1  IDiag  1:
 E= -370.815591431992     Delta-E=       -0.000090439943 Rises=F Damp=F
 DIIS: error= 1.41D-04 at cycle   5 NSaved=   5.
 NSaved= 5 IEnMin= 5 EnMin= -370.815591431992     IErMin= 5 ErrMin= 1.41D-04
 ErrMax= 1.41D-04  0.00D+00 EMaxC= 1.00D-01 BMatC= 4.71D-06 BMatP= 9.92D-05
 IDIUse=3 WtCom= 9.99D-01 WtEn= 1.41D-03
 Coeff-Com:  0.135D-02-0.161D-01-0.499D-01 0.159D-01 0.105D+01
 Coeff-En:   0.000D+00 0.000D+00 0.000D+00 0.000D+00 0.100D+01
 Coeff:      0.135D-02-0.160D-01-0.499D-01 0.159D-01 0.105D+01
 Gap=     0.275 Goal=   None    Shift=    0.000
 RMSDP=4.54D-05 MaxDP=1.53D-03 DE=-9.04D-05 OVMax= 1.45D-03

 Cycle   6  Pass 1  IDiag  1:
 E= -370.815601314231     Delta-E=       -0.000009882239 Rises=F Damp=F
 DIIS: error= 6.90D-05 at cycle   6 NSaved=   6.
 NSaved= 6 IEnMin= 6 EnMin= -370.815601314231     IErMin= 6 ErrMin= 6.90D-05
 ErrMax= 6.90D-05  0.00D+00 EMaxC= 1.00D-01 BMatC= 4.04D-07 BMatP= 4.71D-06
 IDIUse=1 WtCom= 1.00D+00 WtEn= 0.00D+00
 Coeff-Com:  0.107D-03 0.504D-02 0.644D-02-0.101D+00-0.207D+00 0.130D+01
 Coeff:      0.107D-03 0.504D-02 0.644D-02-0.101D+00-0.207D+00 0.130D+01
 Gap=     0.275 Goal=   None    Shift=    0.000
 RMSDP=1.39D-05 MaxDP=8.60D-04 DE=-9.88D-06 OVMax= 7.95D-04

 Cycle   7  Pass 1  IDiag  1:
 E= -370.815602610410     Delta-E=       -0.000001296178 Rises=F Damp=F
 DIIS: error= 9.97D-06 at cycle   7 NSaved=   7.
 NSaved= 7 IEnMin= 7 EnMin= -370.815602610410     IErMin= 7 ErrMin= 9.97D-06
 ErrMax= 9.97D-06  0.00D+00 EMaxC= 1.00D-01 BMatC= 1.44D-08 BMatP= 4.04D-07
 IDIUse=1 WtCom= 1.00D+00 WtEn= 0.00D+00
 Coeff-Com: -0.762D-04-0.541D-03 0.430D-03 0.281D-01-0.374D-02-0.324D+00
 Coeff-Com:  0.130D+01
 Coeff:     -0.762D-04-0.541D-03 0.430D-03 0.281D-01-0.374D-02-0.324D+00
 Coeff:      0.130D+01
 Gap=     0.275 Goal=   None    Shift=    0.000
 RMSDP=2.73D-06 MaxDP=1.23D-04 DE=-1.30D-06 OVMax= 1.40D-04

 Cycle   8  Pass 1  IDiag  1:
 E= -370.815602657553     Delta-E=       -0.000000047143 Rises=F Damp=F
 DIIS: error= 2.90D-06 at cycle   8 NSaved=   8.
 NSaved= 8 IEnMin= 8 EnMin= -370.815602657553     IErMin= 8 ErrMin= 2.90D-06
 ErrMax= 2.90D-06  0.00D+00 EMaxC= 1.00D-01 BMatC= 4.67D-10 BMatP= 1.44D-08
 IDIUse=1 WtCom= 1.00D+00 WtEn= 0.00D+00
 Coeff-Com:  0.235D-05-0.135D-03-0.207D-03 0.123D-02 0.718D-02-0.189D-01
 Coeff-Com: -0.113D+00 0.112D+01
 Coeff:      0.235D-05-0.135D-03-0.207D-03 0.123D-02 0.718D-02-0.189D-01
 Coeff:     -0.113D+00 0.112D+01
 Gap=     0.275 Goal=   None    Shift=    0.000
 RMSDP=4.70D-07 MaxDP=1.62D-05 DE=-4.71D-08 OVMax= 1.72D-05

 Cycle   9  Pass 1  IDiag  1:
 E= -370.815602658866     Delta-E=       -0.000000001313 Rises=F Damp=F
 DIIS: error= 5.02D-07 at cycle   9 NSaved=   9.
 NSaved= 9 IEnMin= 9 EnMin= -370.815602658866     IErMin= 9 ErrMin= 5.02D-07
 ErrMax= 5.02D-07  0.00D+00 EMaxC= 1.00D-01 BMatC= 3.56D-11 BMatP= 4.67D-10
 IDIUse=1 WtCom= 1.00D+00 WtEn= 0.00D+00
 Coeff-Com:  0.550D-05 0.446D-04-0.258D-04-0.206D-02-0.230D-04 0.231D-01
 Coeff-Com: -0.737D-01-0.137D+00 0.119D+01
 Coeff:      0.550D-05 0.446D-04-0.258D-04-0.206D-02-0.230D-04 0.231D-01
 Coeff:     -0.737D-01-0.137D+00 0.119D+01
 Gap=     0.275 Goal=   None    Shift=    0.000
 RMSDP=1.13D-07 MaxDP=5.29D-06 DE=-1.31D-09 OVMax= 5.94D-06

 Cycle  10  Pass 1  IDiag  1:
 E= -370.815602658972     Delta-E=       -0.000000000106 Rises=F Damp=F
 DIIS: error= 1.15D-07 at cycle  10 NSaved=  10.
 NSaved=10 IEnMin=10 EnMin= -370.815602658972     IErMin=10 ErrMin= 1.15D-07
 ErrMax= 1.15D-07  0.00D+00 EMaxC= 1.00D-01 BMatC= 2.51D-12 BMatP= 3.56D-11
 IDIUse=1 WtCom= 1.00D+00 WtEn= 0.00D+00
 Coeff-Com: -0.431D-06 0.102D-04 0.135D-04-0.103D-03-0.496D-03 0.173D-02
 Coeff-Com:  0.529D-02-0.671D-01 0.775D-02 0.105D+01
 Coeff:     -0.431D-06 0.102D-04 0.135D-04-0.103D-03-0.496D-03 0.173D-02
 Coeff:      0.529D-02-0.671D-01 0.775D-02 0.105D+01
 Gap=     0.275 Goal=   None    Shift=    0.000
 RMSDP=3.37D-08 MaxDP=1.72D-06 DE=-1.06D-10 OVMax= 1.17D-06

 Cycle  11  Pass 1  IDiag  1:
 E= -370.815602658979     Delta-E=       -0.000000000007 Rises=F Damp=F
 DIIS: error= 3.01D-08 at cycle  11 NSaved=  11.
 NSaved=11 IEnMin=11 EnMin= -370.815602658979     IErMin=11 ErrMin= 3.01D-08
 ErrMax= 3.01D-08  0.00D+00 EMaxC= 1.00D-01 BMatC= 1.75D-13 BMatP= 2.51D-12
 IDIUse=1 WtCom= 1.00D+00 WtEn= 0.00D+00
 Coeff-Com: -0.454D-06-0.314D-05 0.305D-05 0.164D-03-0.258D-04-0.171D-02
 Coeff-Com:  0.538D-02 0.122D-01-0.104D+00 0.116D-01 0.108D+01
 Coeff:     -0.454D-06-0.314D-05 0.305D-05 0.164D-03-0.258D-04-0.171D-02
 Coeff:      0.538D-02 0.122D-01-0.104D+00 0.116D-01 0.108D+01
 Gap=     0.275 Goal=   None    Shift=    0.000
 RMSDP=1.44D-08 MaxDP=8.79D-07 DE=-7.28D-12 OVMax= 5.50D-07

 Cycle  12  Pass 1  IDiag  1:
 E= -370.815602658980     Delta-E=       -0.000000000001 Rises=F Damp=F
 DIIS: error= 9.17D-09 at cycle  12 NSaved=  12.
 NSaved=12 IEnMin=12 EnMin= -370.815602658980     IErMin=12 ErrMin= 9.17D-09
 ErrMax= 9.17D-09  0.00D+00 EMaxC= 1.00D-01 BMatC= 7.53D-15 BMatP= 1.75D-13
 IDIUse=1 WtCom= 1.00D+00 WtEn= 0.00D+00
 Coeff-Com:  0.126D-06 0.266D-06-0.794D-06-0.323D-04 0.245D-04 0.294D-03
 Coeff-Com: -0.144D-02 0.137D-02 0.200D-01-0.586D-01-0.192D+00 0.123D+01
 Coeff:      0.126D-06 0.266D-06-0.794D-06-0.323D-04 0.245D-04 0.294D-03
 Coeff:     -0.144D-02 0.137D-02 0.200D-01-0.586D-01-0.192D+00 0.123D+01
 Gap=     0.275 Goal=   None    Shift=    0.000
 RMSDP=3.57D-09 MaxDP=2.16D-07 DE=-6.25D-13 OVMax= 1.08D-07

 SCF Done:  E(RHF) =  -370.815602659     A.U. after   12 cycles
            NFock= 12  Conv=0.36D-08     -V/T= 2.9850
 KE= 1.868116670119D+02 PE=-9.094145882809D+02 EE= 3.039013304563D+02
 Leave Link  502 at Tue Oct 26 13:20:57 2021, MaxMem= 16106127360 cpu:              32.3 elap:               2.1
 (Enter /sw/contrib/gaussian/g16/B01/g16/l801.exe)
 ExpMin= 2.53D-02 ExpMax= 1.53D+04 ExpMxC= 5.22D+02 IAcc=3 IRadAn=         5 AccDes= 0.00D+00
 HarFok:  IExCor=  205 AccDes= 0.00D+00 IRadAn=         5 IDoV=-2 UseB2=F ITyADJ=14
 ICtDFT= 12500011 ScaDFX=  1.000000  1.000000  1.000000  1.000000
 Defaulting to unpruned grid for atomic number  53.
 Largest valence mixing into a core orbital is  1.29D-04
 Largest core mixing into a valence orbital is  2.16D-05
 Range of M.O.s used for correlation:     6   147
 NBasis=   147 NAE=    18 NBE=    18 NFC=     5 NFV=     0
 NROrb=    142 NOA=    13 NOB=    13 NVA=   129 NVB=   129

 **** Warning!!: The largest alpha MO coefficient is  0.15492895D+02

 Leave Link  801 at Tue Oct 26 13:20:57 2021, MaxMem= 16106127360 cpu:               2.3 elap:               0.1
 (Enter /sw/contrib/gaussian/g16/B01/g16/l906.exe)
 Frozen-core derivative calculation, NFC=   5 NFV=   0.
 FulOut=F Deriv=T AODrv=F NAtomX=     4
   MMem=         225  MDisk=          13 MDiskD=          13
  W3Min=      449820 MinDsk=      818995 NBas6D=         170
 NBas2D=       14925    NTT=       14535    LW2=    26219120
    MDV= 16105851589 MDiskM=      473642 NBas2p=       14925
 Fully in-core method, ICMem=   303093605.
 IMap=   1   2   3   4   5   6   7   8   9  10  11  12  13  14  15  16  17  18
 JobTyp=1 Pass  1 fully in-core, NPsUse= 28.
 Compute canonical integrals.
 FoFCou: FMM=F IPFlag=           0 FMFlag=           0 FMFlg1=           0
         NFxFlg=           0 DoJE=F BraDBF=F KetDBF=F FulRan=T
         wScrn=  0.000000 ICntrl=       600 IOpCl=  1 I1Cent=           0 NGrid=           0
         NMat0=    1 NMatS0=  14925 NMatT0=    0 NMatD0=    1 NMtDS0=    0 NMtDT0=    0
 Symmetry not used in FoFCou.
 Spin components of T(2) and E(2):
     alpha-alpha T2 =       0.2173055650D-01 E2=     -0.6756606255D-01
     alpha-beta  T2 =       0.1136610645D+00 E2=     -0.3628149070D+00
     beta-beta   T2 =       0.2173055650D-01 E2=     -0.6756606255D-01
 The integrals were generated   1 times.
 ANorm=    0.1075696136D+01
 E2 =    -0.4979470321D+00 EUMP2 =    -0.37131354969106D+03
 Leave Link  906 at Tue Oct 26 13:21:00 2021, MaxMem= 16106127360 cpu:              83.2 elap:               3.0
 (Enter /sw/contrib/gaussian/g16/B01/g16/l1002.exe)
 Minotr:  Closed shell wavefunction.
          Computing MP2/KS-MP2 derivatives.
          Using Z-Vector for PSCF gradient.
          Skipping F1 and S1 gradient terms here.
          Frozen-core window.
          Direct CPHF calculation.
          Differentiating once with respect to electric field.
                with respect to dipole field.
          Electric field/nuclear overlap derivatives assumed to be zero.
          Requested convergence is 1.0D-10 RMS, and 1.0D-09 maximum.
          NewPWx=F KeepS1=T KeepF1=T KeepIn=T MapXYZ=F SortEE=F KeepMc=T.
 Keep R1 ints in memory in canonical form, NReq=117072027.
 FoFCou: FMM=F IPFlag=           0 FMFlag=           0 FMFlg1=           0
         NFxFlg=           0 DoJE=F BraDBF=F KetDBF=F FulRan=T
         wScrn=  0.000000 ICntrl=       600 IOpCl=  0 I1Cent=           0 NGrid=           0
         NMat0=    1 NMatS0=  10878 NMatT0=    0 NMatD0=    1 NMtDS0=    0 NMtDT0=    0
 Symmetry not used in FoFCou.
 Two-electron integral symmetry not used.
          MDV=   16106127360 using IRadAn=       5.
          Solving linear equations separately, MaxMat=       0.
          There are     1 degrees of freedom in the 1st order CPHF.  IDoFFX=0 NUNeed=     1.
 LinEq1:  Iter=  0 NonCon=     1 RMS=2.69D-03 Max=4.83D-02 NDo=     1
 AX will form     1 AO Fock derivatives at one time.
 LinEq1:  Iter=  1 NonCon=     1 RMS=4.35D-04 Max=5.43D-03 NDo=     1
 LinEq1:  Iter=  2 NonCon=     1 RMS=1.92D-04 Max=2.73D-03 NDo=     1
 LinEq1:  Iter=  3 NonCon=     1 RMS=4.55D-05 Max=7.25D-04 NDo=     1
 LinEq1:  Iter=  4 NonCon=     1 RMS=1.31D-05 Max=1.38D-04 NDo=     1
 LinEq1:  Iter=  5 NonCon=     1 RMS=3.53D-06 Max=4.60D-05 NDo=     1
 LinEq1:  Iter=  6 NonCon=     1 RMS=7.61D-07 Max=1.22D-05 NDo=     1
 LinEq1:  Iter=  7 NonCon=     1 RMS=1.68D-07 Max=2.44D-06 NDo=     1
 LinEq1:  Iter=  8 NonCon=     1 RMS=4.69D-08 Max=6.14D-07 NDo=     1
 LinEq1:  Iter=  9 NonCon=     1 RMS=9.25D-09 Max=1.50D-07 NDo=     1
 LinEq1:  Iter= 10 NonCon=     1 RMS=1.50D-09 Max=2.00D-08 NDo=     1
 LinEq1:  Iter= 11 NonCon=     1 RMS=2.66D-10 Max=4.37D-09 NDo=     1
 LinEq1:  Iter= 12 NonCon=     1 RMS=7.50D-11 Max=1.25D-09 NDo=     1
 LinEq1:  Iter= 13 NonCon=     0 RMS=1.48D-11 Max=1.68D-10 NDo=     1
 Linear equations converged to 1.000D-10 1.000D-09 after    13 iterations.
 End of Minotr F.D. properties file   721 does not exist.
 End of Minotr F.D. properties file   722 does not exist.
 End of Minotr F.D. properties file   788 does not exist.
 Leave Link 1002 at Tue Oct 26 13:21:02 2021, MaxMem= 16106127360 cpu:              33.1 elap:               2.4
 (Enter /sw/contrib/gaussian/g16/B01/g16/l601.exe)
 Copying SCF densities to generalized density rwf, IOpCl= 0 IROHF=0.

 **********************************************************************

            Population analysis using the MP2 Density.

 **********************************************************************

 Alpha  occ. eigenvalues --  -20.40274  -7.46757  -5.29314  -5.29285  -5.29281
 Alpha  occ. eigenvalues --   -2.02060  -2.02043  -2.02037  -2.02007  -2.02007
 Alpha  occ. eigenvalues --   -1.17944  -0.62940  -0.53573  -0.42580  -0.34515
 Alpha  occ. eigenvalues --   -0.14848  -0.14293  -0.14256
 Alpha virt. eigenvalues --    0.13245   0.16989   0.23325   0.24543   0.25226
 Alpha virt. eigenvalues --    0.27014   0.28858   0.29263   0.31258   0.33676
 Alpha virt. eigenvalues --    0.36668   0.37197   0.37576   0.39558   0.40942
 Alpha virt. eigenvalues --    0.42054   0.44445   0.47595   0.53936   0.54318
 Alpha virt. eigenvalues --    0.57072   0.59786   0.66826   0.71535   0.77754
 Alpha virt. eigenvalues --    0.77809   0.78526   0.79747   0.79971   0.80018
 Alpha virt. eigenvalues --    0.82781   0.84124   0.85364   0.85762   0.86605
 Alpha virt. eigenvalues --    0.87709   0.88366   0.88873   0.89942   0.90522
 Alpha virt. eigenvalues --    0.93224   0.97190   1.00869   1.05834   1.06907
 Alpha virt. eigenvalues --    1.09481   1.10595   1.12251   1.14500   1.15965
 Alpha virt. eigenvalues --    1.16508   1.19037   1.32558   1.36306   1.38205
 Alpha virt. eigenvalues --    1.42297   1.48514   1.52426   1.55042   1.67694
 Alpha virt. eigenvalues --    1.72649   1.73337   1.75125   1.75197   1.76864
 Alpha virt. eigenvalues --    1.77839   1.81189   1.85085   1.88640   1.89335
 Alpha virt. eigenvalues --    2.03368   2.04393   2.05564   2.07317   2.10647
 Alpha virt. eigenvalues --    2.10694   2.15302   2.29859   2.44207   2.52552
 Alpha virt. eigenvalues --    2.56010   2.60416   2.60915   2.63867   2.64801
 Alpha virt. eigenvalues --    2.82054   2.89197   2.89250   2.97453   3.01829
 Alpha virt. eigenvalues --    3.06795   3.26669   3.28237   3.76073   3.87120
 Alpha virt. eigenvalues --    4.19961   4.24910   4.31414   4.31765   4.42689
 Alpha virt. eigenvalues --    4.42973   4.53947   4.56856   4.59291   4.74060
 Alpha virt. eigenvalues --    4.93959   5.11364   5.25611   5.32825   5.44605
 Alpha virt. eigenvalues --    5.48655   5.64367   5.79681   6.36224   6.69325
 Alpha virt. eigenvalues --    6.87915   7.07982   7.26349   7.41268   7.42672
 Alpha virt. eigenvalues --    7.45408   7.53152   7.57510   7.79959   8.04253
 Alpha virt. eigenvalues --    8.09534   8.90375  15.92793  59.22128
          Condensed to atoms (all electrons):
               1          2          3          4
     1  O    8.285995   0.211084  -0.058238   0.093906
     2  H    0.211084   0.601019   0.006665   0.012396
     3  I   -0.058238   0.006665  25.921968   0.036659
     4  H    0.093906   0.012396   0.036659   0.586072
 Mulliken charges:
               1
     1  O   -0.532748
     2  H    0.168836
     3  I   -0.907054
     4  H    0.270967
 Sum of Mulliken charges =  -1.00000
 Mulliken charges with hydrogens summed into heavy atoms:
               1
     1  O   -0.092946
     3  I   -0.907054
 Electronic spatial extent (au):  <R**2>=           1235.7443
 Charge=             -1.0000 electrons
 Dipole moment (field-independent basis, Debye):
    X=              4.1353    Y=             13.5808    Z=             -0.0000  Tot=             14.1965
 Quadrupole moment (field-independent basis, Debye-Ang):
   XX=            -41.3708   YY=            -91.4874   ZZ=            -41.8860
   XY=             -9.8532   XZ=             -0.0000   YZ=              0.0000
 Traceless Quadrupole moment (field-independent basis, Debye-Ang):
   XX=             16.8772   YY=            -33.2393   ZZ=             16.3621
   XY=             -9.8532   XZ=             -0.0000   YZ=              0.0000
 Octapole moment (field-independent basis, Debye-Ang**2):
  XXX=             74.2293  YYY=            522.5620  ZZZ=             -0.0000  XYY=             58.7116
  XXY=            123.5344  XXZ=             -0.0000  XZZ=             23.6061  YZZ=            116.3301
  YYZ=             -0.0000  XYZ=             -0.0000
 Hexadecapole moment (field-independent basis, Debye-Ang**3):
 XXXX=           -180.2017 YYYY=          -3048.5068 ZZZZ=            -76.2596 XXXY=           -253.7653
 XXXZ=              0.0000 YYYX=           -367.3757 YYYZ=              0.0000 ZZZX=             -0.0000
 ZZZY=              0.0000 XXYY=           -464.9481 XXZZ=            -42.9434 YYZZ=           -423.3485
 XXYZ=              0.0000 YYXZ=              0.0000 ZZXY=            -82.9780
 N-N= 4.788598815372D+01 E-N=-9.088490811917D+02  KE= 1.870043948921D+02
 No NMR shielding tensors so no spin-rotation constants.
 Leave Link  601 at Tue Oct 26 13:21:02 2021, MaxMem= 16106127360 cpu:               4.0 elap:               0.2
 (Enter /sw/contrib/gaussian/g16/B01/g16/l607.exe)
 ******************************Gaussian NBO Version 3.1******************************
             N A T U R A L   A T O M I C   O R B I T A L   A N D
          N A T U R A L   B O N D   O R B I T A L   A N A L Y S I S
 ******************************Gaussian NBO Version 3.1******************************
       /RESON  / : Allow strongly delocalized NBO set

 Analyzing the MP2 density

 Job title: title                                                           

 Storage needed:     65577 in NPA,     86948 in NBO (********** available)
 GSVD:  LWork=       -1281 too small for GESVD, short by       46116 words or       46116 for optimal perf.


 NATURAL POPULATIONS:  Natural atomic orbital occupancies 
                                                          
   NAO  Atom  No  lang   Type(AO)    Occupancy
 --------------------------------------------
     1    O    1  S      Cor( 1S)     1.99968
     2    O    1  S      Val( 2S)     1.74563
     3    O    1  S      Ryd( 3S)     0.00651
     4    O    1  S      Ryd( 4S)     0.00055
     5    O    1  S      Ryd( 5S)     0.00023
     6    O    1  px     Val( 2p)     1.52552
     7    O    1  px     Ryd( 3p)     0.01006
     8    O    1  px     Ryd( 4p)     0.00057
     9    O    1  px     Ryd( 5p)     0.00008
    10    O    1  py     Val( 2p)     1.65555
    11    O    1  py     Ryd( 3p)     0.01184
    12    O    1  py     Ryd( 4p)     0.00065
    13    O    1  py     Ryd( 5p)     0.00013
    14    O    1  pz     Val( 2p)     1.95330
    15    O    1  pz     Ryd( 3p)     0.02197
    16    O    1  pz     Ryd( 4p)     0.00061
    17    O    1  pz     Ryd( 5p)     0.00000
    18    O    1  dxy    Ryd( 3d)     0.00858
    19    O    1  dxy    Ryd( 4d)     0.00050
    20    O    1  dxy    Ryd( 5d)     0.00012
    21    O    1  dxz    Ryd( 3d)     0.00951
    22    O    1  dxz    Ryd( 4d)     0.00093
    23    O    1  dxz    Ryd( 5d)     0.00018
    24    O    1  dyz    Ryd( 3d)     0.00764
    25    O    1  dyz    Ryd( 4d)     0.00048
    26    O    1  dyz    Ryd( 5d)     0.00014
    27    O    1  dx2y2  Ryd( 3d)     0.01236
    28    O    1  dx2y2  Ryd( 4d)     0.00030
    29    O    1  dx2y2  Ryd( 5d)     0.00015
    30    O    1  dz2    Ryd( 3d)     0.00898
    31    O    1  dz2    Ryd( 4d)     0.00047
    32    O    1  dz2    Ryd( 5d)     0.00012
    33    O    1  f(0)   Ryd( 4f)     0.00087
    34    O    1  f(0)   Ryd( 5f)     0.00015
    35    O    1  f(C1)  Ryd( 4f)     0.00055
    36    O    1  f(C1)  Ryd( 5f)     0.00008
    37    O    1  f(S1)  Ryd( 4f)     0.00062
    38    O    1  f(S1)  Ryd( 5f)     0.00009
    39    O    1  f(C2)  Ryd( 4f)     0.00054
    40    O    1  f(C2)  Ryd( 5f)     0.00011
    41    O    1  f(S2)  Ryd( 4f)     0.00046
    42    O    1  f(S2)  Ryd( 5f)     0.00007
    43    O    1  f(C3)  Ryd( 4f)     0.00041
    44    O    1  f(C3)  Ryd( 5f)     0.00012
    45    O    1  f(S3)  Ryd( 4f)     0.00048
    46    O    1  f(S3)  Ryd( 5f)     0.00013

    47    H    2  S      Val( 1S)     0.54610
    48    H    2  S      Ryd( 2S)     0.00170
    49    H    2  S      Ryd( 3S)     0.00040
    50    H    2  S      Ryd( 4S)     0.00014
    51    H    2  px     Ryd( 3p)     0.00026
    52    H    2  px     Ryd( 2p)     0.00072
    53    H    2  px     Ryd( 4p)     0.00016
    54    H    2  py     Ryd( 2p)     0.00054
    55    H    2  py     Ryd( 3p)     0.00017
    56    H    2  py     Ryd( 4p)     0.00007
    57    H    2  pz     Ryd( 2p)     0.00140
    58    H    2  pz     Ryd( 3p)     0.00016
    59    H    2  pz     Ryd( 4p)     0.00005
    60    H    2  dxy    Ryd( 3d)     0.00011
    61    H    2  dxy    Ryd( 4d)     0.00006
    62    H    2  dxz    Ryd( 3d)     0.00037
    63    H    2  dxz    Ryd( 4d)     0.00008
    64    H    2  dyz    Ryd( 3d)     0.00011
    65    H    2  dyz    Ryd( 4d)     0.00005
    66    H    2  dx2y2  Ryd( 3d)     0.00012
    67    H    2  dx2y2  Ryd( 4d)     0.00005
    68    H    2  dz2    Ryd( 3d)     0.00013
    69    H    2  dz2    Ryd( 4d)     0.00006

    70    I    3  S      Cor( 4S)     2.00001
    71    I    3  S      Val( 5S)     1.97739
    72    I    3  S      Ryd( 6S)     0.00286
    73    I    3  S      Ryd( 7S)     0.00054
    74    I    3  S      Ryd( 8S)     0.00007
    75    I    3  S      Ryd( 9S)     0.00000
    76    I    3  px     Cor( 4p)     2.00006
    77    I    3  px     Val( 5p)     1.94949
    78    I    3  px     Ryd( 6p)     0.01094
    79    I    3  px     Ryd( 7p)     0.00074
    80    I    3  px     Ryd( 8p)     0.00008
    81    I    3  py     Cor( 4p)     1.99998
    82    I    3  py     Val( 5p)     1.91218
    83    I    3  py     Ryd( 6p)     0.00973
    84    I    3  py     Ryd( 7p)     0.00066
    85    I    3  py     Ryd( 8p)     0.00017
    86    I    3  pz     Cor( 4p)     2.00006
    87    I    3  pz     Val( 5p)     1.95162
    88    I    3  pz     Ryd( 6p)     0.01094
    89    I    3  pz     Ryd( 7p)     0.00074
    90    I    3  pz     Ryd( 8p)     0.00008
    91    I    3  dxy    Cor( 4d)     1.99674
    92    I    3  dxy    Ryd( 5d)     0.02020
    93    I    3  dxy    Ryd( 6d)     0.00142
    94    I    3  dxy    Ryd( 7d)     0.00018
    95    I    3  dxz    Cor( 4d)     1.99678
    96    I    3  dxz    Ryd( 5d)     0.02015
    97    I    3  dxz    Ryd( 6d)     0.00166
    98    I    3  dxz    Ryd( 7d)     0.00016
    99    I    3  dyz    Cor( 4d)     1.99676
   100    I    3  dyz    Ryd( 5d)     0.02022
   101    I    3  dyz    Ryd( 6d)     0.00140
   102    I    3  dyz    Ryd( 7d)     0.00018
   103    I    3  dx2y2  Cor( 4d)     1.99669
   104    I    3  dx2y2  Ryd( 5d)     0.01981
   105    I    3  dx2y2  Ryd( 6d)     0.00159
   106    I    3  dx2y2  Ryd( 7d)     0.00019
   107    I    3  dz2    Cor( 4d)     1.99675
   108    I    3  dz2    Ryd( 5d)     0.02003
   109    I    3  dz2    Ryd( 6d)     0.00165
   110    I    3  dz2    Ryd( 7d)     0.00018
   111    I    3  f(0)   Ryd( 4f)     0.00273
   112    I    3  f(0)   Ryd( 5f)     0.00043
   113    I    3  f(C1)  Ryd( 4f)     0.00276
   114    I    3  f(C1)  Ryd( 5f)     0.00043
   115    I    3  f(S1)  Ryd( 4f)     0.00276
   116    I    3  f(S1)  Ryd( 5f)     0.00045
   117    I    3  f(C2)  Ryd( 4f)     0.00271
   118    I    3  f(C2)  Ryd( 5f)     0.00043
   119    I    3  f(S2)  Ryd( 4f)     0.00277
   120    I    3  f(S2)  Ryd( 5f)     0.00044
   121    I    3  f(C3)  Ryd( 4f)     0.00269
   122    I    3  f(C3)  Ryd( 5f)     0.00044
   123    I    3  f(S3)  Ryd( 4f)     0.00272
   124    I    3  f(S3)  Ryd( 5f)     0.00044

   125    H    4  S      Val( 1S)     0.49350
   126    H    4  S      Ryd( 2S)     0.00658
   127    H    4  S      Ryd( 3S)     0.00043
   128    H    4  S      Ryd( 4S)     0.00012
   129    H    4  px     Ryd( 2p)     0.00378
   130    H    4  px     Ryd( 3p)     0.00038
   131    H    4  px     Ryd( 4p)     0.00011
   132    H    4  py     Ryd( 2p)     0.00390
   133    H    4  py     Ryd( 3p)     0.00053
   134    H    4  py     Ryd( 4p)     0.00022
   135    H    4  pz     Ryd( 2p)     0.00415
   136    H    4  pz     Ryd( 3p)     0.00041
   137    H    4  pz     Ryd( 4p)     0.00010
   138    H    4  dxy    Ryd( 3d)     0.00023
   139    H    4  dxy    Ryd( 4d)     0.00009
   140    H    4  dxz    Ryd( 3d)     0.00017
   141    H    4  dxz    Ryd( 4d)     0.00007
   142    H    4  dyz    Ryd( 3d)     0.00024
   143    H    4  dyz    Ryd( 4d)     0.00009
   144    H    4  dx2y2  Ryd( 3d)     0.00024
   145    H    4  dx2y2  Ryd( 4d)     0.00009
   146    H    4  dz2    Ryd( 3d)     0.00019
   147    H    4  dz2    Ryd( 4d)     0.00007

 [ 28 electrons found in the effective core potential]

 WARNING:  5 low occupancy (<1.9990e) core orbitals found on  I    3


 Summary of Natural Population Analysis:                  
                                                          
                                       Natural Population 
                Natural  -----------------------------------------------
    Atom  No    Charge         Core      Valence    Rydberg      Total
 -----------------------------------------------------------------------
      O    1   -0.98802      1.99968     6.88000    0.10834     8.98802
      H    2    0.44698      0.00000     0.54610    0.00692     0.55302
      I    3   -0.94327     45.98384     7.79067    0.16876    53.94327
      H    4    0.48428      0.00000     0.49350    0.02221     0.51572
 =======================================================================
   * Total *   -1.00003     47.98352    15.71028    0.30624    64.00003

                                 Natural Population      
 --------------------------------------------------------
   Effective Core            28.00000
   Core                      19.98352 ( 99.9176% of  20)
   Valence                   15.71028 ( 98.1892% of  16)
   Natural Minimal Basis     63.69379 ( 99.5216% of  64)
   Natural Rydberg Basis      0.30624 (  0.4785% of  64)
 --------------------------------------------------------

    Atom  No          Natural Electron Configuration
 ----------------------------------------------------------------------------
      O    1      [core]2S( 1.75)2p( 5.13)3S( 0.01)3p( 0.04)3d( 0.05)
      H    2            1S( 0.55)
      I    3      [core]5S( 1.98)5p( 5.81)4f( 0.02)5d( 0.10)6p( 0.03)6d( 0.01)
      H    4            1S( 0.49)2S( 0.01)2p( 0.01)


 NATURAL BOND ORBITAL ANALYSIS:
 Warning:  a bond orbital has occupanc of -0.00010

                       Occupancies       Lewis Structure    Low   High
           Occ.    -------------------  -----------------   occ   occ
  Cycle   Thresh.   Lewis   Non-Lewis     CR  BD  3C  LP    (L)   (NL)   Dev
 =============================================================================
   1(1)    1.90    63.63912   0.36088     10   2   0   6     0      0    0.06
 -----------------------------------------------------------------------------

 Structure accepted: No low occupancy Lewis orbitals

 WARNING:  5 low occupancy (<1.9990e) core orbitals found on  I    3

 --------------------------------------------------------
   Effective Core           28.00000
   Core                     19.98352 ( 99.918% of  20)
   Valence Lewis            15.65560 ( 97.848% of  16)
  ==================       ============================
   Total Lewis              63.63912 ( 99.436% of  64)
  -----------------------------------------------------
   Valence non-Lewis         0.08349 (  0.130% of  64)
   Rydberg non-Lewis         0.27739 (  0.433% of  64)
  ==================       ============================
   Total non-Lewis           0.36088 (  0.564% of  64)
 --------------------------------------------------------


       (Occupancy)   Bond orbital/ Coefficients/ Hybrids
 ---------------------------------------------------------------------------------
     1. (1.96599) BD ( 1) O   1 - H   2  
                ( 72.99%)   0.8543* O   1 s( 21.26%)p 3.68( 78.28%)d 0.02(  0.45%)
                                                  f 0.00(  0.01%)
                                            0.0002  0.4610 -0.0092  0.0004 -0.0043
                                            0.8825 -0.0343  0.0084 -0.0016  0.0504
                                           -0.0148  0.0017 -0.0038  0.0000  0.0000
                                            0.0000  0.0000 -0.0198  0.0019  0.0018
                                            0.0000  0.0000  0.0000  0.0000  0.0000
                                            0.0000  0.0534 -0.0040  0.0039 -0.0344
                                            0.0012 -0.0000  0.0000  0.0000 -0.0095
                                           -0.0003 -0.0002 -0.0000  0.0000  0.0000
                                            0.0000  0.0000  0.0031  0.0033  0.0017
                                           -0.0003
                ( 27.01%)   0.5197* H   2 s( 99.89%)p 0.00(  0.10%)d 0.00(  0.01%)
                                            0.9994  0.0036 -0.0003  0.0001 -0.0002
                                            0.0311 -0.0041  0.0017 -0.0014 -0.0011
                                            0.0000  0.0000  0.0000  0.0012 -0.0024
                                            0.0000  0.0000  0.0000  0.0000  0.0074
                                           -0.0022 -0.0058  0.0005
     2. (1.96683) BD ( 1) O   1 - H   4  
                ( 77.34%)   0.8794* O   1 s( 25.30%)p 2.93( 74.26%)d 0.02(  0.42%)
                                                  f 0.00(  0.01%)
                                           -0.0003 -0.5030  0.0019  0.0008  0.0010
                                            0.2124 -0.0188  0.0005  0.0016  0.8348
                                           -0.0141  0.0081 -0.0044  0.0000  0.0000
                                            0.0000  0.0000  0.0049 -0.0056  0.0034
                                            0.0000  0.0000  0.0000  0.0000  0.0000
                                            0.0000  0.0533 -0.0037 -0.0004  0.0360
                                           -0.0010 -0.0032  0.0000  0.0000 -0.0022
                                            0.0001 -0.0100  0.0006  0.0000  0.0000
                                            0.0000  0.0000 -0.0031 -0.0016  0.0006
                                           -0.0038
                ( 22.66%)   0.4760* H   4 s( 99.90%)p 0.00(  0.10%)d 0.00(  0.00%)
                                           -0.9992 -0.0248 -0.0006  0.0007 -0.0176
                                           -0.0007 -0.0003  0.0061 -0.0236 -0.0088
                                            0.0000  0.0000  0.0000 -0.0006  0.0031
                                            0.0000  0.0000  0.0000  0.0000 -0.0054
                                            0.0017  0.0024  0.0010
     3. (1.99968) CR ( 1) O   1           s(100.00%)
                                            1.0000 -0.0004  0.0000  0.0000  0.0000
                                           -0.0001  0.0000 -0.0000  0.0000  0.0001
                                           -0.0000  0.0000 -0.0000  0.0000  0.0000
                                            0.0000  0.0000 -0.0000 -0.0000  0.0000
                                            0.0000  0.0000  0.0000  0.0000  0.0000
                                            0.0000  0.0000 -0.0000 -0.0000  0.0000
                                           -0.0000 -0.0000  0.0000  0.0000  0.0000
                                            0.0000 -0.0000 -0.0000  0.0000  0.0000
                                            0.0000  0.0000 -0.0000 -0.0000 -0.0000
                                           -0.0000
     4. (2.00001) CR ( 1) I   3           s(100.00%)p 0.00(  0.00%)
                                            1.0000  0.0000 -0.0000 -0.0000  0.0000
                                            0.0000 -0.0000  0.0000  0.0000 -0.0000
                                           -0.0000 -0.0000  0.0002 -0.0000 -0.0000
                                            0.0000  0.0000  0.0000  0.0000  0.0000
                                            0.0000 -0.0000  0.0000 -0.0000 -0.0000
                                            0.0000  0.0000  0.0000  0.0000  0.0000
                                            0.0000  0.0000  0.0000  0.0000 -0.0000
                                            0.0000  0.0000  0.0000 -0.0000  0.0000
                                            0.0000  0.0000  0.0000 -0.0000 -0.0000
                                           -0.0000 -0.0000  0.0000  0.0000  0.0000
                                            0.0000 -0.0000 -0.0000 -0.0000 -0.0000
     5. (2.00006) CR ( 2) I   3           s(  0.00%)p 1.00(100.00%)
                                           -0.0000  0.0000  0.0000 -0.0000  0.0000
                                           -0.0000  1.0000 -0.0001 -0.0000 -0.0000
                                            0.0000 -0.0000  0.0001 -0.0000 -0.0000
                                            0.0000  0.0000  0.0000  0.0000  0.0000
                                            0.0000 -0.0000 -0.0000  0.0000  0.0000
                                            0.0000  0.0000  0.0000  0.0000  0.0000
                                            0.0000  0.0000  0.0000  0.0000 -0.0000
                                            0.0000  0.0000  0.0000 -0.0000  0.0000
                                            0.0000  0.0000  0.0000  0.0000  0.0000
                                           -0.0000 -0.0000  0.0000  0.0000  0.0000
                                            0.0000  0.0000  0.0000 -0.0000 -0.0000
     6. (1.99998) CR ( 3) I   3           s(  0.00%)p 1.00(100.00%)
                                           -0.0000  0.0001 -0.0000 -0.0000  0.0000
                                            0.0000 -0.0000  0.0001  0.0000 -0.0000
                                           -0.0000  1.0000  0.0003 -0.0000 -0.0000
                                            0.0000  0.0000  0.0000  0.0000  0.0000
                                            0.0000 -0.0000  0.0000 -0.0000 -0.0000
                                            0.0000  0.0000  0.0000  0.0000  0.0000
                                            0.0000  0.0000  0.0000  0.0000 -0.0000
                                            0.0000  0.0000  0.0000 -0.0000  0.0000
                                            0.0000  0.0000  0.0000 -0.0000 -0.0000
                                           -0.0000 -0.0000  0.0000  0.0000  0.0000
                                            0.0000 -0.0000 -0.0000 -0.0000 -0.0000
     7. (2.00006) CR ( 4) I   3           s(  0.00%)p 1.00(100.00%)
                                            0.0000  0.0000  0.0000  0.0000  0.0000
                                            0.0000  0.0000  0.0000  0.0000  0.0000
                                            0.0000  0.0000  0.0000  0.0000  0.0000
                                            0.0000  1.0000 -0.0002 -0.0000 -0.0000
                                            0.0000  0.0000  0.0000  0.0000  0.0000
                                            0.0000 -0.0000  0.0000 -0.0000  0.0000
                                           -0.0000  0.0000  0.0000  0.0000  0.0000
                                            0.0000  0.0000  0.0000  0.0000  0.0000
                                            0.0000  0.0000  0.0000  0.0000  0.0000
                                            0.0000  0.0000  0.0000  0.0000 -0.0000
                                           -0.0000  0.0000  0.0000  0.0000  0.0000
     8. (1.99674) CR ( 5) I   3           s(  0.00%)p 0.00(  0.00%)d 1.00(100.00%)
                                           -0.0000  0.0000 -0.0000 -0.0000  0.0000
                                            0.0000 -0.0000  0.0000  0.0000 -0.0000
                                           -0.0000 -0.0000  0.0001 -0.0000 -0.0000
                                            0.0000  0.0000  0.0000  0.0000  0.0000
                                            0.0000  1.0000  0.0000 -0.0000 -0.0000
                                            0.0000  0.0000  0.0000  0.0000  0.0000
                                            0.0000  0.0000  0.0000  0.0000 -0.0000
                                            0.0000  0.0000  0.0000 -0.0000  0.0000
                                            0.0000  0.0000  0.0000 -0.0000 -0.0000
                                           -0.0000 -0.0000  0.0000  0.0000  0.0000
                                            0.0000 -0.0000 -0.0000 -0.0000 -0.0000
     9. (1.99678) CR ( 6) I   3           s(  0.00%)p 0.00(  0.00%)d 1.00(100.00%)
                                            0.0000  0.0000  0.0000  0.0000  0.0000
                                            0.0000  0.0000  0.0000  0.0000  0.0000
                                            0.0000  0.0000  0.0000  0.0000  0.0000
                                            0.0000  0.0000  0.0000  0.0000  0.0000
                                           -0.0000  0.0000  0.0000  0.0000  0.0000
                                            1.0000  0.0000 -0.0000  0.0000 -0.0000
                                            0.0000 -0.0000 -0.0000  0.0000  0.0000
                                            0.0000  0.0000  0.0000  0.0000  0.0000
                                            0.0000 -0.0000 -0.0000  0.0000  0.0000
                                            0.0000  0.0000 -0.0000 -0.0000  0.0000
                                            0.0000  0.0000  0.0000  0.0000  0.0000
    10. (1.99676) CR ( 7) I   3           s(  0.00%)p 0.00(  0.00%)d 1.00(100.00%)
                                            0.0000  0.0000  0.0000  0.0000  0.0000
                                            0.0000  0.0000  0.0000  0.0000  0.0000
                                            0.0000  0.0000  0.0000  0.0000  0.0000
                                            0.0000  0.0000  0.0000  0.0000  0.0000
                                           -0.0000  0.0000  0.0000  0.0000  0.0000
                                           -0.0000  0.0000 -0.0000  0.0000  1.0000
                                            0.0000 -0.0000 -0.0000  0.0000  0.0000
                                            0.0000  0.0000  0.0000  0.0000  0.0000
                                            0.0000 -0.0000 -0.0000  0.0000  0.0000
                                            0.0000  0.0000 -0.0000 -0.0000  0.0000
                                            0.0000  0.0000  0.0000  0.0000  0.0000
    11. (1.99669) CR ( 8) I   3           s(  0.00%)p 0.00(  0.00%)d 1.00(100.00%)
                                            0.0000 -0.0001  0.0000  0.0000 -0.0000
                                           -0.0000  0.0000 -0.0001 -0.0000  0.0000
                                            0.0000  0.0000 -0.0003  0.0000  0.0000
                                           -0.0000  0.0000  0.0000  0.0000  0.0000
                                            0.0000  0.0000 -0.0000  0.0000  0.0000
                                            0.0000  0.0000  0.0000  0.0000  0.0000
                                            0.0000  0.0000  0.0000  1.0000  0.0000
                                           -0.0000 -0.0000 -0.0000  0.0000 -0.0000
                                           -0.0000  0.0000  0.0000  0.0000  0.0000
                                            0.0000  0.0000  0.0000  0.0000  0.0000
                                            0.0000  0.0000  0.0000  0.0000  0.0000
    12. (1.99675) CR ( 9) I   3           s(  0.00%)p 0.00(  0.00%)d 1.00(100.00%)
                                            0.0000 -0.0001  0.0000  0.0000 -0.0000
                                           -0.0000  0.0000 -0.0000 -0.0000  0.0000
                                            0.0000  0.0000 -0.0002  0.0000  0.0000
                                           -0.0000  0.0000  0.0000  0.0000  0.0000
                                            0.0000  0.0000 -0.0000  0.0000  0.0000
                                            0.0000  0.0000  0.0000  0.0000  0.0000
                                            0.0000  0.0000  0.0000 -0.0000  0.0000
                                           -0.0000 -0.0000  1.0000  0.0000 -0.0000
                                           -0.0000  0.0000  0.0000  0.0000  0.0000
                                            0.0000  0.0000  0.0000  0.0000  0.0000
                                            0.0000  0.0000  0.0000  0.0000  0.0000
    13. (1.97006) LP ( 1) O   1           s( 53.35%)p 0.87( 46.52%)d 0.00(  0.12%)
                                                  f 0.00(  0.00%)
                                            0.0002  0.7304  0.0046  0.0004  0.0021
                                           -0.4116 -0.0022  0.0032 -0.0011  0.5438
                                            0.0095 -0.0043 -0.0003  0.0000  0.0000
                                            0.0000  0.0000  0.0307 -0.0039 -0.0024
                                            0.0000  0.0000  0.0000  0.0000  0.0000
                                            0.0000  0.0064  0.0002 -0.0033  0.0136
                                           -0.0022  0.0016  0.0000  0.0000  0.0021
                                           -0.0004 -0.0038  0.0014  0.0000  0.0000
                                            0.0000  0.0000  0.0012 -0.0003  0.0033
                                           -0.0022
    14. (1.96115) LP ( 2) O   1           s(  0.00%)p 1.00( 99.70%)d 0.00(  0.27%)
                                                  f 0.00(  0.03%)
                                            0.0000  0.0000  0.0000  0.0000  0.0000
                                            0.0000  0.0000  0.0000  0.0000  0.0000
                                            0.0000  0.0000  0.0000  0.9980  0.0315
                                           -0.0070  0.0032  0.0000  0.0000  0.0000
                                            0.0405 -0.0131  0.0074 -0.0284  0.0005
                                            0.0058  0.0000  0.0000  0.0000  0.0000
                                            0.0000  0.0000 -0.0140  0.0053  0.0000
                                            0.0000  0.0000  0.0000  0.0046 -0.0032
                                            0.0023 -0.0004  0.0000  0.0000  0.0000
                                            0.0000
    15. (1.97940) LP ( 1) I   3           s( 97.19%)p 0.03(  2.81%)d 0.00(  0.00%)
                                                  f 0.00(  0.00%)
                                            0.0000  0.9859  0.0002  0.0003 -0.0002
                                           -0.0000 -0.0000 -0.0325  0.0003 -0.0001
                                            0.0002 -0.0001 -0.1643  0.0005 -0.0006
                                            0.0001  0.0000  0.0000  0.0000  0.0000
                                            0.0000 -0.0000  0.0004 -0.0002 -0.0001
                                            0.0000  0.0000  0.0000  0.0000  0.0000
                                            0.0000  0.0000  0.0000  0.0000 -0.0008
                                            0.0003  0.0001  0.0000 -0.0006  0.0003
                                            0.0001  0.0000  0.0000 -0.0001 -0.0001
                                           -0.0005 -0.0003  0.0000  0.0000  0.0000
                                            0.0000 -0.0003 -0.0002 -0.0004 -0.0002
    16. (1.95171) LP ( 2) I   3           s(  0.00%)p 1.00(100.00%)d 0.00(  0.00%)
                                                  f 0.00(  0.00%)
                                            0.0000  0.0000  0.0000  0.0000  0.0000
                                            0.0000  0.0000  0.0000  0.0000  0.0000
                                            0.0000  0.0000  0.0000  0.0000  0.0000
                                            0.0000  0.0002  1.0000  0.0009  0.0010
                                           -0.0000  0.0000  0.0000  0.0000  0.0000
                                           -0.0000  0.0025 -0.0012  0.0008 -0.0000
                                            0.0046 -0.0007 -0.0017  0.0000  0.0000
                                            0.0000  0.0000  0.0000  0.0000  0.0000
                                            0.0000 -0.0017 -0.0012  0.0000  0.0000
                                            0.0000  0.0000 -0.0016 -0.0008  0.0011
                                            0.0009  0.0000  0.0000  0.0000  0.0000
    17. (1.95150) LP ( 3) I   3           s(  0.00%)p 1.00( 99.99%)d 0.00(  0.00%)
                                                  f 0.00(  0.00%)
                                           -0.0000  0.0033  0.0009 -0.0021  0.0019
                                           -0.0001 -0.0002 -0.9770 -0.0022 -0.0015
                                            0.0007  0.0000  0.2130 -0.0008 -0.0004
                                            0.0007 -0.0000 -0.0000 -0.0000 -0.0000
                                           -0.0000  0.0000 -0.0052  0.0007  0.0013
                                           -0.0000 -0.0000 -0.0000 -0.0000 -0.0000
                                           -0.0000 -0.0000 -0.0000  0.0000 -0.0040
                                            0.0014 -0.0004 -0.0000  0.0009 -0.0007
                                            0.0009 -0.0000 -0.0000  0.0008  0.0006
                                           -0.0001  0.0000 -0.0000 -0.0000 -0.0000
                                           -0.0000  0.0016  0.0007 -0.0019 -0.0013
    18. (1.90898) LP ( 4) I   3           s(  2.80%)p34.65( 97.16%)d 0.01(  0.03%)
                                                  f 0.00(  0.00%)
                                           -0.0002  0.1674 -0.0012 -0.0016  0.0013
                                            0.0002 -0.0001  0.2105  0.0003 -0.0003
                                           -0.0003 -0.0003  0.9630 -0.0031 -0.0025
                                            0.0007  0.0000  0.0000  0.0000  0.0000
                                            0.0000 -0.0001  0.0074 -0.0010 -0.0002
                                            0.0000  0.0000  0.0000  0.0000  0.0000
                                            0.0000  0.0000  0.0000  0.0003 -0.0123
                                            0.0014  0.0017  0.0002 -0.0090  0.0015
                                            0.0003  0.0000  0.0000 -0.0008 -0.0004
                                           -0.0037 -0.0019  0.0000  0.0000  0.0000
                                            0.0000 -0.0026 -0.0007 -0.0035 -0.0014
    19. (0.02045) RY*( 1) O   1           s(  0.00%)p 1.00( 97.53%)d 0.02(  2.39%)
                                                  f 0.00(  0.08%)
                                            0.0000  0.0000  0.0000  0.0000  0.0000
                                            0.0000  0.0000  0.0000  0.0000  0.0000
                                            0.0000  0.0000  0.0000 -0.0392  0.9861
                                            0.0334 -0.0190  0.0000  0.0000  0.0000
                                            0.1343 -0.0358  0.0178 -0.0643  0.0110
                                            0.0020  0.0000  0.0000  0.0000  0.0000
                                            0.0000  0.0000 -0.0191  0.0162  0.0000
                                            0.0000  0.0000  0.0000  0.0097 -0.0075
                                           -0.0022 -0.0008  0.0000  0.0000  0.0000
                                            0.0000
    20. (0.01567) RY*( 2) O   1           s( 21.20%)p 3.56( 75.42%)d 0.15(  3.24%)
                                                  f 0.01(  0.14%)
                                            0.0000 -0.0093  0.4603  0.0072 -0.0047
                                            0.0090 -0.4627 -0.0133  0.0043 -0.0103
                                            0.7344  0.0112 -0.0151  0.0000  0.0000
                                            0.0000  0.0000  0.1754 -0.0202 -0.0019
                                            0.0000  0.0000  0.0000  0.0000  0.0000
                                            0.0000  0.0112  0.0022 -0.0078  0.0293
                                           -0.0117  0.0028  0.0000  0.0000  0.0005
                                           -0.0009 -0.0008  0.0047  0.0000  0.0000
                                            0.0000  0.0000  0.0228 -0.0078  0.0248
                                           -0.0123
    21. (0.00730) RY*( 3) O   1           s(  7.25%)p 8.96( 64.95%)d 3.76( 27.26%)
                                                  f 0.07(  0.54%)
                                            0.0000  0.0033  0.2645 -0.0461  0.0193
                                           -0.0575 -0.6399 -0.0208 -0.0107 -0.0287
                                           -0.4848 -0.0207 -0.0049 -0.0000 -0.0000
                                           -0.0000 -0.0000 -0.3726  0.0024 -0.0131
                                           -0.0000 -0.0000 -0.0000 -0.0000 -0.0000
                                           -0.0000  0.3540  0.0643 -0.0317  0.0540
                                            0.0123 -0.0002 -0.0000 -0.0000 -0.0293
                                            0.0108 -0.0044 -0.0027 -0.0000 -0.0000
                                           -0.0000 -0.0000  0.0083 -0.0060 -0.0609
                                            0.0246
    22. (0.00633) RY*( 4) O   1           s(  0.00%)p 1.00(  0.34%)d99.99( 98.43%)
                                                  f 3.64(  1.23%)
                                            0.0000  0.0000  0.0000  0.0000  0.0000
                                            0.0000  0.0000  0.0000  0.0000  0.0000
                                            0.0000  0.0000  0.0000 -0.0089 -0.0566
                                           -0.0096 -0.0017  0.0000  0.0000  0.0000
                                            0.7354  0.0577 -0.0164  0.6613  0.0505
                                           -0.0094  0.0000  0.0000  0.0000  0.0000
                                            0.0000  0.0000  0.0014 -0.0023  0.0000
                                            0.0000  0.0000  0.0000  0.1015 -0.0414
                                           -0.0149  0.0071  0.0000  0.0000  0.0000
                                            0.0000
    23. (0.00629) RY*( 5) O   1           s( 12.62%)p 0.77(  9.74%)d 6.08( 76.68%)
                                                  f 0.08(  0.96%)
                                           -0.0000  0.0149  0.3544  0.0190 -0.0033
                                            0.0188  0.2758  0.0186 -0.0093  0.0347
                                            0.1387  0.0048 -0.0096  0.0000  0.0000
                                            0.0000  0.0000 -0.7681 -0.0405  0.0143
                                            0.0000  0.0000  0.0000  0.0000  0.0000
                                            0.0000 -0.3905 -0.0305  0.0101  0.1445
                                            0.0238 -0.0108  0.0000  0.0000 -0.0006
                                            0.0072  0.0302 -0.0140  0.0000  0.0000
                                            0.0000  0.0000 -0.0867  0.0270 -0.0125
                                           -0.0027
    24. (0.00592) RY*( 6) O   1           s(  0.00%)p 1.00(  2.05%)d47.49( 97.15%)
                                                  f 0.39(  0.80%)
                                            0.0000  0.0000  0.0000  0.0000  0.0000
                                            0.0000  0.0000  0.0000  0.0000  0.0000
                                            0.0000  0.0000  0.0000  0.0430  0.1358
                                            0.0105  0.0072  0.0000  0.0000  0.0000
                                           -0.6483 -0.0737  0.0214  0.7350  0.0706
                                           -0.0058  0.0000  0.0000  0.0000  0.0000
                                            0.0000  0.0000  0.0744 -0.0296  0.0000
                                            0.0000  0.0000  0.0000  0.0020 -0.0031
                                            0.0379 -0.0134  0.0000  0.0000  0.0000
                                            0.0000
    25. (0.00569) RY*( 7) O   1           s(  6.78%)p 0.84(  5.70%)d12.82( 86.90%)
                                                  f 0.09(  0.63%)
                                           -0.0000  0.0209  0.2594 -0.0058 -0.0018
                                            0.0353  0.1670  0.0159 -0.0080 -0.0391
                                           -0.1599 -0.0164 -0.0124  0.0000  0.0000
                                            0.0000  0.0000  0.2857  0.0278 -0.0058
                                            0.0000  0.0000  0.0000  0.0000  0.0000
                                            0.0000  0.0565  0.0076  0.0034  0.8789
                                            0.1040 -0.0092  0.0000  0.0000  0.0525
                                           -0.0195 -0.0517  0.0205  0.0000  0.0000
                                            0.0000  0.0000  0.0032 -0.0016  0.0026
                                            0.0015
    26. (0.00334) RY*( 8) O   1           s( 17.18%)p 1.12( 19.17%)d 3.64( 62.59%)
                                                  f 0.06(  1.06%)
                                           -0.0000 -0.0062  0.4144  0.0010  0.0067
                                            0.0317 -0.1260  0.0241 -0.0431  0.0282
                                           -0.4075 -0.0322 -0.0673 -0.0000 -0.0000
                                           -0.0000 -0.0000  0.3587  0.0683 -0.0040
                                           -0.0000 -0.0000 -0.0000 -0.0000 -0.0000
                                           -0.0000 -0.6526 -0.0519 -0.0494 -0.2448
                                           -0.0382 -0.0081 -0.0000 -0.0000  0.0214
                                           -0.0112  0.0450 -0.0302 -0.0000 -0.0000
                                           -0.0000 -0.0000  0.0037 -0.0116  0.0766
                                           -0.0329
    27. (0.00231) RY*( 9) O   1           s( 33.60%)p 0.76( 25.42%)d 1.20( 40.37%)
                                                  f 0.02(  0.61%)
                                            0.0000 -0.0055  0.5770  0.0122 -0.0538
                                           -0.0146  0.4911  0.0596 -0.0011 -0.0084
                                           -0.0718 -0.0320 -0.0549  0.0000  0.0000
                                            0.0000  0.0000  0.1011  0.0410 -0.0174
                                            0.0000  0.0000  0.0000  0.0000  0.0000
                                            0.0000  0.4995  0.1127  0.0797 -0.3320
                                           -0.1043 -0.0434  0.0000  0.0000 -0.0171
                                            0.0353  0.0142 -0.0093  0.0000  0.0000
                                            0.0000  0.0000  0.0443 -0.0447 -0.0186
                                            0.0007
    28. (0.00079) RY*(10) O   1           s( 55.77%)p 0.65( 36.52%)d 0.12(  6.64%)
                                                  f 0.02(  1.07%)
                                            0.0000 -0.0044 -0.0347  0.7459  0.0071
                                           -0.0004 -0.0385  0.0005 -0.0541  0.0002
                                           -0.0004 -0.5941 -0.0889  0.0000  0.0000
                                            0.0000  0.0000 -0.0251  0.0487 -0.0796
                                            0.0000  0.0000  0.0000  0.0000  0.0000
                                            0.0000  0.0200 -0.0756  0.1042  0.0326
                                           -0.1403  0.1391  0.0000  0.0000  0.0177
                                            0.0024  0.0317  0.0342  0.0000  0.0000
                                            0.0000  0.0000  0.0196  0.0376  0.0703
                                            0.0384
    29. (0.00056) RY*(11) O   1           s(  0.00%)p 1.00(  7.59%)d10.01( 76.02%)
                                                  f 2.16( 16.39%)
                                            0.0000  0.0000  0.0000  0.0000  0.0000
                                            0.0000  0.0000  0.0000  0.0000  0.0000
                                            0.0000  0.0000  0.0000  0.0145  0.0589
                                           -0.2679  0.0221  0.0000  0.0000  0.0000
                                           -0.0342  0.7953  0.0218  0.0374 -0.3531
                                            0.0005  0.0000  0.0000  0.0000  0.0000
                                            0.0000  0.0000  0.3054 -0.0367  0.0000
                                            0.0000  0.0000  0.0000 -0.2344  0.0336
                                            0.1144  0.0094  0.0000  0.0000  0.0000
                                            0.0000
    30. (0.00053) RY*(12) O   1           s(  0.71%)p54.77( 38.82%)d67.61( 47.92%)
                                                  f17.71( 12.55%)
                                            0.0000 -0.0055 -0.0402 -0.0358  0.0645
                                           -0.0058 -0.0309  0.6053 -0.0805  0.0070
                                            0.0557 -0.1058 -0.0054  0.0000  0.0000
                                            0.0000  0.0000 -0.0026  0.5577  0.0218
                                            0.0000  0.0000  0.0000  0.0000  0.0000
                                            0.0000  0.0082  0.1170  0.0013 -0.0342
                                            0.3900  0.0260  0.0000  0.0000 -0.0129
                                            0.0079  0.2199  0.0009  0.0000  0.0000
                                            0.0000  0.0000 -0.2090  0.0117 -0.1815
                                            0.0125
    31. (0.00054) RY*(13) O   1           s(  0.00%)p 1.00( 62.91%)d 0.44( 27.69%)
                                                  f 0.15(  9.40%)
                                            0.0000  0.0000  0.0000  0.0000  0.0000
                                            0.0000  0.0000  0.0000  0.0000  0.0000
                                            0.0000  0.0000  0.0000  0.0104 -0.0162
                                            0.7857  0.1066  0.0000  0.0000  0.0000
                                            0.0122  0.3276  0.0499 -0.0130  0.4060
                                            0.0445  0.0000  0.0000  0.0000  0.0000
                                            0.0000  0.0000  0.0542  0.0059  0.0000
                                            0.0000  0.0000  0.0000 -0.2983  0.0190
                                            0.0409 -0.0056  0.0000  0.0000  0.0000
                                            0.0000
    32. (0.00046) RY*(14) O   1           s(  1.63%)p 7.01( 11.40%)d 3.64(  5.93%)
                                                  f49.82( 81.05%)
                                           -0.0000  0.0034  0.0050  0.1272 -0.0069
                                            0.0060  0.0094 -0.2773  0.0227  0.0081
                                            0.0034  0.1876  0.0346  0.0000  0.0000
                                            0.0000  0.0000  0.0165  0.1558  0.0258
                                            0.0000  0.0000  0.0000  0.0000  0.0000
                                            0.0000 -0.0239 -0.0764 -0.0112  0.0412
                                           -0.1602  0.0129  0.0000  0.0000  0.1945
                                            0.0102  0.5812  0.0490  0.0000  0.0000
                                            0.0000  0.0000  0.2617  0.0180 -0.6029
                                           -0.0072
    33. (0.00045) RY*(15) O   1           s(  0.00%)p 1.00(  7.73%)d 0.95(  7.32%)
                                                  f10.99( 84.95%)
                                            0.0000  0.0000  0.0000  0.0000  0.0000
                                            0.0000  0.0000  0.0000  0.0000  0.0000
                                            0.0000  0.0000  0.0000 -0.0004 -0.0100
                                            0.2666  0.0780  0.0000  0.0000  0.0000
                                            0.0128 -0.0823 -0.0211 -0.0395 -0.2347
                                           -0.0959  0.0000  0.0000  0.0000  0.0000
                                            0.0000  0.0000  0.2449  0.0350  0.0000
                                            0.0000  0.0000  0.0000  0.4554  0.0351
                                            0.7579  0.0729  0.0000  0.0000  0.0000
                                            0.0000
    34. (0.00044) RY*(16) O   1           s(  2.72%)p 5.43( 14.79%)d 7.77( 21.17%)
                                                  f22.52( 61.32%)
                                            0.0000  0.0007 -0.0192  0.0891  0.1375
                                           -0.0065 -0.0204  0.2070 -0.0648 -0.0077
[...]
                                           -0.0219  0.1331  0.1484 -0.0067  0.8037
                                           -0.0024 -0.0054 -0.5500  0.0420 -0.0204
                                            0.0000  0.0000  0.0000 -0.0643  0.0092
                                            0.0000  0.0000  0.0000  0.0000  0.0450
                                            0.0105 -0.0519  0.0060
   127. (0.00261) RY*( 4) H   4           s( 24.25%)p 3.08( 74.77%)d 0.04(  0.99%)
                                           -0.0095  0.4207  0.2512  0.0481 -0.5541
                                            0.0254 -0.0104 -0.6279  0.2117 -0.0278
                                           -0.0000 -0.0000 -0.0000  0.0382 -0.0399
                                           -0.0000 -0.0000 -0.0000 -0.0000  0.0373
                                            0.0543  0.0428  0.0254
   128. (0.00043) RY*( 5) H   4           s( 10.79%)p 7.70( 83.09%)d 0.57(  6.12%)
                                            0.0009 -0.0265  0.2703 -0.1847  0.0099
                                            0.8963 -0.1191  0.0957 -0.0600  0.0221
                                            0.0000  0.0000  0.0000 -0.0417  0.1141
                                            0.0000  0.0000  0.0000  0.0000  0.2001
                                            0.0497  0.0422  0.0464
   129. (0.00034) RY*( 6) H   4           s(  0.00%)p 1.00( 79.78%)d 0.25( 20.22%)
                                            0.0000  0.0000  0.0000  0.0000  0.0000
                                            0.0000  0.0000  0.0000  0.0000  0.0000
                                           -0.1339  0.8788  0.0873  0.0000  0.0000
                                            0.1764 -0.0287  0.3925  0.1273  0.0000
                                            0.0000  0.0000  0.0000
   130. (0.00033) RY*( 7) H   4           s(  3.09%)p16.36( 50.52%)d15.02( 46.39%)
                                            0.0011 -0.1002  0.0845  0.1170  0.0338
                                           -0.1258 -0.1489  0.1279  0.2522 -0.6214
                                            0.0000  0.0000  0.0000 -0.2462 -0.1752
                                            0.0000  0.0000  0.0000  0.0000  0.4072
                                            0.2562  0.3106  0.2115
   131. (0.00027) RY*( 8) H   4           s(  1.80%)p 6.76( 12.16%)d47.86( 86.05%)
                                           -0.0007  0.0147 -0.0291  0.1301 -0.0091
                                            0.0773 -0.2654  0.0148  0.1832  0.1062
                                           -0.0000 -0.0000 -0.0000 -0.6819  0.1406
                                           -0.0000 -0.0000 -0.0000 -0.0000 -0.5841
                                            0.1056  0.1527 -0.0129
   132. (0.00023) RY*( 9) H   4           s(  0.00%)p 1.00( 26.27%)d 2.81( 73.73%)
                                            0.0000  0.0000  0.0000  0.0000  0.0000
                                            0.0000  0.0000  0.0000  0.0000  0.0000
                                            0.1116 -0.4022  0.2975  0.0000  0.0000
                                            0.1675 -0.0795  0.8299 -0.1193  0.0000
                                            0.0000  0.0000  0.0000
   133. (0.00021) RY*(10) H   4           s( 46.58%)p 1.01( 46.86%)d 0.14(  6.55%)
                                           -0.0114 -0.1098  0.6207 -0.2616  0.0651
                                           -0.2133  0.1774  0.2383  0.4952  0.2923
                                            0.0000  0.0000  0.0000  0.0437  0.0029
                                            0.0000  0.0000  0.0000  0.0000 -0.0199
                                           -0.1704  0.1843 -0.0159
   134. (0.00017) RY*(11) H   4           s(  7.09%)p 7.07( 50.13%)d 6.04( 42.78%)
                                            0.0147  0.0262  0.2588 -0.0548 -0.0765
                                           -0.2068  0.0673 -0.0659 -0.6597  0.0932
                                            0.0000  0.0000  0.0000 -0.3673  0.1287
                                            0.0000  0.0000  0.0000  0.0000  0.2478
                                           -0.2344  0.3860 -0.1047
   135. (0.00016) RY*(12) H   4           s(  0.00%)p 1.00(  0.79%)d99.99( 99.21%)
                                            0.0000  0.0000  0.0000  0.0000  0.0000
                                            0.0000  0.0000  0.0000  0.0000  0.0000
                                           -0.0346 -0.0811  0.0107  0.0000  0.0000
                                            0.9558  0.1457 -0.2279 -0.0729  0.0000
                                            0.0000  0.0000  0.0000
   136. (0.00015) RY*(13) H   4           s(  1.93%)p 2.23(  4.29%)d48.66( 93.78%)
                                           -0.0039 -0.0210  0.1022 -0.0915 -0.0856
                                           -0.1045 -0.1006  0.0495  0.0557  0.0949
                                           -0.0000 -0.0000 -0.0000 -0.4662 -0.1447
                                           -0.0000 -0.0000 -0.0000 -0.0000  0.3553
                                           -0.0372 -0.7412 -0.1500
   137. (0.00011) RY*(14) H   4           s(  0.00%)p 1.00( 60.40%)d 0.66( 39.60%)
                                            0.0000  0.0000  0.0000  0.0000  0.0000
                                            0.0000  0.0000  0.0000  0.0000  0.0000
                                           -0.0266 -0.0655  0.7740  0.0000  0.0000
                                           -0.0207 -0.0086 -0.2174  0.5901  0.0000
                                            0.0000  0.0000  0.0000
   138. (0.00010) RY*(15) H   4           s(  0.43%)p99.99( 51.75%)d99.99( 47.82%)
                                            0.0018  0.0043 -0.0266  0.0596 -0.0248
                                            0.0230  0.6886  0.0109  0.0840 -0.1874
                                            0.0000  0.0000  0.0000 -0.1539  0.6051
                                            0.0000  0.0000  0.0000  0.0000  0.0384
                                            0.2601 -0.1264 -0.0566
   139. (0.00010) RY*(16) H   4           s( 86.60%)p 0.05(  4.28%)d 0.11(  9.11%)
   140. (0.00006) RY*(17) H   4           s(  0.00%)p 1.00(  1.47%)d66.89( 98.53%)
   141. (0.00007) RY*(18) H   4           s( 19.59%)p 1.22( 23.83%)d 2.89( 56.59%)
   142. (0.00005) RY*(19) H   4           s(  5.83%)p 0.59(  3.47%)d15.57( 90.71%)
   143. (0.00004) RY*(20) H   4           s(  0.00%)p 1.00( 32.13%)d 2.11( 67.87%)
   144. (0.00004) RY*(21) H   4           s(  3.45%)p11.00( 37.91%)d17.02( 58.64%)
   145. (0.00003) RY*(22) H   4           s(  6.58%)p 6.11( 40.20%)d 8.09( 53.22%)
   146. (0.02140) BD*( 1) O   1 - H   2  
                ( 27.01%)   0.5197* O   1 s( 21.26%)p 3.68( 78.28%)d 0.02(  0.45%)
                                                  f 0.00(  0.01%)
                                           -0.0002 -0.4610  0.0092 -0.0004  0.0043
                                           -0.8825  0.0343 -0.0084  0.0016 -0.0504
                                            0.0148 -0.0017  0.0038 -0.0000 -0.0000
                                           -0.0000 -0.0000  0.0198 -0.0019 -0.0018
                                           -0.0000 -0.0000 -0.0000 -0.0000 -0.0000
                                           -0.0000 -0.0534  0.0040 -0.0039  0.0344
                                           -0.0012  0.0000 -0.0000 -0.0000  0.0095
                                            0.0003  0.0002  0.0000 -0.0000 -0.0000
                                           -0.0000 -0.0000 -0.0031 -0.0033 -0.0017
                                            0.0003
                ( 72.99%)  -0.8543* H   2 s( 99.89%)p 0.00(  0.10%)d 0.00(  0.01%)
                                           -0.9994 -0.0036  0.0003 -0.0001  0.0002
                                           -0.0311  0.0041 -0.0017  0.0014  0.0011
                                           -0.0000 -0.0000 -0.0000 -0.0012  0.0024
                                           -0.0000 -0.0000 -0.0000 -0.0000 -0.0074
                                            0.0022  0.0058 -0.0005
   147. (0.06210) BD*( 1) O   1 - H   4  
                ( 22.66%)   0.4760* O   1 s( 25.30%)p 2.93( 74.26%)d 0.02(  0.42%)
                                                  f 0.00(  0.01%)
                                            0.0003  0.5030 -0.0019 -0.0008 -0.0010
                                           -0.2124  0.0188 -0.0005 -0.0016 -0.8348
                                            0.0141 -0.0081  0.0044 -0.0000 -0.0000
                                           -0.0000 -0.0000 -0.0049  0.0056 -0.0034
                                           -0.0000 -0.0000 -0.0000 -0.0000 -0.0000
                                           -0.0000 -0.0533  0.0037  0.0004 -0.0360
                                            0.0010  0.0032 -0.0000 -0.0000  0.0022
                                           -0.0001  0.0100 -0.0006 -0.0000 -0.0000
                                           -0.0000 -0.0000  0.0031  0.0016 -0.0006
                                            0.0038
                ( 77.34%)  -0.8794* H   4 s( 99.90%)p 0.00(  0.10%)d 0.00(  0.00%)
                                            0.9992  0.0248  0.0006 -0.0007  0.0176
                                            0.0007  0.0003 -0.0061  0.0236  0.0088
                                           -0.0000 -0.0000 -0.0000  0.0006 -0.0031
                                           -0.0000 -0.0000 -0.0000 -0.0000  0.0054
                                           -0.0017 -0.0024 -0.0010


 NHO Directionality and "Bond Bending" (deviations from line of nuclear centers)

         [Thresholds for printing:  angular deviation  >  1.0 degree]
                                    hybrid p-character > 25.0%
                                    orbital occupancy  >  0.10e

                                Line of Centers        Hybrid 1              Hybrid 2
                                ---------------  -------------------   ------------------
                NBO               Theta   Phi    Theta   Phi    Dev    Theta   Phi    Dev
 ========================================================================================
     1. BD (   1) O   1 - H   2    90.0    0.0    90.0    2.2   2.2      --     --    --
     2. BD (   1) O   1 - H   4    90.0  258.1    90.0  256.6   1.5      --     --    --
    13. LP (   1) O   1             --     --     90.0  126.9   --       --     --    --
    14. LP (   2) O   1             --     --      0.0    0.0   --       --     --    --
    16. LP (   2) I   3             --     --      0.0    0.0   --       --     --    --
    17. LP (   3) I   3             --     --     90.0  167.8   --       --     --    --
    18. LP (   4) I   3             --     --     90.0   77.6   --       --     --    --


 Natural Bond Orbitals (Summary):

           NBO                  Occupancy  
 -----------------------------------------------
 Molecular unit  1  (H2O)
     1. BD (   1) O   1 - H   2          1.96599
     2. BD (   1) O   1 - H   4          1.96683
     3. CR (   1) O   1                  1.99968
    13. LP (   1) O   1                  1.97006
    14. LP (   2) O   1                  1.96115
    19. RY*(   1) O   1                  0.02045
    20. RY*(   2) O   1                  0.01567
    21. RY*(   3) O   1                  0.00730
    22. RY*(   4) O   1                  0.00633
    23. RY*(   5) O   1                  0.00629
    24. RY*(   6) O   1                  0.00592
    25. RY*(   7) O   1                  0.00569
    26. RY*(   8) O   1                  0.00334
    27. RY*(   9) O   1                  0.00231
    28. RY*(  10) O   1                  0.00079
    29. RY*(  11) O   1                  0.00056
    30. RY*(  12) O   1                  0.00053
    31. RY*(  13) O   1                  0.00054
    32. RY*(  14) O   1                  0.00046
    33. RY*(  15) O   1                  0.00045
    34. RY*(  16) O   1                  0.00044
    35. RY*(  17) O   1                  0.00044
    36. RY*(  18) O   1                  0.00043
    37. RY*(  19) O   1                  0.00043
    38. RY*(  20) O   1                  0.00041
    39. RY*(  21) O   1                  0.00037
    40. RY*(  22) O   1                  0.00036
    41. RY*(  23) O   1                  0.00030
    42. RY*(  24) O   1                  0.00029
    43. RY*(  25) O   1                  0.00024
    44. RY*(  26) O   1                  0.00015
    45. RY*(  27) O   1                  0.00009
    46. RY*(  28) O   1                  0.00008
    47. RY*(  29) O   1                  0.00008
    48. RY*(  30) O   1                  0.00006
    49. RY*(  31) O   1                  0.00007
    50. RY*(  32) O   1                  0.00007
    51. RY*(  33) O   1                  0.00007
    52. RY*(  34) O   1                  0.00007
    53. RY*(  35) O   1                  0.00005
    54. RY*(  36) O   1                  0.00006
    55. RY*(  37) O   1                  0.00004
    56. RY*(  38) O   1                  0.00004
    57. RY*(  39) O   1                  0.00001
    58. RY*(  40) O   1                  0.00001
    59. RY*(  41) O   1                 -0.00010
    60. RY*(   1) H   2                  0.00178
    61. RY*(   2) H   2                  0.00177
    62. RY*(   3) H   2                  0.00085
    63. RY*(   4) H   2                  0.00054
    64. RY*(   5) H   2                  0.00031
    65. RY*(   6) H   2                  0.00020
    66. RY*(   7) H   2                  0.00013
    67. RY*(   8) H   2                  0.00011
    68. RY*(   9) H   2                  0.00011
    69. RY*(  10) H   2                  0.00009
    70. RY*(  11) H   2                  0.00009
    71. RY*(  12) H   2                  0.00006
    72. RY*(  13) H   2                  0.00006
    73. RY*(  14) H   2                  0.00004
    74. RY*(  15) H   2                  0.00003
    75. RY*(  16) H   2                  0.00003
    76. RY*(  17) H   2                  0.00003
    77. RY*(  18) H   2                  0.00003
    78. RY*(  19) H   2                  0.00001
    79. RY*(  20) H   2                  0.00002
    80. RY*(  21) H   2                  0.00001
    81. RY*(  22) H   2                  0.00001
   124. RY*(   1) H   4                  0.00814
   125. RY*(   2) H   4                  0.00429
   126. RY*(   3) H   4                  0.00409
   127. RY*(   4) H   4                  0.00261
   128. RY*(   5) H   4                  0.00043
   129. RY*(   6) H   4                  0.00034
   130. RY*(   7) H   4                  0.00033
   131. RY*(   8) H   4                  0.00027
   132. RY*(   9) H   4                  0.00023
   133. RY*(  10) H   4                  0.00021
   134. RY*(  11) H   4                  0.00017
   135. RY*(  12) H   4                  0.00016
   136. RY*(  13) H   4                  0.00015
   137. RY*(  14) H   4                  0.00011
   138. RY*(  15) H   4                  0.00010
   139. RY*(  16) H   4                  0.00010
   140. RY*(  17) H   4                  0.00006
   141. RY*(  18) H   4                  0.00007
   142. RY*(  19) H   4                  0.00005
   143. RY*(  20) H   4                  0.00004
   144. RY*(  21) H   4                  0.00004
   145. RY*(  22) H   4                  0.00003
   146. BD*(   1) O   1 - H   2          0.02140
   147. BD*(   1) O   1 - H   4          0.06210
       -------------------------------
              Total Lewis    9.86370  ( 98.0806%)
        Valence non-Lewis    0.08349  (  0.8302%)
        Rydberg non-Lewis    0.10953  (  1.0892%)
       -------------------------------
            Total unit  1   10.05673  (100.0000%)
           Charge unit  1   -0.05673

 Molecular unit  2  (I)
     4. CR (   1) I   3                  2.00001
     5. CR (   2) I   3                  2.00006
     6. CR (   3) I   3                  1.99998
     7. CR (   4) I   3                  2.00006
     8. CR (   5) I   3                  1.99674
     9. CR (   6) I   3                  1.99678
    10. CR (   7) I   3                  1.99676
    11. CR (   8) I   3                  1.99669
    12. CR (   9) I   3                  1.99675
    15. LP (   1) I   3                  1.97940
    16. LP (   2) I   3                  1.95171
    17. LP (   3) I   3                  1.95150
    18. LP (   4) I   3                  1.90898
    82. RY*(   1) I   3                  0.02021
    83. RY*(   2) I   3                  0.02020
    84. RY*(   3) I   3                  0.02012
    85. RY*(   4) I   3                  0.02012
    86. RY*(   5) I   3                  0.01937
    87. RY*(   6) I   3                  0.01098
    88. RY*(   7) I   3                  0.01094
    89. RY*(   8) I   3                  0.00953
    90. RY*(   9) I   3                  0.00341
    91. RY*(  10) I   3                  0.00278
    92. RY*(  11) I   3                  0.00278
    93. RY*(  12) I   3                  0.00276
    94. RY*(  13) I   3                  0.00276
    95. RY*(  14) I   3                  0.00271
    96. RY*(  15) I   3                  0.00270
    97. RY*(  16) I   3                  0.00267
    98. RY*(  17) I   3                  0.00167
    99. RY*(  18) I   3                  0.00167
   100. RY*(  19) I   3                  0.00139
   101. RY*(  20) I   3                  0.00140
   102. RY*(  21) I   3                  0.00121
   103. RY*(  22) I   3                  0.00074
   104. RY*(  23) I   3                  0.00074
   105. RY*(  24) I   3                  0.00067
   106. RY*(  25) I   3                  0.00046
   107. RY*(  26) I   3                  0.00043
   108. RY*(  27) I   3                  0.00043
   109. RY*(  28) I   3                  0.00043
   110. RY*(  29) I   3                  0.00043
   111. RY*(  30) I   3                  0.00040
   112. RY*(  31) I   3                  0.00039
   113. RY*(  32) I   3                  0.00034
   114. RY*(  33) I   3                  0.00016
   115. RY*(  34) I   3                  0.00016
   116. RY*(  35) I   3                  0.00014
   117. RY*(  36) I   3                  0.00013
   118. RY*(  37) I   3                  0.00014
   119. RY*(  38) I   3                  0.00007
   120. RY*(  39) I   3                  0.00008
   121. RY*(  40) I   3                  0.00007
   122. RY*(  41) I   3                  0.00005
   123. RY*(  42) I   3                  0.00000
       -------------------------------
              Total Lewis   53.77542  ( 99.6888%)
        Valence non-Lewis    0.00000  (  0.0000%)
        Rydberg non-Lewis    0.16785  (  0.3112%)
       -------------------------------
            Total unit  2   53.94327  (100.0000%)
           Charge unit  2   -0.94327
 Leave Link  607 at Tue Oct 26 13:21:05 2021, MaxMem= 16106127360 cpu:              68.1 elap:               2.5
 (Enter /sw/contrib/gaussian/g16/B01/g16/l9999.exe)
 1\1\GINC-N2097\SP\RMP2-FC\Gen\H2I1O1(1-)\CGAVINH\26-Oct-2021\0\\#p pop
 =NBO SP NoSymm mp2/gen Pseudo=read density=current\\title\\-1,1\O\X,1,
 10.\H,1,0.96090774,2,90.\I,1,3.50850138,2,90.,3,101.85832019,0\H,1,1.,
 2,90.,3,101.85832019,0\\Version=ES64L-G16RevB.01\HF=-370.8156027\MP2=-
 371.3135497\RMSD=3.573e-09\Dipole=0.694568,0.6555451,0.\Quadrupole=12.
 5478058,-24.7126115,12.1648057,-7.3256472,0.,0.\PG=CS [SG(H2I1O1)]\\@


 THE LENGTH OF A MEETING IS PROPORTIONAL TO THE
 SQUARE OF THE PARTICIPANTS.
 Job cpu time:       0 days  0 hours  4 minutes  8.1 seconds.
 Elapsed time:       0 days  0 hours  0 minutes 11.5 seconds.
 File lengths (MBytes):  RWF=     11 Int=      0 D2E=      0 Chk=      8 Scr=      1
 Normal termination of Gaussian 16 at Tue Oct 26 13:21:05 2021.
