 Entering Gaussian System, Link 0=g16
 Input=brhod_pp_oop_10_sp.gjf
 Output=brhod_pp_oop_10_sp.log
 Initial command:
 /sw/contrib/gaussian/g16/B01/g16/l1.exe "/scr/Gau-2152.inp" -scrdir="/scr/"
 Entering Link 1 = /sw/contrib/gaussian/g16/B01/g16/l1.exe PID=      2153.
  
 Copyright (c) 1988-2017, Gaussian, Inc.  All Rights Reserved.
  
 This is part of the Gaussian(R) 16 program.  It is based on
 the Gaussian(R) 09 system (copyright 2009, Gaussian, Inc.),
 the Gaussian(R) 03 system (copyright 2003, Gaussian, Inc.),
 the Gaussian(R) 98 system (copyright 1998, Gaussian, Inc.),
 the Gaussian(R) 94 system (copyright 1995, Gaussian, Inc.),
 the Gaussian 92(TM) system (copyright 1992, Gaussian, Inc.),
 the Gaussian 90(TM) system (copyright 1990, Gaussian, Inc.),
 the Gaussian 88(TM) system (copyright 1988, Gaussian, Inc.),
 the Gaussian 86(TM) system (copyright 1986, Carnegie Mellon
 University), and the Gaussian 82(TM) system (copyright 1983,
 Carnegie Mellon University). Gaussian is a federally registered
 trademark of Gaussian, Inc.
  
 This software contains proprietary and confidential information,
 including trade secrets, belonging to Gaussian, Inc.
  
 This software is provided under written license and may be
 used, copied, transmitted, or stored only in accord with that
 written license.
  
 The following legend is applicable only to US Government
 contracts under FAR:
  
                    RESTRICTED RIGHTS LEGEND
  
 Use, reproduction and disclosure by the US Government is
 subject to restrictions as set forth in subparagraphs (a)
 and (c) of the Commercial Computer Software - Restricted
 Rights clause in FAR 52.227-19.
  
 Gaussian, Inc.
 340 Quinnipiac St., Bldg. 40, Wallingford CT 06492
  
  
 ---------------------------------------------------------------
 Warning -- This program may not be used in any manner that
 competes with the business of Gaussian, Inc. or will provide
 assistance to any competitor of Gaussian, Inc.  The licensee
 of this program is prohibited from giving any competitor of
 Gaussian, Inc. access to this program.  By using this program,
 the user acknowledges that Gaussian, Inc. is engaged in the
 business of creating and licensing software in the field of
 computational chemistry and represents and warrants to the
 licensee that it is not a competitor of Gaussian, Inc. and that
 it will not use this program in any manner prohibited above.
 ---------------------------------------------------------------
  

 Cite this work as:
 Gaussian 16, Revision B.01,
 M. J. Frisch, G. W. Trucks, H. B. Schlegel, G. E. Scuseria, 
 M. A. Robb, J. R. Cheeseman, G. Scalmani, V. Barone, 
 G. A. Petersson, H. Nakatsuji, X. Li, M. Caricato, A. V. Marenich, 
 J. Bloino, B. G. Janesko, R. Gomperts, B. Mennucci, H. P. Hratchian, 
 J. V. Ortiz, A. F. Izmaylov, J. L. Sonnenberg, D. Williams-Young, 
 F. Ding, F. Lipparini, F. Egidi, J. Goings, B. Peng, A. Petrone, 
 T. Henderson, D. Ranasinghe, V. G. Zakrzewski, J. Gao, N. Rega, 
 G. Zheng, W. Liang, M. Hada, M. Ehara, K. Toyota, R. Fukuda, 
 J. Hasegawa, M. Ishida, T. Nakajima, Y. Honda, O. Kitao, H. Nakai, 
 T. Vreven, K. Throssell, J. A. Montgomery, Jr., J. E. Peralta, 
 F. Ogliaro, M. J. Bearpark, J. J. Heyd, E. N. Brothers, K. N. Kudin, 
 V. N. Staroverov, T. A. Keith, R. Kobayashi, J. Normand, 
 K. Raghavachari, A. P. Rendell, J. C. Burant, S. S. Iyengar, 
 J. Tomasi, M. Cossi, J. M. Millam, M. Klene, C. Adamo, R. Cammi, 
 J. W. Ochterski, R. L. Martin, K. Morokuma, O. Farkas, 
 J. B. Foresman, and D. J. Fox, Gaussian, Inc., Wallingford CT, 2016.
 
 ******************************************
 Gaussian 16:  ES64L-G16RevB.01 20-Dec-2017
                20-Oct-2021 
 ******************************************
 %nproc=28
 Will use up to   28 processors via shared memory.
 %mem=120GB
 %chk=/gscratch/ilahie/mccoygrp/coire_hocl/oop_s_rOH_opt/brhod_pp/brhod_pp_oop_10
 _sp.chk
 ----------------------------------------------------
 #p pop=NBO SP NoSymm mp2/aug-cc-pvtz density=current
 ----------------------------------------------------
 1/30=1,38=1,172=1/1;
 2/12=2,15=1,17=6,18=5,40=1/2;
 3/5=16,6=1,7=10,11=9,25=1,30=1,71=1/1,2,3;
 4//1;
 5/5=2,38=5/2;
 8/6=4,10=1/1;
 9/15=1,16=-3/6;
 10/5=1,13=10,31=1/2;
 6/7=2,8=2,9=2,10=2,22=-1,40=1/1,7;
 99/5=1,9=1/99;
 Leave Link    1 at Wed Oct 20 14:54:33 2021, MaxMem= 16106127360 cpu:               2.8 elap:               0.1
 (Enter /sw/contrib/gaussian/g16/B01/g16/l101.exe)
 -----
 title
 -----
 Symbolic Z-matrix:
 Charge = -1 Multiplicity = 1
 O
 X                    1     10. 
 H(iso=2)             1    r1       2     90. 
 Br                   1    r2       2     90.      3    a1       0
 H                    1    r3       2    oop      3    a1       0
       Variables:
  r1                    0.96048                  
  r2                    3.25083                  
  r3                    0.98806                  
  a1                  101.65547                  
  OOP                  80.                       
 
 ITRead=  0  0  0  0
 MicOpt= -1 -1 -1 -1
 NAtoms=      4 NQM=        4 NQMF=       0 NMMI=      0 NMMIF=      0
                NMic=       0 NMicF=      0.
                    Isotopes and Nuclear Properties:
 (Nuclear quadrupole moments (NQMom) in fm**2, nuclear magnetic moments (NMagM)
  in nuclear magnetons)

  Atom         1           2           3           4
 IAtWgt=          16           2          79           1
 AtmWgt=  15.9949146   2.0141018  78.9183361   1.0078250
 NucSpn=           0           2           3           1
 AtZEff=  -0.0000000  -0.0000000  -0.0000000  -0.0000000
 NQMom=    0.0000000   0.2860000  31.3000000   0.0000000
 NMagM=    0.0000000   0.8574380   2.1063990   2.7928460
 AtZNuc=   8.0000000   1.0000000  35.0000000   1.0000000
 Leave Link  101 at Wed Oct 20 14:54:33 2021, MaxMem= 16106127360 cpu:               2.1 elap:               0.1
 (Enter /sw/contrib/gaussian/g16/B01/g16/l202.exe)
                          Input orientation:                          
 ---------------------------------------------------------------------
 Center     Atomic      Atomic             Coordinates (Angstroms)
 Number     Number       Type             X           Y           Z
 ---------------------------------------------------------------------
      1          8           0        0.000000    0.000000    0.000000
      2          1           0        0.960482    0.000000    0.000000
      3         35           0       -0.656753   -3.183800    0.000000
      4          1           0       -0.196581   -0.952985    0.171575
 ---------------------------------------------------------------------
                    Distance matrix (angstroms):
                    1          2          3          4
     1  O    0.000000
     2  H    0.960482   0.000000
     3  Br   3.250832   3.570999   0.000000
     4  H    0.988060   1.508779   2.284235   0.000000
 Symmetry turned off by external request.
 Stoichiometry    BrH2O(1-)
 Framework group  C1[X(BrH2O)]
 Deg. of freedom     6
 Full point group                 C1      NOp   1
 Rotational constants (GHZ):         317.0192764           3.1568354           3.1268217
 Leave Link  202 at Wed Oct 20 14:54:33 2021, MaxMem= 16106127360 cpu:               1.0 elap:               0.1
 (Enter /sw/contrib/gaussian/g16/B01/g16/l301.exe)
 Standard basis: Aug-CC-pVTZ (5D, 7F)
 Ernie: Thresh=  0.10000D-02 Tol=  0.10000D-05 Strict=F.
 Ernie:  35 primitive shells out of 175 were deleted.
   151 basis functions,   343 primitive gaussians,   174 cartesian basis functions
    23 alpha electrons       23 beta electrons
       nuclear repulsion energy        67.9167260544 Hartrees.
 IExCor=    0 DFT=F Ex=HF Corr=None ExCW=0 ScaHFX=  1.000000
 ScaDFX=  1.000000  1.000000  1.000000  1.000000 ScalE2=  1.000000  1.000000
 IRadAn=      5 IRanWt=     -1 IRanGd=            0 ICorTp=0 IEmpDi=  4
 NAtoms=    4 NActive=    4 NUniq=    4 SFac= 1.00D+00 NAtFMM=   60 NAOKFM=F Big=F
 Integral buffers will be    131072 words long.
 Raffenetti 1 integral format.
 Two-electron integral symmetry is turned off.
 Leave Link  301 at Wed Oct 20 14:54:33 2021, MaxMem= 16106127360 cpu:               1.6 elap:               0.1
 (Enter /sw/contrib/gaussian/g16/B01/g16/l302.exe)
 NPDir=0 NMtPBC=     1 NCelOv=     1 NCel=       1 NClECP=     1 NCelD=      1
         NCelK=      1 NCelE2=     1 NClLst=     1 CellRange=     0.0.
 One-electron integrals computed using PRISM.
 NBasis=   151 RedAO= T EigKep=  3.00D-04  NBF=   151
 NBsUse=   151 1.00D-06 EigRej= -1.00D+00 NBFU=   151
 Leave Link  302 at Wed Oct 20 14:54:33 2021, MaxMem= 16106127360 cpu:               3.9 elap:               0.2
 (Enter /sw/contrib/gaussian/g16/B01/g16/l303.exe)
 DipDrv:  MaxL=1.
 Leave Link  303 at Wed Oct 20 14:54:33 2021, MaxMem= 16106127360 cpu:               1.2 elap:               0.1
 (Enter /sw/contrib/gaussian/g16/B01/g16/l401.exe)
 ExpMin= 2.53D-02 ExpMax= 1.06D+07 ExpMxC= 1.21D+04 IAcc=3 IRadAn=         5 AccDes= 0.00D+00
 Harris functional with IExCor=  205 and IRadAn=       5 diagonalized for initial guess.
 HarFok:  IExCor=  205 AccDes= 0.00D+00 IRadAn=         5 IDoV= 1 UseB2=F ITyADJ=14
 ICtDFT=  3500011 ScaDFX=  1.000000  1.000000  1.000000  1.000000
 FoFCou: FMM=F IPFlag=           0 FMFlag=      100000 FMFlg1=           0
         NFxFlg=           0 DoJE=T BraDBF=F KetDBF=T FulRan=T
         wScrn=  0.000000 ICntrl=       500 IOpCl=  0 I1Cent=   200000004 NGrid=           0
         NMat0=    1 NMatS0=      1 NMatT0=    0 NMatD0=    1 NMtDS0=    0 NMtDT0=    0
 Symmetry not used in FoFCou.
 Harris En= -2648.01646939419    
 JPrj=0 DoOrth=F DoCkMO=F.
 Leave Link  401 at Wed Oct 20 14:54:33 2021, MaxMem= 16106127360 cpu:               6.5 elap:               0.3
 (Enter /sw/contrib/gaussian/g16/B01/g16/l502.exe)
 Keep R1 ints in memory in canonical form, NReq=88257241.
 FoFCou: FMM=F IPFlag=           0 FMFlag=           0 FMFlg1=           0
         NFxFlg=           0 DoJE=F BraDBF=F KetDBF=F FulRan=T
         wScrn=  0.000000 ICntrl=       600 IOpCl=  0 I1Cent=           0 NGrid=           0
         NMat0=    1 NMatS0=  11476 NMatT0=    0 NMatD0=    1 NMtDS0=    0 NMtDT0=    0
 Symmetry not used in FoFCou.
 Two-electron integral symmetry not used.
 Closed shell SCF:
 Using DIIS extrapolation, IDIIS=  1040.
 NGot= 16106127360 LenX= 16040205766 LenY= 16040175049
 Requested convergence on RMS density matrix=1.00D-08 within 128 cycles.
 Requested convergence on MAX density matrix=1.00D-06.
 Requested convergence on             energy=1.00D-06.
 No special actions if energy rises.

 Cycle   1  Pass 1  IDiag  1:
 E= -2648.43987304999    
 DIIS: error= 7.41D-02 at cycle   1 NSaved=   1.
 NSaved= 1 IEnMin= 1 EnMin= -2648.43987304999     IErMin= 1 ErrMin= 7.41D-02
 ErrMax= 7.41D-02  0.00D+00 EMaxC= 1.00D-01 BMatC= 5.41D-01 BMatP= 5.41D-01
 IDIUse=3 WtCom= 2.59D-01 WtEn= 7.41D-01
 Coeff-Com:  0.100D+01
 Coeff-En:   0.100D+01
 Coeff:      0.100D+01
 Gap=     0.386 Goal=   None    Shift=    0.000
 GapD=    0.386 DampG=1.000 DampE=0.500 DampFc=0.5000 IDamp=-1.
 Damping current iteration by 5.00D-01
 RMSDP=3.12D-03 MaxDP=9.47D-02              OVMax= 1.24D-01

 Cycle   2  Pass 1  IDiag  1:
 E= -2648.52711233037     Delta-E=       -0.087239280377 Rises=F Damp=T
 DIIS: error= 3.47D-02 at cycle   2 NSaved=   2.
 NSaved= 2 IEnMin= 2 EnMin= -2648.52711233037     IErMin= 2 ErrMin= 3.47D-02
 ErrMax= 3.47D-02  0.00D+00 EMaxC= 1.00D-01 BMatC= 1.02D-01 BMatP= 5.41D-01
 IDIUse=3 WtCom= 6.53D-01 WtEn= 3.47D-01
 Coeff-Com: -0.598D+00 0.160D+01
 Coeff-En:   0.000D+00 0.100D+01
 Coeff:     -0.390D+00 0.139D+01
 Gap=     0.279 Goal=   None    Shift=    0.000
 RMSDP=1.27D-03 MaxDP=3.41D-02 DE=-8.72D-02 OVMax= 6.09D-02

 Cycle   3  Pass 1  IDiag  1:
 E= -2648.60499255415     Delta-E=       -0.077880223783 Rises=F Damp=F
 DIIS: error= 3.29D-03 at cycle   3 NSaved=   3.
 NSaved= 3 IEnMin= 3 EnMin= -2648.60499255415     IErMin= 3 ErrMin= 3.29D-03
 ErrMax= 3.29D-03  0.00D+00 EMaxC= 1.00D-01 BMatC= 2.00D-03 BMatP= 1.02D-01
 IDIUse=3 WtCom= 9.67D-01 WtEn= 3.29D-02
 Coeff-Com: -0.137D+00 0.296D+00 0.841D+00
 Coeff-En:   0.000D+00 0.000D+00 0.100D+01
 Coeff:     -0.132D+00 0.286D+00 0.846D+00
 Gap=     0.297 Goal=   None    Shift=    0.000
 RMSDP=2.53D-04 MaxDP=7.35D-03 DE=-7.79D-02 OVMax= 1.05D-02

 Cycle   4  Pass 1  IDiag  1:
 E= -2648.60629906750     Delta-E=       -0.001306513348 Rises=F Damp=F
 DIIS: error= 4.01D-04 at cycle   4 NSaved=   4.
 NSaved= 4 IEnMin= 4 EnMin= -2648.60629906750     IErMin= 4 ErrMin= 4.01D-04
 ErrMax= 4.01D-04  0.00D+00 EMaxC= 1.00D-01 BMatC= 3.06D-05 BMatP= 2.00D-03
 IDIUse=3 WtCom= 9.96D-01 WtEn= 4.01D-03
 Coeff-Com:  0.172D-01-0.408D-01 0.374D-02 0.102D+01
 Coeff-En:   0.000D+00 0.000D+00 0.000D+00 0.100D+01
 Coeff:      0.171D-01-0.406D-01 0.373D-02 0.102D+01
 Gap=     0.296 Goal=   None    Shift=    0.000
 RMSDP=4.29D-05 MaxDP=1.26D-03 DE=-1.31D-03 OVMax= 1.83D-03

 Cycle   5  Pass 1  IDiag  1:
 E= -2648.60633907290     Delta-E=       -0.000040005395 Rises=F Damp=F
 DIIS: error= 1.25D-04 at cycle   5 NSaved=   5.
 NSaved= 5 IEnMin= 5 EnMin= -2648.60633907290     IErMin= 5 ErrMin= 1.25D-04
 ErrMax= 1.25D-04  0.00D+00 EMaxC= 1.00D-01 BMatC= 1.57D-06 BMatP= 3.06D-05
 IDIUse=3 WtCom= 9.99D-01 WtEn= 1.25D-03
 Coeff-Com: -0.229D-02 0.656D-02-0.249D-01-0.376D+00 0.140D+01
 Coeff-En:   0.000D+00 0.000D+00 0.000D+00 0.000D+00 0.100D+01
 Coeff:     -0.229D-02 0.656D-02-0.249D-01-0.375D+00 0.140D+01
 Gap=     0.296 Goal=   None    Shift=    0.000
 RMSDP=1.88D-05 MaxDP=5.05D-04 DE=-4.00D-05 OVMax= 8.87D-04

 Cycle   6  Pass 1  IDiag  1:
 E= -2648.60634385560     Delta-E=       -0.000004782702 Rises=F Damp=F
 DIIS: error= 2.41D-05 at cycle   6 NSaved=   6.
 NSaved= 6 IEnMin= 6 EnMin= -2648.60634385560     IErMin= 6 ErrMin= 2.41D-05
 ErrMax= 2.41D-05  0.00D+00 EMaxC= 1.00D-01 BMatC= 6.22D-08 BMatP= 1.57D-06
 IDIUse=1 WtCom= 1.00D+00 WtEn= 0.00D+00
 Coeff-Com: -0.359D-03 0.685D-03 0.321D-02 0.159D-01-0.206D+00 0.119D+01
 Coeff:     -0.359D-03 0.685D-03 0.321D-02 0.159D-01-0.206D+00 0.119D+01
 Gap=     0.296 Goal=   None    Shift=    0.000
 RMSDP=3.14D-06 MaxDP=8.73D-05 DE=-4.78D-06 OVMax= 1.90D-04

 Cycle   7  Pass 1  IDiag  1:
 E= -2648.60634404028     Delta-E=       -0.000000184677 Rises=F Damp=F
 DIIS: error= 6.62D-06 at cycle   7 NSaved=   7.
 NSaved= 7 IEnMin= 7 EnMin= -2648.60634404028     IErMin= 7 ErrMin= 6.62D-06
 ErrMax= 6.62D-06  0.00D+00 EMaxC= 1.00D-01 BMatC= 6.78D-09 BMatP= 6.22D-08
 IDIUse=1 WtCom= 1.00D+00 WtEn= 0.00D+00
 Coeff-Com: -0.671D-04-0.256D-04 0.279D-02 0.252D-01-0.129D+00 0.157D+00
 Coeff-Com:  0.944D+00
 Coeff:     -0.671D-04-0.256D-04 0.279D-02 0.252D-01-0.129D+00 0.157D+00
 Coeff:      0.944D+00
 Gap=     0.296 Goal=   None    Shift=    0.000
 RMSDP=7.61D-07 MaxDP=1.94D-05 DE=-1.85D-07 OVMax= 5.14D-05

 Cycle   8  Pass 1  IDiag  1:
 E= -2648.60634405325     Delta-E=       -0.000000012975 Rises=F Damp=F
 DIIS: error= 1.37D-06 at cycle   8 NSaved=   8.
 NSaved= 8 IEnMin= 8 EnMin= -2648.60634405325     IErMin= 8 ErrMin= 1.37D-06
 ErrMax= 1.37D-06  0.00D+00 EMaxC= 1.00D-01 BMatC= 4.44D-10 BMatP= 6.78D-09
 IDIUse=1 WtCom= 1.00D+00 WtEn= 0.00D+00
 Coeff-Com:  0.889D-04-0.170D-03-0.506D-03 0.118D-03 0.177D-01-0.997D-01
 Coeff-Com: -0.667D-01 0.115D+01
 Coeff:      0.889D-04-0.170D-03-0.506D-03 0.118D-03 0.177D-01-0.997D-01
 Coeff:     -0.667D-01 0.115D+01
 Gap=     0.296 Goal=   None    Shift=    0.000
 RMSDP=3.00D-07 MaxDP=8.19D-06 DE=-1.30D-08 OVMax= 1.66D-05

 Cycle   9  Pass 1  IDiag  1:
 E= -2648.60634405426     Delta-E=       -0.000000001010 Rises=F Damp=F
 DIIS: error= 3.29D-07 at cycle   9 NSaved=   9.
 NSaved= 9 IEnMin= 9 EnMin= -2648.60634405426     IErMin= 9 ErrMin= 3.29D-07
 ErrMax= 3.29D-07  0.00D+00 EMaxC= 1.00D-01 BMatC= 2.67D-11 BMatP= 4.44D-10
 IDIUse=1 WtCom= 1.00D+00 WtEn= 0.00D+00
 Coeff-Com: -0.109D-04 0.310D-04-0.127D-03-0.186D-02 0.758D-02-0.591D-02
 Coeff-Com: -0.529D-01 0.446D-02 0.105D+01
 Coeff:     -0.109D-04 0.310D-04-0.127D-03-0.186D-02 0.758D-02-0.591D-02
 Coeff:     -0.529D-01 0.446D-02 0.105D+01
 Gap=     0.296 Goal=   None    Shift=    0.000
 RMSDP=5.38D-08 MaxDP=1.09D-06 DE=-1.01D-09 OVMax= 3.07D-06

 Cycle  10  Pass 1  IDiag  1:
 E= -2648.60634405433     Delta-E=       -0.000000000070 Rises=F Damp=F
 DIIS: error= 1.02D-07 at cycle  10 NSaved=  10.
 NSaved=10 IEnMin=10 EnMin= -2648.60634405433     IErMin=10 ErrMin= 1.02D-07
 ErrMax= 1.02D-07  0.00D+00 EMaxC= 1.00D-01 BMatC= 2.78D-12 BMatP= 2.67D-11
 IDIUse=1 WtCom= 1.00D+00 WtEn= 0.00D+00
 Coeff-Com: -0.632D-05 0.115D-04 0.466D-04 0.105D-03-0.196D-02 0.972D-02
 Coeff-Com:  0.830D-02-0.122D+00 0.293D-01 0.108D+01
 Coeff:     -0.632D-05 0.115D-04 0.466D-04 0.105D-03-0.196D-02 0.972D-02
 Coeff:      0.830D-02-0.122D+00 0.293D-01 0.108D+01
 Gap=     0.296 Goal=   None    Shift=    0.000
 RMSDP=1.51D-08 MaxDP=2.41D-07 DE=-6.96D-11 OVMax= 1.20D-06

 Cycle  11  Pass 1  IDiag  1:
 E= -2648.60634405433     Delta-E=        0.000000000000 Rises=F Damp=F
 DIIS: error= 2.23D-08 at cycle  11 NSaved=  11.
 NSaved=11 IEnMin=10 EnMin= -2648.60634405433     IErMin=11 ErrMin= 2.23D-08
 ErrMax= 2.23D-08  0.00D+00 EMaxC= 1.00D-01 BMatC= 1.17D-13 BMatP= 2.78D-12
 IDIUse=1 WtCom= 1.00D+00 WtEn= 0.00D+00
 Coeff-Com:  0.142D-05-0.310D-05-0.525D-06 0.635D-04-0.328D-04-0.127D-02
 Coeff-Com:  0.113D-02 0.190D-01-0.667D-01-0.168D+00 0.122D+01
 Coeff:      0.142D-05-0.310D-05-0.525D-06 0.635D-04-0.328D-04-0.127D-02
 Coeff:      0.113D-02 0.190D-01-0.667D-01-0.168D+00 0.122D+01
 Gap=     0.296 Goal=   None    Shift=    0.000
 RMSDP=6.90D-09 MaxDP=2.34D-07 DE= 0.00D+00 OVMax= 3.04D-07

 SCF Done:  E(RHF) =  -2648.60634405     A.U. after   11 cycles
            NFock= 11  Conv=0.69D-08     -V/T= 2.0000
 KE= 2.648515780202D+03 PE=-6.483765070754D+03 EE= 1.118726220443D+03
 Leave Link  502 at Wed Oct 20 14:54:36 2021, MaxMem= 16106127360 cpu:              37.4 elap:               2.3
 (Enter /sw/contrib/gaussian/g16/B01/g16/l801.exe)
 ExpMin= 2.53D-02 ExpMax= 1.06D+07 ExpMxC= 1.21D+04 IAcc=3 IRadAn=         5 AccDes= 0.00D+00
 HarFok:  IExCor=  205 AccDes= 0.00D+00 IRadAn=         5 IDoV=-2 UseB2=F ITyADJ=14
 ICtDFT= 12500011 ScaDFX=  1.000000  1.000000  1.000000  1.000000
 DSYEVD-2 returned Info=          89 IAlg= 4 N=    59 NDim=    59 NE2=   272983801 trying  DSYEV.
 Largest valence mixing into a core orbital is  1.27D-04
 Largest core mixing into a valence orbital is  3.62D-05
 Range of M.O.s used for correlation:    11   151
 NBasis=   151 NAE=    23 NBE=    23 NFC=    10 NFV=     0
 NROrb=    141 NOA=    13 NOB=    13 NVA=   128 NVB=   128

 **** Warning!!: The largest alpha MO coefficient is  0.15065164D+02

 Leave Link  801 at Wed Oct 20 14:54:36 2021, MaxMem= 16106127360 cpu:               2.7 elap:               0.1
 (Enter /sw/contrib/gaussian/g16/B01/g16/l906.exe)
 Frozen-core derivative calculation, NFC=  10 NFV=   0.
 FulOut=F Deriv=T AODrv=F NAtomX=     4
   MMem=         214  MDisk=          13 MDiskD=          13
  W3Min=      604302 MinDsk=     1007783 NBas6D=         174
 NBas2D=       15618    NTT=       15225    LW2=     9911920
    MDV= 16105777015 MDiskM=      462752 NBas2p=       15367
 Fully in-core method, ICMem=   275550978.
 IMap=   1   2   3   4   5   6   7   8   9  10  11  12  13  14  15  16  17  18  19  20
 IMap=  21  22  23
 JobTyp=1 Pass  1 fully in-core, NPsUse= 28.
 Compute canonical integrals.
 FoFCou: FMM=F IPFlag=           0 FMFlag=           0 FMFlg1=           0
         NFxFlg=           0 DoJE=F BraDBF=F KetDBF=F FulRan=T
         wScrn=  0.000000 ICntrl=       600 IOpCl=  1 I1Cent=           0 NGrid=           0
         NMat0=    1 NMatS0=  15618 NMatT0=    0 NMatD0=    1 NMtDS0=    0 NMtDT0=    0
 Symmetry not used in FoFCou.
 Spin components of T(2) and E(2):
     alpha-alpha T2 =       0.2057102080D-01 E2=     -0.6993080570D-01
     alpha-beta  T2 =       0.1090024965D+00 E2=     -0.3790134154D+00
     beta-beta   T2 =       0.2057102080D-01 E2=     -0.6993080570D-01
 The integrals were generated   1 times.
 ANorm=    0.1072447919D+01
 E2 =    -0.5188750268D+00 EUMP2 =    -0.26491252190811D+04
 Leave Link  906 at Wed Oct 20 14:54:39 2021, MaxMem= 16106127360 cpu:              90.7 elap:               3.3
 (Enter /sw/contrib/gaussian/g16/B01/g16/l1002.exe)
 Minotr:  Closed shell wavefunction.
          Computing MP2/KS-MP2 derivatives.
          Using Z-Vector for PSCF gradient.
          Skipping F1 and S1 gradient terms here.
          Frozen-core window.
          Direct CPHF calculation.
          Differentiating once with respect to electric field.
                with respect to dipole field.
          Electric field/nuclear overlap derivatives assumed to be zero.
          Requested convergence is 1.0D-10 RMS, and 1.0D-09 maximum.
          NewPWx=F KeepS1=T KeepF1=T KeepIn=T MapXYZ=F SortEE=F KeepMc=T.
 Keep R1 ints in memory in canonical form, NReq=88260045.
 FoFCou: FMM=F IPFlag=           0 FMFlag=           0 FMFlg1=           0
         NFxFlg=           0 DoJE=F BraDBF=F KetDBF=F FulRan=T
         wScrn=  0.000000 ICntrl=       600 IOpCl=  0 I1Cent=           0 NGrid=           0
         NMat0=    1 NMatS0=  11476 NMatT0=    0 NMatD0=    1 NMtDS0=    0 NMtDT0=    0
 Symmetry not used in FoFCou.
 Two-electron integral symmetry not used.
          MDV=   16106127360 using IRadAn=       5.
          Solving linear equations separately, MaxMat=       0.
          There are     1 degrees of freedom in the 1st order CPHF.  IDoFFX=0 NUNeed=     1.
 LinEq1:  Iter=  0 NonCon=     1 RMS=2.40D-03 Max=4.64D-02 NDo=     1
 AX will form     1 AO Fock derivatives at one time.
 LinEq1:  Iter=  1 NonCon=     1 RMS=3.99D-04 Max=4.91D-03 NDo=     1
 LinEq1:  Iter=  2 NonCon=     1 RMS=1.88D-04 Max=2.32D-03 NDo=     1
 LinEq1:  Iter=  3 NonCon=     1 RMS=5.24D-05 Max=9.65D-04 NDo=     1
 LinEq1:  Iter=  4 NonCon=     1 RMS=1.04D-05 Max=1.15D-04 NDo=     1
 LinEq1:  Iter=  5 NonCon=     1 RMS=4.60D-06 Max=4.78D-05 NDo=     1
 LinEq1:  Iter=  6 NonCon=     1 RMS=9.20D-07 Max=1.80D-05 NDo=     1
 LinEq1:  Iter=  7 NonCon=     1 RMS=2.08D-07 Max=3.02D-06 NDo=     1
 LinEq1:  Iter=  8 NonCon=     1 RMS=5.98D-08 Max=8.00D-07 NDo=     1
 LinEq1:  Iter=  9 NonCon=     1 RMS=8.20D-09 Max=1.34D-07 NDo=     1
 LinEq1:  Iter= 10 NonCon=     1 RMS=1.25D-09 Max=2.02D-08 NDo=     1
 LinEq1:  Iter= 11 NonCon=     1 RMS=3.61D-10 Max=5.33D-09 NDo=     1
 LinEq1:  Iter= 12 NonCon=     1 RMS=8.08D-11 Max=1.14D-09 NDo=     1
 LinEq1:  Iter= 13 NonCon=     0 RMS=1.39D-11 Max=1.43D-10 NDo=     1
 Linear equations converged to 1.000D-10 1.000D-09 after    13 iterations.
 End of Minotr F.D. properties file   721 does not exist.
 End of Minotr F.D. properties file   722 does not exist.
 End of Minotr F.D. properties file   788 does not exist.
 Leave Link 1002 at Wed Oct 20 14:54:42 2021, MaxMem= 16106127360 cpu:              36.4 elap:               2.7
 (Enter /sw/contrib/gaussian/g16/B01/g16/l601.exe)
 Copying SCF densities to generalized density rwf, IOpCl= 0 IROHF=0.

 **********************************************************************

            Population analysis using the MP2 Density.

 **********************************************************************

 Alpha  occ. eigenvalues -- -489.73985 -64.88011 -58.23460 -58.23459 -58.23457
 Alpha  occ. eigenvalues --  -20.38923  -9.55257  -7.16014  -7.15992  -7.15986
 Alpha  occ. eigenvalues --   -2.90180  -2.90173  -2.90165  -2.90142  -2.90141
 Alpha  occ. eigenvalues --   -1.17037  -0.71130  -0.52696  -0.41653  -0.33388
 Alpha  occ. eigenvalues --   -0.16554  -0.16047  -0.15989
 Alpha virt. eigenvalues --    0.13600   0.17354   0.23390   0.24174   0.24914
 Alpha virt. eigenvalues --    0.27596   0.29072   0.29951   0.34404   0.34872
 Alpha virt. eigenvalues --    0.39851   0.40966   0.41618   0.46099   0.48164
 Alpha virt. eigenvalues --    0.48555   0.52216   0.53569   0.57546   0.59385
 Alpha virt. eigenvalues --    0.61438   0.63261   0.70251   0.74020   0.74780
 Alpha virt. eigenvalues --    0.76239   0.81638   0.87051   0.87523   0.88752
 Alpha virt. eigenvalues --    0.90798   0.95870   0.99480   1.01012   1.01805
 Alpha virt. eigenvalues --    1.02173   1.03932   1.05304   1.07402   1.08874
 Alpha virt. eigenvalues --    1.09536   1.11586   1.16308   1.17350   1.18226
 Alpha virt. eigenvalues --    1.19153   1.19458   1.21064   1.22088   1.25381
 Alpha virt. eigenvalues --    1.34415   1.36678   1.41634   1.45140   1.46501
 Alpha virt. eigenvalues --    1.49405   1.62713   1.65899   1.69342   1.69809
 Alpha virt. eigenvalues --    1.76863   1.81787   2.04777   2.06942   2.18494
 Alpha virt. eigenvalues --    2.38661   2.42214   2.43331   2.44963   2.49190
 Alpha virt. eigenvalues --    2.51432   2.54790   2.55196   2.56219   2.56331
 Alpha virt. eigenvalues --    2.56507   2.57827   2.59109   2.61467   2.62602
 Alpha virt. eigenvalues --    2.65906   2.66227   2.67676   2.71411   2.74232
 Alpha virt. eigenvalues --    2.77744   2.80831   2.90942   2.92373   2.98584
 Alpha virt. eigenvalues --    3.08838   3.11509   3.13973   3.87154   4.10543
 Alpha virt. eigenvalues --    4.22805   4.32737   4.36562   4.42577   4.44794
 Alpha virt. eigenvalues --    4.54365   4.56800   4.60286   4.70653   4.78810
 Alpha virt. eigenvalues --    4.96714   5.11442   5.29404   5.37268   5.44973
 Alpha virt. eigenvalues --    5.50481   5.68067   5.82572   6.38904   6.69918
 Alpha virt. eigenvalues --    6.90666   7.10949   7.28901   7.43025   7.44949
 Alpha virt. eigenvalues --    7.47618   7.54604   7.61159   7.79566   8.06825
 Alpha virt. eigenvalues --    8.12450   8.95725  16.12594
          Condensed to atoms (all electrons):
               1          2          3          4
     1  O    8.251650   0.210666  -0.063140   0.130032
     2  H    0.210666   0.604629   0.004700   0.011473
     3  Br  -0.063140   0.004700  35.948084   0.033815
     4  H    0.130032   0.011473   0.033815   0.540546
 Mulliken charges:
               1
     1  O   -0.529207
     2  H    0.168532
     3  Br  -0.923459
     4  H    0.284134
 Sum of Mulliken charges =  -1.00000
 Mulliken charges with hydrogens summed into heavy atoms:
               1
     1  O   -0.076541
     3  Br  -0.923459
 Electronic spatial extent (au):  <R**2>=           1429.2773
 Charge=             -1.0000 electrons
 Dipole moment (field-independent basis, Debye):
    X=              3.8678    Y=             12.4254    Z=              0.1259  Tot=             13.0141
 Quadrupole moment (field-independent basis, Debye-Ang):
   XX=            -30.8625   YY=            -74.2149   ZZ=            -31.6356
   XY=             -8.3268   XZ=             -0.0529   YZ=             -0.0942
 Traceless Quadrupole moment (field-independent basis, Debye-Ang):
   XX=             14.7085   YY=            -28.6439   ZZ=             13.9354
   XY=             -8.3268   XZ=             -0.0529   YZ=             -0.0942
 Octapole moment (field-independent basis, Debye-Ang**2):
  XXX=             47.4472  YYY=            365.1103  ZZZ=             -0.6696  XYY=             42.5052
  XXY=             81.0489  XXZ=             -0.2616  XZZ=             14.7849  YZZ=             75.3846
  YYZ=             -0.9650  XYZ=             -0.1560
 Hexadecapole moment (field-independent basis, Debye-Ang**3):
 XXXX=           -110.1555 YYYY=          -1919.2649 ZZZZ=            -50.3978 XXXY=           -150.2852
 XXXZ=              0.1637 YYYX=           -233.6162 YYYZ=              4.0258 ZZZX=              0.1506
 ZZZY=              0.9379 XXYY=           -283.4689 XXZZ=            -26.9979 YYZZ=           -255.8018
 XXYZ=              0.4330 YYXZ=              0.6672 ZZXY=            -48.9289
 N-N= 6.791672605435D+01 E-N=-6.482233805832D+03  KE= 2.648363402858D+03
 No NMR shielding tensors so no spin-rotation constants.
 Leave Link  601 at Wed Oct 20 14:54:42 2021, MaxMem= 16106127360 cpu:               5.2 elap:               0.2
 (Enter /sw/contrib/gaussian/g16/B01/g16/l607.exe)
 ******************************Gaussian NBO Version 3.1******************************
             N A T U R A L   A T O M I C   O R B I T A L   A N D
          N A T U R A L   B O N D   O R B I T A L   A N A L Y S I S
 ******************************Gaussian NBO Version 3.1******************************
       /RESON  / : Allow strongly delocalized NBO set

 Analyzing the MP2 density

 Job title: title                                                           

 Storage needed:     69217 in NPA,     91732 in NBO (********** available)
 GSVD:  LWork=        1591 too small for GESVD, short by       39920 words or       39920 for optimal perf.


 NATURAL POPULATIONS:  Natural atomic orbital occupancies 
                                                          
   NAO  Atom  No  lang   Type(AO)    Occupancy
 --------------------------------------------
     1    O    1  S      Cor( 1S)     1.99967
     2    O    1  S      Val( 2S)     1.74233
     3    O    1  S      Ryd( 3S)     0.00600
     4    O    1  S      Ryd( 4S)     0.00048
     5    O    1  S      Ryd( 5S)     0.00019
     6    O    1  px     Val( 2p)     1.52335
     7    O    1  px     Ryd( 3p)     0.00984
     8    O    1  px     Ryd( 4p)     0.00052
     9    O    1  px     Ryd( 5p)     0.00007
    10    O    1  py     Val( 2p)     1.67396
    11    O    1  py     Ryd( 3p)     0.01155
    12    O    1  py     Ryd( 4p)     0.00061
    13    O    1  py     Ryd( 5p)     0.00010
    14    O    1  pz     Val( 2p)     1.94358
    15    O    1  pz     Ryd( 3p)     0.02049
    16    O    1  pz     Ryd( 4p)     0.00060
    17    O    1  pz     Ryd( 5p)     0.00002
    18    O    1  dxy    Ryd( 3d)     0.00820
    19    O    1  dxy    Ryd( 4d)     0.00042
    20    O    1  dxy    Ryd( 5d)     0.00007
    21    O    1  dxz    Ryd( 3d)     0.00822
    22    O    1  dxz    Ryd( 4d)     0.00045
    23    O    1  dxz    Ryd( 5d)     0.00006
    24    O    1  dyz    Ryd( 3d)     0.00805
    25    O    1  dyz    Ryd( 4d)     0.00048
    26    O    1  dyz    Ryd( 5d)     0.00010
    27    O    1  dx2y2  Ryd( 3d)     0.01220
    28    O    1  dx2y2  Ryd( 4d)     0.00031
    29    O    1  dx2y2  Ryd( 5d)     0.00009
    30    O    1  dz2    Ryd( 3d)     0.00892
    31    O    1  dz2    Ryd( 4d)     0.00045
    32    O    1  dz2    Ryd( 5d)     0.00010
    33    O    1  f(0)   Ryd( 4f)     0.00062
    34    O    1  f(0)   Ryd( 5f)     0.00010
    35    O    1  f(C1)  Ryd( 4f)     0.00055
    36    O    1  f(C1)  Ryd( 5f)     0.00008
    37    O    1  f(S1)  Ryd( 4f)     0.00058
    38    O    1  f(S1)  Ryd( 5f)     0.00009
    39    O    1  f(C2)  Ryd( 4f)     0.00046
    40    O    1  f(C2)  Ryd( 5f)     0.00009
    41    O    1  f(S2)  Ryd( 4f)     0.00047
    42    O    1  f(S2)  Ryd( 5f)     0.00008
    43    O    1  f(C3)  Ryd( 4f)     0.00041
    44    O    1  f(C3)  Ryd( 5f)     0.00012
    45    O    1  f(S3)  Ryd( 4f)     0.00040
    46    O    1  f(S3)  Ryd( 5f)     0.00009

    47    H    2  S      Val( 1S)     0.54909
    48    H    2  S      Ryd( 2S)     0.00165
    49    H    2  S      Ryd( 3S)     0.00018
    50    H    2  S      Ryd( 4S)     0.00007
    51    H    2  px     Ryd( 2p)     0.00152
    52    H    2  px     Ryd( 3p)     0.00053
    53    H    2  px     Ryd( 4p)     0.00014
    54    H    2  py     Ryd( 2p)     0.00190
    55    H    2  py     Ryd( 3p)     0.00023
    56    H    2  py     Ryd( 4p)     0.00009
    57    H    2  pz     Ryd( 2p)     0.00481
    58    H    2  pz     Ryd( 3p)     0.00019
    59    H    2  pz     Ryd( 4p)     0.00005
    60    H    2  dxy    Ryd( 3d)     0.00006
    61    H    2  dxy    Ryd( 4d)     0.00005
    62    H    2  dxz    Ryd( 3d)     0.00008
    63    H    2  dxz    Ryd( 4d)     0.00006
    64    H    2  dyz    Ryd( 3d)     0.00012
    65    H    2  dyz    Ryd( 4d)     0.00004
    66    H    2  dx2y2  Ryd( 3d)     0.00009
    67    H    2  dx2y2  Ryd( 4d)     0.00004
    68    H    2  dz2    Ryd( 3d)     0.00011
    69    H    2  dz2    Ryd( 4d)     0.00006

    70   Br    3  S      Cor( 1S)     2.00001
    71   Br    3  S      Cor( 2S)     2.00000
    72   Br    3  S      Cor( 3S)     2.00000
    73   Br    3  S      Val( 4S)     1.97754
    74   Br    3  S      Ryd( 5S)     0.00257
    75   Br    3  S      Ryd( 6S)     0.00052
    76   Br    3  S      Ryd( 7S)     0.00010
    77   Br    3  px     Cor( 2p)     2.00002
    78   Br    3  px     Cor( 3p)     2.00000
    79   Br    3  px     Val( 4p)     1.95210
    80   Br    3  px     Ryd( 5p)     0.01170
    81   Br    3  px     Ryd( 6p)     0.00083
    82   Br    3  px     Ryd( 7p)     0.00005
    83   Br    3  py     Cor( 3p)     1.99999
    84   Br    3  py     Cor( 2p)     2.00000
    85   Br    3  py     Val( 4p)     1.91453
    86   Br    3  py     Ryd( 5p)     0.01027
    87   Br    3  py     Ryd( 6p)     0.00079
    88   Br    3  py     Ryd( 7p)     0.00013
    89   Br    3  pz     Cor( 2p)     2.00002
    90   Br    3  pz     Cor( 3p)     2.00000
    91   Br    3  pz     Val( 4p)     1.95360
    92   Br    3  pz     Ryd( 5p)     0.01171
    93   Br    3  pz     Ryd( 6p)     0.00083
    94   Br    3  pz     Ryd( 7p)     0.00004
    95   Br    3  dxy    Cor( 3d)     1.99767
    96   Br    3  dxy    Ryd( 4d)     0.01876
    97   Br    3  dxy    Ryd( 5d)     0.00150
    98   Br    3  dxy    Ryd( 6d)     0.00020
    99   Br    3  dxz    Cor( 3d)     1.99769
   100   Br    3  dxz    Ryd( 4d)     0.01867
   101   Br    3  dxz    Ryd( 5d)     0.00177
   102   Br    3  dxz    Ryd( 6d)     0.00022
   103   Br    3  dyz    Cor( 3d)     1.99767
   104   Br    3  dyz    Ryd( 4d)     0.01880
   105   Br    3  dyz    Ryd( 5d)     0.00152
   106   Br    3  dyz    Ryd( 6d)     0.00021
   107   Br    3  dx2y2  Cor( 3d)     1.99765
   108   Br    3  dx2y2  Ryd( 4d)     0.01841
   109   Br    3  dx2y2  Ryd( 5d)     0.00163
   110   Br    3  dx2y2  Ryd( 6d)     0.00024
   111   Br    3  dz2    Cor( 3d)     1.99768
   112   Br    3  dz2    Ryd( 4d)     0.01857
   113   Br    3  dz2    Ryd( 5d)     0.00173
   114   Br    3  dz2    Ryd( 6d)     0.00022
   115   Br    3  f(0)   Ryd( 4f)     0.00174
   116   Br    3  f(0)   Ryd( 5f)     0.00025
   117   Br    3  f(C1)  Ryd( 4f)     0.00175
   118   Br    3  f(C1)  Ryd( 5f)     0.00024
   119   Br    3  f(S1)  Ryd( 4f)     0.00174
   120   Br    3  f(S1)  Ryd( 5f)     0.00026
   121   Br    3  f(C2)  Ryd( 4f)     0.00173
   122   Br    3  f(C2)  Ryd( 5f)     0.00025
   123   Br    3  f(S2)  Ryd( 4f)     0.00176
   124   Br    3  f(S2)  Ryd( 5f)     0.00025
   125   Br    3  f(C3)  Ryd( 4f)     0.00171
   126   Br    3  f(C3)  Ryd( 5f)     0.00025
   127   Br    3  f(S3)  Ryd( 4f)     0.00172
   128   Br    3  f(S3)  Ryd( 5f)     0.00026

   129    H    4  S      Val( 1S)     0.49005
   130    H    4  S      Ryd( 2S)     0.00662
   131    H    4  S      Ryd( 3S)     0.00034
   132    H    4  S      Ryd( 4S)     0.00011
   133    H    4  px     Ryd( 2p)     0.00334
   134    H    4  px     Ryd( 3p)     0.00040
   135    H    4  px     Ryd( 4p)     0.00008
   136    H    4  py     Ryd( 2p)     0.00400
   137    H    4  py     Ryd( 3p)     0.00054
   138    H    4  py     Ryd( 4p)     0.00021
   139    H    4  pz     Ryd( 2p)     0.00366
   140    H    4  pz     Ryd( 3p)     0.00046
   141    H    4  pz     Ryd( 4p)     0.00009
   142    H    4  dxy    Ryd( 3d)     0.00019
   143    H    4  dxy    Ryd( 4d)     0.00009
   144    H    4  dxz    Ryd( 3d)     0.00015
   145    H    4  dxz    Ryd( 4d)     0.00005
   146    H    4  dyz    Ryd( 3d)     0.00021
   147    H    4  dyz    Ryd( 4d)     0.00009
   148    H    4  dx2y2  Ryd( 3d)     0.00017
   149    H    4  dx2y2  Ryd( 4d)     0.00009
   150    H    4  dz2    Ryd( 3d)     0.00017
   151    H    4  dz2    Ryd( 4d)     0.00007

 WARNING:  5 low occupancy (<1.9990e) core orbitals found on Br    3


 Summary of Natural Population Analysis:                  
                                                          
                                       Natural Population 
                Natural  -----------------------------------------------
    Atom  No    Charge         Core      Valence    Rydberg      Total
 -----------------------------------------------------------------------
      O    1   -0.98559      1.99967     6.88323    0.10269     8.98559
      H    2    0.43885      0.00000     0.54909    0.01206     0.56115
     Br    3   -0.94208     27.98839     7.79777    0.15592    35.94208
      H    4    0.48882      0.00000     0.49005    0.02113     0.51118
 =======================================================================
   * Total *   -1.00000     29.98807    15.72013    0.29181    46.00000

                                 Natural Population      
 --------------------------------------------------------
   Core                      29.98807 ( 99.9602% of  30)
   Valence                   15.72013 ( 98.2508% of  16)
   Natural Minimal Basis     45.70819 ( 99.3656% of  46)
   Natural Rydberg Basis      0.29181 (  0.6344% of  46)
 --------------------------------------------------------

    Atom  No          Natural Electron Configuration
 ----------------------------------------------------------------------------
      O    1      [core]2S( 1.74)2p( 5.14)3S( 0.01)3p( 0.04)3d( 0.05)
      H    2            1S( 0.55)2p( 0.01)
     Br    3      [core]4S( 1.98)4p( 5.82)4d( 0.09)5p( 0.03)4f( 0.01)5d( 0.01)
      H    4            1S( 0.49)2S( 0.01)2p( 0.01)


 NATURAL BOND ORBITAL ANALYSIS:
 Warning:  a bond orbital has occupanc of -0.00003

                       Occupancies       Lewis Structure    Low   High
           Occ.    -------------------  -----------------   occ   occ
  Cycle   Thresh.   Lewis   Non-Lewis     CR  BD  3C  LP    (L)   (NL)   Dev
 =============================================================================
   1(1)    1.90    45.64997   0.35003     15   2   0   6     0      0    0.07
 -----------------------------------------------------------------------------

 Structure accepted: No low occupancy Lewis orbitals

 WARNING:  5 low occupancy (<1.9990e) core orbitals found on Br    3

 --------------------------------------------------------
   Core                     29.98806 ( 99.960% of  30)
   Valence Lewis            15.66191 ( 97.887% of  16)
  ==================       ============================
   Total Lewis              45.64997 ( 99.239% of  46)
  -----------------------------------------------------
   Valence non-Lewis         0.08427 (  0.183% of  46)
   Rydberg non-Lewis         0.26576 (  0.578% of  46)
  ==================       ============================
   Total non-Lewis           0.35003 (  0.761% of  46)
 --------------------------------------------------------


       (Occupancy)   Bond orbital/ Coefficients/ Hybrids
 ---------------------------------------------------------------------------------
     1. (1.96584) BD ( 1) O   1 - H   2  
                ( 72.83%)   0.8534* O   1 s( 20.99%)p 3.74( 78.53%)d 0.02(  0.46%)
                                                  f 0.00(  0.01%)
                                            0.0002  0.4582 -0.0049 -0.0017 -0.0023
                                            0.8837 -0.0314  0.0091 -0.0030  0.0547
                                           -0.0140  0.0009 -0.0032 -0.0068  0.0028
                                           -0.0001  0.0003 -0.0191  0.0032  0.0008
                                            0.0046 -0.0009 -0.0005 -0.0013 -0.0001
                                           -0.0008  0.0543 -0.0040 -0.0041 -0.0348
                                            0.0019 -0.0002  0.0001 -0.0000 -0.0096
                                            0.0002 -0.0002  0.0000 -0.0004  0.0002
                                           -0.0022  0.0011  0.0037  0.0038  0.0020
                                           -0.0008
                ( 27.17%)   0.5213* H   2 s( 99.88%)p 0.00(  0.12%)d 0.00(  0.00%)
                                            0.9994  0.0035 -0.0001  0.0002  0.0174
                                            0.0273 -0.0049 -0.0095 -0.0039 -0.0023
                                            0.0037  0.0012  0.0003 -0.0003  0.0026
                                            0.0001 -0.0005 -0.0009 -0.0003 -0.0012
                                            0.0014 -0.0011 -0.0011
     2. (1.96788) BD ( 1) O   1 - H   4  
                ( 77.57%)   0.8807* O   1 s( 26.31%)p 2.79( 73.27%)d 0.02(  0.41%)
                                                  f 0.00(  0.01%)
                                           -0.0003 -0.5129  0.0028  0.0016  0.0013
                                            0.2117 -0.0186  0.0019 -0.0013  0.8141
                                           -0.0141  0.0064 -0.0020 -0.1566  0.0019
                                           -0.0015  0.0013  0.0037 -0.0026 -0.0013
                                           -0.0007  0.0006  0.0004  0.0217 -0.0016
                                            0.0001  0.0508 -0.0035 -0.0008  0.0320
                                           -0.0020  0.0014  0.0038 -0.0002 -0.0017
                                           -0.0001 -0.0075  0.0004  0.0027  0.0003
                                           -0.0011 -0.0004 -0.0026 -0.0015 -0.0015
                                           -0.0019
                ( 22.43%)   0.4736* H   4 s( 99.90%)p 0.00(  0.09%)d 0.00(  0.00%)
                                           -0.9992 -0.0250 -0.0008  0.0003 -0.0164
                                           -0.0023 -0.0011 -0.0013 -0.0231 -0.0092
                                           -0.0052  0.0047  0.0016  0.0017  0.0019
                                           -0.0005 -0.0004  0.0004 -0.0004 -0.0029
                                            0.0008  0.0005  0.0013
     3. (1.99967) CR ( 1) O   1           s(100.00%)
                                            1.0000 -0.0004  0.0000  0.0000  0.0000
                                           -0.0001  0.0000 -0.0000  0.0000  0.0001
                                           -0.0000  0.0000  0.0000 -0.0000  0.0000
                                           -0.0000  0.0000 -0.0000 -0.0000 -0.0000
                                            0.0000  0.0000  0.0000  0.0000 -0.0000
                                            0.0000 -0.0000 -0.0000  0.0000  0.0000
                                           -0.0000  0.0000  0.0000  0.0000  0.0000
                                            0.0000 -0.0000 -0.0000  0.0000  0.0000
                                           -0.0000 -0.0000 -0.0000 -0.0000 -0.0000
                                           -0.0000
     4. (2.00001) CR ( 1)Br   3           s(100.00%)p 0.00(  0.00%)
                                            1.0000  0.0000 -0.0000  0.0000  0.0000
                                           -0.0000  0.0000 -0.0000 -0.0000  0.0000
                                            0.0000 -0.0000  0.0000 -0.0000 -0.0000
                                            0.0002 -0.0000 -0.0000  0.0000 -0.0000
                                           -0.0000  0.0000  0.0000 -0.0000  0.0000
                                           -0.0000  0.0000 -0.0000  0.0000 -0.0000
                                            0.0000 -0.0000  0.0000 -0.0000  0.0000
                                           -0.0000  0.0000  0.0000 -0.0000  0.0000
                                            0.0000  0.0000 -0.0000  0.0000 -0.0000
                                           -0.0000 -0.0000 -0.0000 -0.0000 -0.0000
                                           -0.0000 -0.0000 -0.0000  0.0000  0.0000
                                           -0.0000 -0.0000 -0.0000 -0.0000
     5. (2.00000) CR ( 2)Br   3           s(100.00%)
                                            0.0000  1.0000  0.0000 -0.0000 -0.0000
                                            0.0000 -0.0000  0.0000  0.0000 -0.0000
                                           -0.0000  0.0000 -0.0000  0.0000  0.0000
                                           -0.0000  0.0000  0.0000 -0.0000  0.0000
                                            0.0000 -0.0000 -0.0000  0.0000 -0.0000
                                            0.0000 -0.0000  0.0000 -0.0000  0.0000
                                           -0.0000  0.0000 -0.0000  0.0000 -0.0000
                                            0.0000 -0.0000 -0.0000  0.0000 -0.0000
                                           -0.0000 -0.0000  0.0000 -0.0000  0.0000
                                            0.0000  0.0000  0.0000  0.0000  0.0000
                                            0.0000  0.0000  0.0000 -0.0000 -0.0000
                                            0.0000  0.0000  0.0000  0.0000
     6. (2.00000) CR ( 3)Br   3           s(100.00%)
                                           -0.0000  0.0000  1.0000  0.0000  0.0000
                                           -0.0000  0.0000 -0.0000 -0.0000  0.0000
                                            0.0000 -0.0000  0.0000 -0.0000 -0.0000
                                            0.0000 -0.0000 -0.0000  0.0000 -0.0000
                                           -0.0000  0.0000  0.0000 -0.0000  0.0000
                                           -0.0000  0.0000 -0.0000  0.0000 -0.0000
                                            0.0000 -0.0000  0.0000 -0.0000  0.0000
                                           -0.0000  0.0000  0.0000 -0.0000  0.0000
                                            0.0000  0.0000 -0.0000  0.0000 -0.0000
                                           -0.0000 -0.0000 -0.0000 -0.0000 -0.0000
                                           -0.0000 -0.0000 -0.0000  0.0000  0.0000
                                           -0.0000 -0.0000 -0.0000 -0.0000
     7. (2.00002) CR ( 4)Br   3           s(  0.00%)p 1.00(100.00%)
                                           -0.0000  0.0000 -0.0000  0.0000  0.0000
                                           -0.0000  0.0000  1.0000 -0.0000 -0.0001
                                           -0.0000 -0.0000  0.0000 -0.0000 -0.0000
                                            0.0001 -0.0000 -0.0000  0.0000 -0.0000
                                           -0.0000  0.0000  0.0000 -0.0000  0.0000
                                           -0.0000 -0.0000  0.0000  0.0000 -0.0000
                                           -0.0000  0.0000 -0.0000 -0.0000  0.0000
                                           -0.0000  0.0000  0.0000 -0.0000  0.0000
                                           -0.0000  0.0000 -0.0000  0.0000  0.0000
                                           -0.0000 -0.0000  0.0000  0.0000 -0.0000
                                           -0.0000 -0.0000 -0.0000 -0.0000 -0.0000
                                            0.0000  0.0000 -0.0000 -0.0000
     8. (2.00000) CR ( 5)Br   3           s(  0.00%)p 1.00(100.00%)
                                           -0.0000  0.0000 -0.0000  0.0000  0.0000
                                           -0.0000  0.0000 -0.0000  1.0000 -0.0000
                                           -0.0000 -0.0000  0.0000 -0.0000 -0.0000
                                            0.0000 -0.0000 -0.0000  0.0000 -0.0000
                                           -0.0000  0.0000  0.0000 -0.0000  0.0000
                                           -0.0000 -0.0000  0.0000  0.0000 -0.0000
                                           -0.0000  0.0000 -0.0000 -0.0000  0.0000
                                           -0.0000  0.0000  0.0000 -0.0000  0.0000
                                           -0.0000  0.0000 -0.0000  0.0000  0.0000
                                           -0.0000 -0.0000  0.0000  0.0000 -0.0000
                                           -0.0000 -0.0000 -0.0000 -0.0000 -0.0000
                                            0.0000  0.0000 -0.0000 -0.0000
     9. (1.99999) CR ( 6)Br   3           s(  0.00%)p 1.00(100.00%)
                                           -0.0000  0.0000 -0.0000  0.0001  0.0000
                                           -0.0000  0.0000 -0.0000 -0.0000  0.0001
                                            0.0000 -0.0000  0.0000  1.0000 -0.0000
                                            0.0002 -0.0000 -0.0000  0.0000 -0.0000
                                           -0.0000  0.0000  0.0000 -0.0000  0.0000
                                           -0.0000  0.0000 -0.0000  0.0000 -0.0000
                                            0.0000 -0.0000  0.0000 -0.0000  0.0000
                                           -0.0000  0.0000  0.0000 -0.0000  0.0000
                                            0.0000  0.0000 -0.0000  0.0000 -0.0000
                                           -0.0000 -0.0000 -0.0000 -0.0000 -0.0000
                                           -0.0000 -0.0000 -0.0000  0.0000  0.0000
                                           -0.0000 -0.0000 -0.0000 -0.0000
    10. (2.00000) CR ( 7)Br   3           s(  0.00%)p 1.00(100.00%)
                                           -0.0000  0.0000 -0.0000  0.0000  0.0000
                                           -0.0000  0.0000 -0.0000 -0.0000  0.0000
                                            0.0000 -0.0000  0.0000 -0.0000  1.0000
                                            0.0000 -0.0000 -0.0000  0.0000 -0.0000
                                           -0.0000  0.0000  0.0000 -0.0000  0.0000
                                           -0.0000  0.0000 -0.0000  0.0000 -0.0000
                                            0.0000 -0.0000  0.0000 -0.0000  0.0000
                                           -0.0000  0.0000  0.0000 -0.0000  0.0000
                                            0.0000  0.0000 -0.0000  0.0000 -0.0000
                                           -0.0000 -0.0000 -0.0000 -0.0000 -0.0000
                                           -0.0000 -0.0000 -0.0000  0.0000  0.0000
                                           -0.0000 -0.0000 -0.0000 -0.0000
    11. (2.00002) CR ( 8)Br   3           s(  0.00%)p 1.00(100.00%)
                                           -0.0000  0.0000 -0.0000  0.0000  0.0000
                                           -0.0000  0.0000 -0.0000 -0.0000  0.0000
                                            0.0000 -0.0000  0.0000 -0.0000 -0.0000
                                            0.0000 -0.0000 -0.0000  0.0000  1.0000
                                           -0.0000 -0.0001 -0.0000 -0.0000  0.0000
                                           -0.0000  0.0000 -0.0000  0.0000  0.0000
                                           -0.0000  0.0000 -0.0000  0.0000 -0.0000
                                            0.0000  0.0000  0.0000 -0.0000  0.0000
                                            0.0000  0.0000 -0.0000  0.0000 -0.0000
                                            0.0000  0.0000 -0.0000 -0.0000 -0.0000
                                           -0.0000  0.0000  0.0000 -0.0000 -0.0000
                                           -0.0000 -0.0000 -0.0000 -0.0000
    12. (2.00000) CR ( 9)Br   3           s(  0.00%)p 1.00(100.00%)
                                           -0.0000  0.0000 -0.0000  0.0000  0.0000
                                           -0.0000  0.0000 -0.0000 -0.0000  0.0000
                                            0.0000 -0.0000  0.0000 -0.0000 -0.0000
                                            0.0000 -0.0000 -0.0000  0.0000 -0.0000
                                            1.0000 -0.0000 -0.0000 -0.0000  0.0000
                                           -0.0000  0.0000 -0.0000  0.0000  0.0000
                                           -0.0000  0.0000 -0.0000  0.0000 -0.0000
                                            0.0000  0.0000  0.0000 -0.0000  0.0000
                                            0.0000  0.0000 -0.0000  0.0000 -0.0000
                                            0.0000  0.0000 -0.0000 -0.0000 -0.0000
                                           -0.0000  0.0000  0.0000 -0.0000 -0.0000
                                           -0.0000 -0.0000 -0.0000 -0.0000
    13. (1.99767) CR (10)Br   3           s(  0.00%)p 0.00(  0.00%)d 1.00(100.00%)
                                           -0.0000  0.0000 -0.0000  0.0000  0.0000
                                           -0.0000  0.0000 -0.0000 -0.0000  0.0000
                                            0.0000 -0.0000  0.0000 -0.0000 -0.0000
                                            0.0001 -0.0000 -0.0000  0.0000 -0.0000
                                           -0.0000  0.0000  0.0000 -0.0000  0.0000
                                            1.0000  0.0000 -0.0000  0.0000 -0.0000
                                            0.0000 -0.0000  0.0000 -0.0000  0.0000
                                           -0.0000  0.0000  0.0000 -0.0000  0.0000
                                            0.0000  0.0000 -0.0000  0.0000 -0.0000
                                           -0.0000 -0.0000 -0.0000 -0.0000 -0.0000
                                           -0.0000 -0.0000 -0.0000  0.0000  0.0000
                                           -0.0000 -0.0000 -0.0000 -0.0000
    14. (1.99769) CR (11)Br   3           s(  0.00%)p 0.00(  0.00%)d 1.00(100.00%)
                                           -0.0000  0.0000 -0.0000  0.0000  0.0000
                                            0.0000 -0.0000 -0.0000 -0.0000  0.0000
                                            0.0000 -0.0000 -0.0000 -0.0000 -0.0000
                                            0.0000 -0.0000 -0.0000  0.0000  0.0000
                                            0.0000  0.0000  0.0000  0.0000  0.0000
                                           -0.0000  0.0000 -0.0000  0.0000  1.0000
                                            0.0000 -0.0000  0.0000 -0.0000  0.0000
                                           -0.0000  0.0000  0.0000 -0.0000  0.0000
                                            0.0000  0.0000 -0.0000  0.0000 -0.0000
                                           -0.0000 -0.0000 -0.0000 -0.0000 -0.0000
                                           -0.0000 -0.0000 -0.0000  0.0000  0.0000
                                           -0.0000 -0.0000 -0.0000 -0.0000
    15. (1.99767) CR (12)Br   3           s(  0.00%)p 0.00(  0.00%)d 1.00(100.00%)
                                           -0.0000  0.0000 -0.0000  0.0000  0.0000
                                           -0.0000  0.0000 -0.0000 -0.0000  0.0000
                                            0.0000 -0.0000  0.0000 -0.0000 -0.0000
                                            0.0000 -0.0000 -0.0000  0.0000  0.0000
                                            0.0000  0.0000  0.0000 -0.0000  0.0000
                                           -0.0000  0.0000 -0.0000  0.0000 -0.0000
                                            0.0000 -0.0000  0.0000  1.0000  0.0000
                                           -0.0000  0.0000  0.0000 -0.0000  0.0000
                                            0.0000  0.0000 -0.0000  0.0000 -0.0000
                                           -0.0000 -0.0000 -0.0000 -0.0000 -0.0000
                                           -0.0000 -0.0000 -0.0000  0.0000  0.0000
                                           -0.0000 -0.0000 -0.0000 -0.0000
    16. (1.99765) CR (13)Br   3           s(  0.00%)p 0.00(  0.00%)d 1.00(100.00%)
                                            0.0000 -0.0000  0.0000 -0.0001 -0.0000
                                            0.0000 -0.0000  0.0000  0.0000 -0.0000
                                           -0.0000  0.0000 -0.0000  0.0000  0.0000
                                           -0.0002  0.0000  0.0000 -0.0000  0.0000
                                            0.0000 -0.0000 -0.0000  0.0000 -0.0000
                                            0.0000 -0.0000  0.0000 -0.0000  0.0000
                                           -0.0000  0.0000 -0.0000  0.0000 -0.0000
                                            0.0000 -0.0000  1.0000  0.0000 -0.0000
                                           -0.0000 -0.0000  0.0000 -0.0000  0.0000
                                            0.0000  0.0000  0.0000  0.0000  0.0000
                                            0.0000  0.0000  0.0000 -0.0000 -0.0000
                                            0.0000  0.0000  0.0000  0.0000
    17. (1.99768) CR (14)Br   3           s(  0.00%)p 0.00(  0.00%)d 1.00(100.00%)
                                            0.0000 -0.0000  0.0000 -0.0000 -0.0000
                                            0.0000 -0.0000  0.0000  0.0000 -0.0000
                                           -0.0000  0.0000 -0.0000  0.0000  0.0000
                                           -0.0001  0.0000  0.0000 -0.0000  0.0000
                                            0.0000 -0.0000 -0.0000  0.0000 -0.0000
                                            0.0000 -0.0000  0.0000 -0.0000  0.0000
                                           -0.0000  0.0000 -0.0000  0.0000 -0.0000
                                            0.0000 -0.0000 -0.0000  0.0000 -0.0000
                                           -0.0000  1.0000  0.0000 -0.0000  0.0000
                                            0.0000  0.0000  0.0000  0.0000  0.0000
                                            0.0000  0.0000  0.0000 -0.0000 -0.0000
                                            0.0000  0.0000  0.0000  0.0000
    18. (1.96987) LP ( 1) O   1           s( 52.61%)p 0.90( 47.27%)d 0.00(  0.11%)
                                                  f 0.00(  0.00%)
                                            0.0002  0.7253  0.0033  0.0017  0.0014
                                           -0.4095 -0.0049  0.0023  0.0000  0.5419
                                            0.0084 -0.0046  0.0009 -0.1062 -0.0017
                                            0.0008  0.0003  0.0286 -0.0039  0.0014
                                           -0.0061  0.0010  0.0001  0.0061 -0.0009
                                           -0.0004  0.0047 -0.0001  0.0014  0.0129
                                           -0.0018 -0.0011  0.0014 -0.0005  0.0027
                                           -0.0006 -0.0025  0.0008  0.0007 -0.0003
                                            0.0011 -0.0006  0.0011 -0.0015  0.0011
                                           -0.0003
    19. (1.95969) LP ( 2) O   1           s(  0.00%)p 1.00( 99.79%)d 0.00(  0.20%)
                                                  f 0.00(  0.01%)
                                           -0.0000 -0.0002  0.0027  0.0021 -0.0003
                                           -0.0040  0.0005 -0.0001  0.0001  0.1894
                                            0.0052 -0.0010  0.0003  0.9804  0.0285
                                           -0.0068  0.0031  0.0063 -0.0007  0.0002
                                            0.0327 -0.0036  0.0006 -0.0259  0.0024
                                           -0.0039  0.0055 -0.0006  0.0006  0.0110
                                           -0.0014  0.0003 -0.0086  0.0024 -0.0007
                                            0.0002 -0.0046  0.0018 -0.0002  0.0012
                                            0.0021 -0.0005 -0.0004 -0.0001  0.0000
                                            0.0001
    20. (1.97986) LP ( 1)Br   3           s( 96.71%)p 0.03(  3.29%)d 0.00(  0.00%)
                                                  f 0.00(  0.00%)
                                            0.0000 -0.0000  0.0000  0.9834 -0.0002
                                            0.0001 -0.0001 -0.0000 -0.0000 -0.0353
                                            0.0003 -0.0001  0.0001 -0.0001 -0.0000
                                           -0.1769  0.0007 -0.0006  0.0001 -0.0000
                                           -0.0000 -0.0178  0.0001 -0.0001  0.0001
                                           -0.0000  0.0004 -0.0002 -0.0002 -0.0000
                                           -0.0000 -0.0000 -0.0000 -0.0000  0.0001
                                           -0.0001 -0.0001  0.0000 -0.0007  0.0002
                                            0.0003  0.0000 -0.0006  0.0002  0.0002
                                           -0.0001 -0.0001 -0.0001 -0.0001 -0.0004
                                           -0.0003 -0.0001 -0.0001  0.0000  0.0000
                                           -0.0003 -0.0002 -0.0004 -0.0002
    21. (1.95427) LP ( 2)Br   3           s(  0.00%)p 1.00( 99.99%)d 0.00(  0.00%)
                                                  f 0.00(  0.00%)
                                           -0.0000 -0.0000  0.0000  0.0027  0.0001
                                           -0.0005  0.0011  0.0000  0.0000  0.1458
                                            0.0003  0.0002 -0.0001  0.0000  0.0000
                                            0.0849 -0.0004 -0.0002  0.0002 -0.0001
                                           -0.0000 -0.9856 -0.0007 -0.0009 -0.0000
                                           -0.0000  0.0012 -0.0004  0.0000  0.0000
                                           -0.0022  0.0010 -0.0009  0.0000 -0.0051
                                            0.0012  0.0011  0.0000  0.0001 -0.0002
                                            0.0005  0.0000 -0.0019  0.0008 -0.0006
                                            0.0015  0.0009 -0.0003 -0.0002 -0.0010
                                           -0.0007  0.0014  0.0008 -0.0009 -0.0007
                                           -0.0004 -0.0002  0.0000  0.0001
    22. (1.95405) LP ( 3)Br   3           s(  0.00%)p 1.00( 99.99%)d 0.00(  0.01%)
                                                  f 0.00(  0.00%)
                                           -0.0000 -0.0000 -0.0000  0.0028 -0.0004
                                           -0.0015  0.0023 -0.0001 -0.0000 -0.9673
                                           -0.0020 -0.0013  0.0006  0.0000  0.0000
                                            0.2212 -0.0005 -0.0002  0.0008 -0.0000
                                           -0.0000 -0.1240 -0.0000 -0.0001  0.0000
                                            0.0000 -0.0057  0.0012  0.0008  0.0000
                                           -0.0015  0.0007 -0.0006  0.0000 -0.0003
                                           -0.0000  0.0002  0.0000 -0.0042  0.0015
                                           -0.0008 -0.0000  0.0005 -0.0004  0.0007
                                            0.0002  0.0001  0.0007  0.0005 -0.0002
                                           -0.0001 -0.0001 -0.0001 -0.0007 -0.0005
                                            0.0015  0.0007 -0.0016 -0.0011
    23. (1.91046) LP ( 4)Br   3           s(  3.28%)p29.46( 96.69%)d 0.01(  0.03%)
                                                  f 0.00(  0.00%)
                                           -0.0002  0.0000 -0.0000  0.1812  0.0013
                                           -0.0003  0.0005 -0.0000 -0.0000  0.2045
                                            0.0002 -0.0004  0.0001 -0.0002 -0.0000
                                            0.9551 -0.0028 -0.0023  0.0004 -0.0000
                                           -0.0000  0.1130  0.0007 -0.0002  0.0001
                                           -0.0001  0.0066 -0.0015  0.0004 -0.0000
                                            0.0011 -0.0003  0.0000 -0.0000  0.0047
                                           -0.0013  0.0005  0.0002 -0.0114  0.0023
                                            0.0006  0.0001 -0.0079  0.0018 -0.0003
                                           -0.0010 -0.0004 -0.0006 -0.0003 -0.0027
                                           -0.0013 -0.0011 -0.0005  0.0005  0.0001
                                           -0.0020 -0.0007 -0.0026 -0.0010
    24. (0.01943) RY*( 1) O   1           s(  0.01%)p99.99( 98.48%)d99.99(  1.49%)
                                                  f 1.45(  0.02%)
                                           -0.0000 -0.0002  0.0103  0.0057 -0.0011
                                            0.0003 -0.0011 -0.0005 -0.0000 -0.0060
                                            0.1865  0.0062 -0.0038 -0.0334  0.9735
                                            0.0296 -0.0153  0.0194 -0.0027 -0.0007
                                            0.0969 -0.0142 -0.0055 -0.0611  0.0121
                                            0.0028  0.0121 -0.0024 -0.0011  0.0276
                                           -0.0057 -0.0038 -0.0073  0.0087  0.0006
                                            0.0004 -0.0050  0.0056 -0.0033  0.0023
                                           -0.0014 -0.0008  0.0007 -0.0004 -0.0003
                                            0.0001
    25. (0.01506) RY*( 2) O   1           s( 21.00%)p 3.63( 76.30%)d 0.12(  2.61%)
                                                  f 0.00(  0.09%)
                                           -0.0000 -0.0094  0.4582  0.0030  0.0004
                                            0.0075 -0.4814 -0.0135  0.0054 -0.0094
                                            0.7145  0.0095 -0.0107  0.0013 -0.1418
                                           -0.0038  0.0038  0.1540 -0.0165 -0.0010
                                           -0.0338  0.0045  0.0023  0.0133 -0.0026
                                            0.0006 -0.0021  0.0037  0.0040  0.0237
                                           -0.0102 -0.0031 -0.0022 -0.0001  0.0018
                                           -0.0011  0.0032  0.0012 -0.0045  0.0011
                                            0.0065 -0.0043  0.0215 -0.0130  0.0120
                                           -0.0039
    26. (0.00697) RY*( 3) O   1           s(  1.64%)p44.04( 72.12%)d15.73( 25.76%)
                                                  f 0.30(  0.49%)
                                            0.0000 -0.0002  0.1195 -0.0432  0.0154
                                           -0.0594 -0.6888 -0.0412  0.0214 -0.0372
                                           -0.4811 -0.0210  0.0018  0.0053  0.0876
                                            0.0066 -0.0088 -0.2012 -0.0099 -0.0032
                                           -0.0139 -0.0004 -0.0013 -0.0143  0.0072
                                            0.0077  0.4601  0.0437  0.0253  0.0462
                                            0.0064  0.0068  0.0043 -0.0001 -0.0290
                                            0.0150 -0.0210  0.0097  0.0059 -0.0017
                                           -0.0032  0.0003  0.0225 -0.0154 -0.0446
                                            0.0221
    27. (0.00621) RY*( 4) O   1           s(  7.92%)p 0.30(  2.34%)d11.20( 88.70%)
                                                  f 0.13(  1.04%)
                                           -0.0000  0.0111  0.2810  0.0072  0.0044
                                            0.0078  0.1430  0.0080 -0.0075  0.0201
                                            0.0449 -0.0008 -0.0097 -0.0087 -0.0141
                                            0.0018 -0.0016 -0.6556 -0.0197  0.0013
                                           -0.2505 -0.0180 -0.0068 -0.5256 -0.0238
                                            0.0021 -0.1464 -0.0021 -0.0002  0.3078
                                            0.0251  0.0087 -0.0186  0.0117 -0.0004
                                            0.0056 -0.0061  0.0023 -0.0580  0.0318
                                           -0.0116  0.0048 -0.0603  0.0241 -0.0301
                                            0.0123
    28. (0.00615) RY*( 5) O   1           s(  6.03%)p 0.01(  0.07%)d15.39( 92.87%)
                                                  f 0.17(  1.02%)
                                            0.0000  0.0097  0.2454 -0.0033  0.0045
                                           -0.0058  0.0154 -0.0016 -0.0021  0.0135
                                           -0.0140 -0.0058 -0.0006  0.0003  0.0006
                                           -0.0022 -0.0021 -0.5282 -0.0129  0.0028
                                            0.5165  0.0271  0.0063  0.5600  0.0360
                                            0.0071 -0.2429 -0.0073  0.0025 -0.0893
                                            0.0016  0.0077  0.0017 -0.0003 -0.0063
                                            0.0073  0.0379 -0.0218  0.0616 -0.0298
                                           -0.0172  0.0092 -0.0514  0.0192 -0.0120
                                            0.0026
    29. (0.00589) RY*( 6) O   1           s(  0.04%)p37.45(  1.64%)d99.99( 97.45%)
                                                  f19.71(  0.86%)
                                           -0.0000  0.0009  0.0209  0.0005  0.0005
                                            0.0025  0.0186  0.0008 -0.0008 -0.0080
                                           -0.0244 -0.0014 -0.0049 -0.0391 -0.1174
                                           -0.0085 -0.0036  0.1865  0.0125  0.0025
                                            0.7965  0.0592  0.0155 -0.4983 -0.0345
                                           -0.0012  0.0887  0.0069 -0.0004  0.2094
                                            0.0160  0.0013 -0.0630  0.0327  0.0153
                                           -0.0074 -0.0253  0.0135  0.0260 -0.0133
                                           -0.0344  0.0160  0.0102 -0.0047  0.0080
                                           -0.0036
    30. (0.00569) RY*( 7) O   1           s(  7.11%)p 0.72(  5.10%)d12.26( 87.17%)
                                                  f 0.09(  0.62%)
                                            0.0000  0.0212  0.2657 -0.0092  0.0039
                                            0.0331  0.1495  0.0097 -0.0042 -0.0385
                                           -0.1573 -0.0159 -0.0097  0.0075  0.0280
                                            0.0015 -0.0005  0.2661  0.0167  0.0019
                                           -0.0773 -0.0059 -0.0018  0.3428  0.0312
                                            0.0042  0.0277  0.0038 -0.0025  0.8185
                                            0.0726  0.0085  0.0257 -0.0129  0.0468
                                           -0.0220 -0.0406  0.0211  0.0138 -0.0070
                                            0.0171 -0.0082  0.0012 -0.0007  0.0039
                                            0.0000
    31. (0.00322) RY*( 8) O   1           s( 14.69%)p 1.54( 22.65%)d 4.20( 61.67%)
                                                  f 0.07(  0.99%)
                                           -0.0000 -0.0055  0.3832  0.0004  0.0041
                                            0.0302 -0.1898 -0.0049 -0.0126  0.0272
                                           -0.4205 -0.0404 -0.0614 -0.0047  0.0785
                                            0.0104 -0.0082  0.3031  0.0346 -0.0091
                                           -0.0528 -0.0080 -0.0018 -0.1576 -0.0075
                                            0.0198 -0.6739 -0.0559  0.0535 -0.1858
                                           -0.0266  0.0117 -0.0172  0.0168  0.0185
                                           -0.0109  0.0257 -0.0216 -0.0269  0.0188
                                            0.0068 -0.0080 -0.0074 -0.0105  0.0725
                                           -0.0335
    32. (0.00229) RY*( 9) O   1           s( 40.31%)p 0.55( 22.16%)d 0.92( 36.95%)
                                                  f 0.01(  0.58%)
                                            0.0000 -0.0054  0.6332 -0.0063 -0.0462
                                           -0.0187  0.4496  0.0333 -0.0057 -0.0067
                                           -0.1135 -0.0526 -0.0440  0.0001  0.0182
                                            0.0056 -0.0028  0.1111  0.0258  0.0183
                                           -0.0232 -0.0064 -0.0037 -0.0167 -0.0030
                                            0.0079  0.4559  0.1090 -0.0524 -0.3472
                                           -0.1080  0.0234 -0.0097  0.0082 -0.0164
                                            0.0385  0.0068 -0.0041 -0.0050  0.0076
                                            0.0072 -0.0020  0.0384 -0.0456 -0.0113
                                           -0.0032
    33. (0.00073) RY*(10) O   1           s( 47.20%)p 0.94( 44.22%)d 0.15(  7.09%)
                                                  f 0.03(  1.49%)
                                           -0.0000 -0.0048 -0.0383  0.6827 -0.0666
                                            0.0002 -0.0407  0.0811 -0.1186 -0.0015
                                            0.0078 -0.6454 -0.0526 -0.0023 -0.0029
                                            0.0098  0.0206 -0.0199  0.0977  0.1317
                                            0.0037  0.0161  0.0063  0.0133  0.0264
                                           -0.0287  0.0142 -0.0205 -0.0658  0.0232
                                           -0.0855 -0.1698 -0.0548  0.0028  0.0084
                                           -0.0016  0.0128  0.0314 -0.0631  0.0044
                                            0.0257 -0.0033 -0.0003  0.0454  0.0354
                                            0.0519
    34. (0.00055) RY*(11) O   1           s(  0.17%)p99.99( 59.63%)d99.99( 37.04%)
                                                  f19.03(  3.16%)
                                           -0.0000 -0.0004 -0.0094  0.0378  0.0122
                                           -0.0005 -0.0014  0.0200 -0.0042  0.0008
                                            0.0008  0.1087 -0.0201  0.0016 -0.0416
                                            0.7628  0.0006  0.0020 -0.0461 -0.0057
                                            0.0218 -0.2455 -0.0634 -0.0151  0.5145
                                            0.0900  0.0081 -0.0877 -0.0245  0.0070
                                           -0.1440 -0.0359 -0.1322  0.0307  0.0180
                                            0.0014 -0.0732  0.0206 -0.0681  0.0051
                                           -0.0471 -0.0051  0.0046  0.0069 -0.0077
                                            0.0059
    35. (0.00048) RY*(12) O   1           s(  4.66%)p 4.13( 19.26%)d12.21( 56.93%)
                                                  f 4.11( 19.15%)
                                            0.0000  0.0043 -0.0009  0.1959  0.0907
                                            0.0053  0.0110 -0.3151 -0.0329 -0.0053
                                           -0.0290  0.2784 -0.0340 -0.0012  0.0009
                                           -0.1114 -0.0114 -0.0353 -0.3250  0.0356
                                            0.0087  0.0308 -0.0084  0.0234 -0.1432
                                           -0.0488 -0.0037 -0.1490 -0.0121  0.0620
                                           -0.6202 -0.1604 -0.0395 -0.0033  0.1776
                                           -0.0096 -0.0375  0.0135 -0.0829 -0.0013
                                            0.0910 -0.0036  0.3557  0.0041  0.1219
                                            0.0136
    36. (0.00046) RY*(13) O   1           s(  0.13%)p99.67( 12.87%)d84.53( 10.92%)
                                                  f99.99( 76.08%)
                                           -0.0000  0.0001  0.0020  0.0349  0.0084
                                            0.0010  0.0012 -0.0209 -0.0044 -0.0001
                                           -0.0039  0.0464  0.0133  0.0028 -0.0014
                                            0.3436  0.0886 -0.0045  0.0090  0.0094
                                            0.0113  0.2053  0.0085 -0.0204 -0.2550
                                            0.0093  0.0042  0.0232 -0.0022  0.0137
                                            0.0006 -0.0184  0.1663  0.0082 -0.1864
                                            0.0009  0.1323  0.0032  0.1833 -0.0007
                                            0.7919 -0.0015 -0.1300  0.0001  0.0572
                                            0.0020
    37. (0.00044) RY*(14) O   1           s(  0.19%)p 8.31(  1.58%)d40.50(  7.72%)
                                                  f99.99( 90.51%)
                                            0.0000  0.0010 -0.0038  0.0429  0.0073
                                           -0.0023 -0.0026 -0.0584 -0.0202 -0.0004
                                           -0.0110  0.0909 -0.0019  0.0008 -0.0010
                                           -0.0591 -0.0107  0.0509 -0.0365 -0.0497
                                            0.0019 -0.0722 -0.0018 -0.0027  0.0327
                                            0.0092  0.0301 -0.0574 -0.0310  0.0760
                                           -0.2200 -0.0714 -0.0316 -0.0044 -0.4798
                                           -0.0090  0.7384  0.0232 -0.0808 -0.0038
                                           -0.2096 -0.0002 -0.2783  0.0056 -0.0032
                                            0.0067
    38. (0.00044) RY*(15) O   1           s(  0.00%)p 1.00(  1.24%)d 9.45( 11.67%)
                                                  f70.51( 87.09%)
                                            0.0000  0.0006 -0.0019  0.0044  0.0021
                                           -0.0012 -0.0008 -0.0077 -0.0067 -0.0012
                                           -0.0043  0.0918 -0.0009 -0.0037  0.0046
                                            0.0602  0.0118  0.0158  0.0284 -0.0166
                                           -0.0215  0.1971  0.0208  0.0842 -0.2374
                                           -0.0955 -0.0044  0.0395  0.0036 -0.0024
                                            0.0371  0.0095 -0.7708 -0.0132 -0.2265
                                           -0.0022 -0.2241  0.0009 -0.3781 -0.0098
                                            0.0563 -0.0013 -0.1506  0.0024 -0.0784
                                           -0.0006
    39. (0.00040) RY*(16) O   1           s(  0.21%)p23.85(  5.04%)d55.19( 11.67%)
                                                  f99.99( 83.07%)
                                            0.0000  0.0013 -0.0081  0.0341  0.0297
                                           -0.0014  0.0078 -0.1601 -0.0706 -0.0033
                                            0.0043  0.0053 -0.0774 -0.0020 -0.0045
                                           -0.1141 -0.0259  0.0094 -0.1322  0.0132
                                            0.0216 -0.0706 -0.0299 -0.0076  0.1511
                                           -0.0195 -0.0398  0.2422 -0.0368  0.0109
                                           -0.0840 -0.0237  0.2783  0.0207 -0.6183
                                           -0.0457 -0.5165 -0.0332 -0.0347  0.0029
                                           -0.0458 -0.0099 -0.1457 -0.0036  0.2744
                                            0.0269
    40. (0.00041) RY*(17) O   1           s(  1.18%)p27.98( 32.96%)d 8.88( 10.46%)
                                                  f47.04( 55.41%)
                                            0.0000 -0.0009 -0.0021  0.0823  0.0707
                                           -0.0103 -0.0379  0.4983 -0.0098 -0.0067
                                           -0.0128  0.2548 -0.0417  0.0002  0.0066
                                           -0.1105 -0.0242 -0.0368  0.1676  0.0577
                                           -0.0381  0.1303  0.0494 -0.0049  0.0956
                                           -0.0023  0.0645 -0.1201 -0.0681  0.0097
                                           -0.1345 -0.0194 -0.1602 -0.0143  0.1209
                                            0.0331 -0.0306  0.0141  0.2517  0.0147
                                           -0.0306  0.0036 -0.2173 -0.0179  0.6305
[...]
                                            0.0250 -0.0008  0.0180
   130. (0.00355) RY*( 3) H   4           s(  3.76%)p25.41( 95.55%)d 0.18(  0.69%)
                                           -0.0177  0.1323  0.1398  0.0155  0.6843
                                            0.0163 -0.0114 -0.5511  0.0815 -0.0258
                                            0.4148  0.0608 -0.0073 -0.0659  0.0217
                                           -0.0046  0.0003 -0.0079  0.0099  0.0180
                                            0.0168 -0.0357  0.0046
   131. (0.00261) RY*( 4) H   4           s( 20.82%)p 3.76( 78.17%)d 0.05(  1.02%)
                                           -0.0046  0.4042  0.2082  0.0380 -0.6700
                                            0.0406 -0.0130 -0.4850  0.2106 -0.0096
                                            0.2228  0.0316 -0.0260  0.0521 -0.0449
                                            0.0192 -0.0015  0.0083 -0.0005  0.0312
                                            0.0417  0.0444  0.0175
   132. (0.00047) RY*( 5) H   4           s( 13.76%)p 5.79( 79.66%)d 0.48(  6.58%)
                                           -0.0012 -0.0408  0.2818 -0.2378  0.0307
                                            0.8399 -0.1044  0.1094  0.0187 -0.0044
                                           -0.0685  0.2463 -0.0394 -0.0453  0.0623
                                            0.0278 -0.0167  0.0720  0.0125  0.2152
                                            0.0236  0.0724  0.0371
   133. (0.00040) RY*( 6) H   4           s(  4.15%)p20.37( 84.50%)d 2.74( 11.36%)
                                           -0.0017 -0.0628  0.1525  0.1195  0.0448
                                           -0.3181 -0.0275  0.1039  0.3753 -0.1565
                                           -0.1499  0.7365  0.0031 -0.1053 -0.0818
                                            0.0105  0.0266  0.2385  0.0580  0.0142
                                            0.0760  0.1685  0.0187
   134. (0.00029) RY*( 7) H   4           s(  0.88%)p68.37( 60.36%)d43.90( 38.75%)
                                            0.0017  0.0804 -0.0074 -0.0480 -0.0250
                                            0.0224  0.1461 -0.0958 -0.2478  0.5959
                                           -0.0418  0.3898  0.0418  0.1748  0.1942
                                           -0.0254 -0.0012  0.1209 -0.0234 -0.3227
                                           -0.3158 -0.1947 -0.2485
   135. (0.00022) RY*( 8) H   4           s(  6.84%)p 2.56( 17.46%)d11.07( 75.70%)
                                            0.0002 -0.0113  0.2478 -0.0826 -0.0046
                                           -0.0839 -0.0519  0.0596 -0.0816  0.0975
                                            0.0939 -0.3164  0.1904 -0.2433  0.0563
                                           -0.1207 -0.0334  0.7270 -0.1731 -0.0986
                                           -0.0769  0.3237  0.0069
   136. (0.00019) RY*( 9) H   4           s(  2.40%)p 4.46( 10.69%)d36.28( 86.91%)
                                            0.0025  0.0265 -0.0459  0.1454 -0.0924
                                            0.0614 -0.2800 -0.0153 -0.0847  0.0415
                                           -0.0109  0.0749 -0.0372 -0.7318  0.0382
                                           -0.4436 -0.0427 -0.1722  0.0640 -0.1955
                                            0.0487 -0.2431 -0.0118
   137. (0.00020) RY*(10) H   4           s( 17.78%)p 3.71( 66.06%)d 0.91( 16.16%)
                                           -0.0178 -0.0951  0.3735 -0.1702  0.0718
                                           -0.0634  0.0349  0.1819  0.6177  0.3752
                                           -0.0194 -0.2504 -0.1780 -0.0162  0.0202
                                           -0.0512 -0.0137 -0.3007 -0.0696 -0.2416
                                           -0.0436  0.0503 -0.0076
   138. (0.00014) RY*(11) H   4           s(  0.42%)p11.46(  4.80%)d99.99( 94.78%)
                                            0.0008  0.0000  0.0425  0.0488 -0.0288
                                           -0.0357 -0.1561  0.0046 -0.0774  0.0744
                                           -0.0011 -0.0104 -0.0996 -0.3983  0.0441
                                            0.8669  0.0627 -0.0210 -0.1272 -0.0931
                                           -0.0084 -0.0769 -0.0229
   139. (0.00015) RY*(12) H   4           s(  8.20%)p 2.99( 24.53%)d 8.21( 67.27%)
                                            0.0104 -0.0001  0.2582 -0.1233 -0.0167
                                           -0.1904  0.0248 -0.0552 -0.4206 -0.0132
                                           -0.0281  0.0994 -0.1320 -0.1104  0.1026
                                           -0.0562 -0.0097 -0.4222  0.0242  0.1068
                                           -0.1589  0.6513 -0.0838
   140. (0.00012) RY*(13) H   4           s( 11.44%)p 0.97( 11.09%)d 6.77( 77.47%)
                                            0.0004  0.0352 -0.2277  0.2476  0.0419
                                            0.2779 -0.1308 -0.0293  0.0359 -0.0550
                                            0.0071  0.0021  0.0981  0.1425 -0.0796
                                            0.0704  0.0521 -0.0428  0.1992 -0.6844
                                            0.1165  0.4345  0.1676
   141. (0.00010) RY*(14) H   4           s(  3.89%)p10.86( 42.29%)d13.82( 53.82%)
                                            0.0046  0.0022  0.0352  0.1941  0.0148
                                            0.0381  0.0123  0.0167 -0.1451 -0.1011
                                            0.0132  0.0759 -0.6194  0.1439 -0.0092
                                           -0.1060 -0.2069  0.0823 -0.6259 -0.1598
                                            0.1394 -0.0289  0.1377
   142. (0.00009) RY*(15) H   4           s(  0.06%)p99.99( 36.51%)d99.99( 63.43%)
   143. (0.00007) RY*(16) H   4           s( 72.70%)p 0.14( 10.49%)d 0.23( 16.81%)
   144. (0.00005) RY*(17) H   4           s( 37.94%)p 0.54( 20.60%)d 1.09( 41.45%)
   145. (0.00005) RY*(18) H   4           s(  0.70%)p 1.90(  1.32%)d99.99( 97.98%)
   146. (0.00005) RY*(19) H   4           s(  2.99%)p 0.85(  2.55%)d31.57( 94.46%)
   147. (0.00003) RY*(20) H   4           s(  0.59%)p64.50( 38.15%)d99.99( 61.25%)
   148. (0.00003) RY*(21) H   4           s(  0.07%)p99.99( 47.05%)d99.99( 52.89%)
   149. (0.00003) RY*(22) H   4           s( 10.83%)p 4.52( 48.92%)d 3.72( 40.25%)
   150. (0.02147) BD*( 1) O   1 - H   2  
                ( 27.17%)   0.5213* O   1 s( 20.99%)p 3.74( 78.53%)d 0.02(  0.46%)
                                                  f 0.00(  0.01%)
                                           -0.0002 -0.4582  0.0049  0.0017  0.0023
                                           -0.8837  0.0314 -0.0091  0.0030 -0.0547
                                            0.0140 -0.0009  0.0032  0.0068 -0.0028
                                            0.0001 -0.0003  0.0191 -0.0032 -0.0008
                                           -0.0046  0.0009  0.0005  0.0013  0.0001
                                            0.0008 -0.0543  0.0040  0.0041  0.0348
                                           -0.0019  0.0002 -0.0001  0.0000  0.0096
                                           -0.0002  0.0002 -0.0000  0.0004 -0.0002
                                            0.0022 -0.0011 -0.0037 -0.0038 -0.0020
                                            0.0008
                ( 72.83%)  -0.8534* H   2 s( 99.88%)p 0.00(  0.12%)d 0.00(  0.00%)
                                           -0.9994 -0.0035  0.0001 -0.0002 -0.0174
                                           -0.0273  0.0049  0.0095  0.0039  0.0023
                                           -0.0037 -0.0012 -0.0003  0.0003 -0.0026
                                           -0.0001  0.0005  0.0009  0.0003  0.0012
                                           -0.0014  0.0011  0.0011
   151. (0.06280) BD*( 1) O   1 - H   4  
                ( 22.43%)   0.4736* O   1 s( 26.31%)p 2.79( 73.27%)d 0.02(  0.41%)
                                                  f 0.00(  0.01%)
                                            0.0003  0.5129 -0.0028 -0.0016 -0.0013
                                           -0.2117  0.0186 -0.0019  0.0013 -0.8141
                                            0.0141 -0.0064  0.0020  0.1566 -0.0019
                                            0.0015 -0.0013 -0.0037  0.0026  0.0013
                                            0.0007 -0.0006 -0.0004 -0.0217  0.0016
                                           -0.0001 -0.0508  0.0035  0.0008 -0.0320
                                            0.0020 -0.0014 -0.0038  0.0002  0.0017
                                            0.0001  0.0075 -0.0004 -0.0027 -0.0003
                                            0.0011  0.0004  0.0026  0.0015  0.0015
                                            0.0019
                ( 77.57%)  -0.8807* H   4 s( 99.90%)p 0.00(  0.09%)d 0.00(  0.00%)
                                            0.9992  0.0250  0.0008 -0.0003  0.0164
                                            0.0023  0.0011  0.0013  0.0231  0.0092
                                            0.0052 -0.0047 -0.0016 -0.0017 -0.0019
                                            0.0005  0.0004 -0.0004  0.0004  0.0029
                                           -0.0008 -0.0005 -0.0013


 NHO Directionality and "Bond Bending" (deviations from line of nuclear centers)

         [Thresholds for printing:  angular deviation  >  1.0 degree]
                                    hybrid p-character > 25.0%
                                    orbital occupancy  >  0.10e

                                Line of Centers        Hybrid 1              Hybrid 2
                                ---------------  -------------------   ------------------
                NBO               Theta   Phi    Theta   Phi    Dev    Theta   Phi    Dev
 ========================================================================================
     1. BD (   1) O   1 - H   2    90.0    0.0    90.3    2.6   2.6      --     --    --
     2. BD (   1) O   1 - H   4    80.0  258.3    79.4  256.5   2.0      --     --    --
    18. LP (   1) O   1             --     --     98.9  127.0   --       --     --    --
    19. LP (   2) O   1             --     --     10.9   91.0   --       --     --    --
    21. LP (   2)Br   3             --     --    170.3   30.0   --       --     --    --
    22. LP (   3)Br   3             --     --     97.1  167.1   --       --     --    --
    23. LP (   4)Br   3             --     --     83.3   77.9   --       --     --    --


 Natural Bond Orbitals (Summary):

           NBO                  Occupancy  
 -----------------------------------------------
 Molecular unit  1  (H2O)
     1. BD (   1) O   1 - H   2          1.96584
     2. BD (   1) O   1 - H   4          1.96788
     3. CR (   1) O   1                  1.99967
    18. LP (   1) O   1                  1.96987
    19. LP (   2) O   1                  1.95969
    24. RY*(   1) O   1                  0.01943
    25. RY*(   2) O   1                  0.01506
    26. RY*(   3) O   1                  0.00697
    27. RY*(   4) O   1                  0.00621
    28. RY*(   5) O   1                  0.00615
    29. RY*(   6) O   1                  0.00589
    30. RY*(   7) O   1                  0.00569
    31. RY*(   8) O   1                  0.00322
    32. RY*(   9) O   1                  0.00229
    33. RY*(  10) O   1                  0.00073
    34. RY*(  11) O   1                  0.00055
    35. RY*(  12) O   1                  0.00048
    36. RY*(  13) O   1                  0.00046
    37. RY*(  14) O   1                  0.00044
    38. RY*(  15) O   1                  0.00044
    39. RY*(  16) O   1                  0.00040
    40. RY*(  17) O   1                  0.00041
    41. RY*(  18) O   1                  0.00041
    42. RY*(  19) O   1                  0.00041
    43. RY*(  20) O   1                  0.00037
    44. RY*(  21) O   1                  0.00034
    45. RY*(  22) O   1                  0.00033
    46. RY*(  23) O   1                  0.00029
    47. RY*(  24) O   1                  0.00026
    48. RY*(  25) O   1                  0.00022
    49. RY*(  26) O   1                  0.00014
    50. RY*(  27) O   1                  0.00007
    51. RY*(  28) O   1                  0.00007
    52. RY*(  29) O   1                  0.00006
    53. RY*(  30) O   1                  0.00007
    54. RY*(  31) O   1                  0.00007
    55. RY*(  32) O   1                  0.00007
    56. RY*(  33) O   1                  0.00007
    57. RY*(  34) O   1                  0.00005
    58. RY*(  35) O   1                  0.00003
    59. RY*(  36) O   1                  0.00004
    60. RY*(  37) O   1                  0.00004
    61. RY*(  38) O   1                  0.00001
    62. RY*(  39) O   1                  0.00001
    63. RY*(  40) O   1                  0.00002
    64. RY*(  41) O   1                 -0.00003
    65. RY*(   1) H   2                  0.00495
    66. RY*(   2) H   2                  0.00225
    67. RY*(   3) H   2                  0.00188
    68. RY*(   4) H   2                  0.00083
    69. RY*(   5) H   2                  0.00029
    70. RY*(   6) H   2                  0.00021
    71. RY*(   7) H   2                  0.00018
    72. RY*(   8) H   2                  0.00010
    73. RY*(   9) H   2                  0.00011
    74. RY*(  10) H   2                  0.00010
    75. RY*(  11) H   2                  0.00009
    76. RY*(  12) H   2                  0.00007
    77. RY*(  13) H   2                  0.00007
    78. RY*(  14) H   2                  0.00005
    79. RY*(  15) H   2                  0.00004
    80. RY*(  16) H   2                  0.00004
    81. RY*(  17) H   2                  0.00003
    82. RY*(  18) H   2                  0.00002
    83. RY*(  19) H   2                  0.00002
    84. RY*(  20) H   2                  0.00003
    85. RY*(  21) H   2                  0.00002
    86. RY*(  22) H   2                  0.00001
   128. RY*(   1) H   4                  0.00829
   129. RY*(   2) H   4                  0.00392
   130. RY*(   3) H   4                  0.00355
   131. RY*(   4) H   4                  0.00261
   132. RY*(   5) H   4                  0.00047
   133. RY*(   6) H   4                  0.00040
   134. RY*(   7) H   4                  0.00029
   135. RY*(   8) H   4                  0.00022
   136. RY*(   9) H   4                  0.00019
   137. RY*(  10) H   4                  0.00020
   138. RY*(  11) H   4                  0.00014
   139. RY*(  12) H   4                  0.00015
   140. RY*(  13) H   4                  0.00012
   141. RY*(  14) H   4                  0.00010
   142. RY*(  15) H   4                  0.00009
   143. RY*(  16) H   4                  0.00007
   144. RY*(  17) H   4                  0.00005
   145. RY*(  18) H   4                  0.00005
   146. RY*(  19) H   4                  0.00005
   147. RY*(  20) H   4                  0.00003
   148. RY*(  21) H   4                  0.00003
   149. RY*(  22) H   4                  0.00003
   150. BD*(   1) O   1 - H   2          0.02147
   151. BD*(   1) O   1 - H   4          0.06280
       -------------------------------
              Total Lewis    9.86295  ( 98.0615%)
        Valence non-Lewis    0.08427  (  0.8378%)
        Rydberg non-Lewis    0.11070  (  1.1006%)
       -------------------------------
            Total unit  1   10.05792  (100.0000%)
           Charge unit  1   -0.05792

 Molecular unit  2  (Br)
     4. CR (   1)Br   3                  2.00001
     5. CR (   2)Br   3                  2.00000
     6. CR (   3)Br   3                  2.00000
     7. CR (   4)Br   3                  2.00002
     8. CR (   5)Br   3                  2.00000
     9. CR (   6)Br   3                  1.99999
    10. CR (   7)Br   3                  2.00000
    11. CR (   8)Br   3                  2.00002
    12. CR (   9)Br   3                  2.00000
    13. CR (  10)Br   3                  1.99767
    14. CR (  11)Br   3                  1.99769
    15. CR (  12)Br   3                  1.99767
    16. CR (  13)Br   3                  1.99765
    17. CR (  14)Br   3                  1.99768
    20. LP (   1)Br   3                  1.97986
    21. LP (   2)Br   3                  1.95427
    22. LP (   3)Br   3                  1.95405
    23. LP (   4)Br   3                  1.91046
    87. RY*(   1)Br   3                  0.01875
    88. RY*(   2)Br   3                  0.01873
    89. RY*(   3)Br   3                  0.01865
    90. RY*(   4)Br   3                  0.01864
    91. RY*(   5)Br   3                  0.01812
    92. RY*(   6)Br   3                  0.01175
    93. RY*(   7)Br   3                  0.01172
    94. RY*(   8)Br   3                  0.00999
    95. RY*(   9)Br   3                  0.00291
    96. RY*(  10)Br   3                  0.00180
    97. RY*(  11)Br   3                  0.00180
    98. RY*(  12)Br   3                  0.00176
    99. RY*(  13)Br   3                  0.00176
   100. RY*(  14)Br   3                  0.00176
   101. RY*(  15)Br   3                  0.00176
   102. RY*(  16)Br   3                  0.00176
   103. RY*(  17)Br   3                  0.00176
   104. RY*(  18)Br   3                  0.00176
   105. RY*(  19)Br   3                  0.00148
   106. RY*(  20)Br   3                  0.00146
   107. RY*(  21)Br   3                  0.00130
   108. RY*(  22)Br   3                  0.00082
   109. RY*(  23)Br   3                  0.00082
   110. RY*(  24)Br   3                  0.00078
   111. RY*(  25)Br   3                  0.00045
   112. RY*(  26)Br   3                  0.00025
   113. RY*(  27)Br   3                  0.00024
   114. RY*(  28)Br   3                  0.00025
   115. RY*(  29)Br   3                  0.00025
   116. RY*(  30)Br   3                  0.00025
   117. RY*(  31)Br   3                  0.00024
   118. RY*(  32)Br   3                  0.00025
   119. RY*(  33)Br   3                  0.00021
   120. RY*(  34)Br   3                  0.00021
   121. RY*(  35)Br   3                  0.00015
   122. RY*(  36)Br   3                  0.00015
   123. RY*(  37)Br   3                  0.00015
   124. RY*(  38)Br   3                  0.00007
   125. RY*(  39)Br   3                  0.00004
   126. RY*(  40)Br   3                  0.00005
   127. RY*(  41)Br   3                  0.00005
       -------------------------------
              Total Lewis   35.78702  ( 99.5686%)
        Valence non-Lewis    0.00000  (  0.0000%)
        Rydberg non-Lewis    0.15506  (  0.4314%)
       -------------------------------
            Total unit  2   35.94208  (100.0000%)
           Charge unit  2   -0.94208
 Leave Link  607 at Wed Oct 20 14:54:45 2021, MaxMem= 16106127360 cpu:              70.5 elap:               2.6
 (Enter /sw/contrib/gaussian/g16/B01/g16/l9999.exe)
 1\1\GINC-N2183\SP\RMP2-FC\Aug-CC-pVTZ\Br1H2O1(1-)\CGAVINH\20-Oct-2021\
 0\\#p pop=NBO SP NoSymm mp2/aug-cc-pvtz density=current\\title\\-1,1\O
 \X,1,10.\H,1,0.96048156,2,90.\Br,1,3.25083182,2,90.,3,101.65547111,0\H
 ,1,0.98806,2,80.,3,101.65547111,0\\Version=ES64L-G16RevB.01\HF=-2648.6
 063441\MP2=-2649.1252191\RMSD=6.902e-09\Dipole=0.5885071,0.1690032,0.0
 567411\Quadrupole=10.9353838,-21.2960255,10.3606417,-6.1908052,-0.0393
 116,-0.0700277\PG=C01 [X(Br1H2O1)]\\@


 EDUCATION IS NOT TRAINING BUT RATHER THE PROCESS THAT EQUIPS YOU TO
 ENTERTAIN YOURSELF, A FRIEND, OR AN IDEA.  -- WALLACE STERLING
 Job cpu time:       0 days  0 hours  4 minutes 23.8 seconds.
 Elapsed time:       0 days  0 hours  0 minutes 12.2 seconds.
 File lengths (MBytes):  RWF=     11 Int=      0 D2E=      0 Chk=      8 Scr=      1
 Normal termination of Gaussian 16 at Wed Oct 20 14:54:45 2021.
