 Entering Gaussian System, Link 0=g16
 Input=brhod_pp_oop_15_sp.gjf
 Output=brhod_pp_oop_15_sp.log
 Initial command:
 /sw/contrib/gaussian/g16/B01/g16/l1.exe "/scr/Gau-2681.inp" -scrdir="/scr/"
 Entering Link 1 = /sw/contrib/gaussian/g16/B01/g16/l1.exe PID=      2682.
  
 Copyright (c) 1988-2017, Gaussian, Inc.  All Rights Reserved.
  
 This is part of the Gaussian(R) 16 program.  It is based on
 the Gaussian(R) 09 system (copyright 2009, Gaussian, Inc.),
 the Gaussian(R) 03 system (copyright 2003, Gaussian, Inc.),
 the Gaussian(R) 98 system (copyright 1998, Gaussian, Inc.),
 the Gaussian(R) 94 system (copyright 1995, Gaussian, Inc.),
 the Gaussian 92(TM) system (copyright 1992, Gaussian, Inc.),
 the Gaussian 90(TM) system (copyright 1990, Gaussian, Inc.),
 the Gaussian 88(TM) system (copyright 1988, Gaussian, Inc.),
 the Gaussian 86(TM) system (copyright 1986, Carnegie Mellon
 University), and the Gaussian 82(TM) system (copyright 1983,
 Carnegie Mellon University). Gaussian is a federally registered
 trademark of Gaussian, Inc.
  
 This software contains proprietary and confidential information,
 including trade secrets, belonging to Gaussian, Inc.
  
 This software is provided under written license and may be
 used, copied, transmitted, or stored only in accord with that
 written license.
  
 The following legend is applicable only to US Government
 contracts under FAR:
  
                    RESTRICTED RIGHTS LEGEND
  
 Use, reproduction and disclosure by the US Government is
 subject to restrictions as set forth in subparagraphs (a)
 and (c) of the Commercial Computer Software - Restricted
 Rights clause in FAR 52.227-19.
  
 Gaussian, Inc.
 340 Quinnipiac St., Bldg. 40, Wallingford CT 06492
  
  
 ---------------------------------------------------------------
 Warning -- This program may not be used in any manner that
 competes with the business of Gaussian, Inc. or will provide
 assistance to any competitor of Gaussian, Inc.  The licensee
 of this program is prohibited from giving any competitor of
 Gaussian, Inc. access to this program.  By using this program,
 the user acknowledges that Gaussian, Inc. is engaged in the
 business of creating and licensing software in the field of
 computational chemistry and represents and warrants to the
 licensee that it is not a competitor of Gaussian, Inc. and that
 it will not use this program in any manner prohibited above.
 ---------------------------------------------------------------
  

 Cite this work as:
 Gaussian 16, Revision B.01,
 M. J. Frisch, G. W. Trucks, H. B. Schlegel, G. E. Scuseria, 
 M. A. Robb, J. R. Cheeseman, G. Scalmani, V. Barone, 
 G. A. Petersson, H. Nakatsuji, X. Li, M. Caricato, A. V. Marenich, 
 J. Bloino, B. G. Janesko, R. Gomperts, B. Mennucci, H. P. Hratchian, 
 J. V. Ortiz, A. F. Izmaylov, J. L. Sonnenberg, D. Williams-Young, 
 F. Ding, F. Lipparini, F. Egidi, J. Goings, B. Peng, A. Petrone, 
 T. Henderson, D. Ranasinghe, V. G. Zakrzewski, J. Gao, N. Rega, 
 G. Zheng, W. Liang, M. Hada, M. Ehara, K. Toyota, R. Fukuda, 
 J. Hasegawa, M. Ishida, T. Nakajima, Y. Honda, O. Kitao, H. Nakai, 
 T. Vreven, K. Throssell, J. A. Montgomery, Jr., J. E. Peralta, 
 F. Ogliaro, M. J. Bearpark, J. J. Heyd, E. N. Brothers, K. N. Kudin, 
 V. N. Staroverov, T. A. Keith, R. Kobayashi, J. Normand, 
 K. Raghavachari, A. P. Rendell, J. C. Burant, S. S. Iyengar, 
 J. Tomasi, M. Cossi, J. M. Millam, M. Klene, C. Adamo, R. Cammi, 
 J. W. Ochterski, R. L. Martin, K. Morokuma, O. Farkas, 
 J. B. Foresman, and D. J. Fox, Gaussian, Inc., Wallingford CT, 2016.
 
 ******************************************
 Gaussian 16:  ES64L-G16RevB.01 20-Dec-2017
                20-Oct-2021 
 ******************************************
 %nproc=28
 Will use up to   28 processors via shared memory.
 %mem=120GB
 %chk=/gscratch/ilahie/mccoygrp/coire_hocl/oop_s_rOH_opt/brhod_pp/brhod_pp_oop_15
 _sp.chk
 ----------------------------------------------------
 #p pop=NBO SP NoSymm mp2/aug-cc-pvtz density=current
 ----------------------------------------------------
 1/30=1,38=1,172=1/1;
 2/12=2,15=1,17=6,18=5,40=1/2;
 3/5=16,6=1,7=10,11=9,25=1,30=1,71=1/1,2,3;
 4//1;
 5/5=2,38=5/2;
 8/6=4,10=1/1;
 9/15=1,16=-3/6;
 10/5=1,13=10,31=1/2;
 6/7=2,8=2,9=2,10=2,22=-1,40=1/1,7;
 99/5=1,9=1/99;
 Leave Link    1 at Wed Oct 20 14:54:45 2021, MaxMem= 16106127360 cpu:               2.9 elap:               0.1
 (Enter /sw/contrib/gaussian/g16/B01/g16/l101.exe)
 -----
 title
 -----
 Symbolic Z-matrix:
 Charge = -1 Multiplicity = 1
 O
 X                    1     10. 
 H(iso=2)             1    r1       2     90. 
 Br                   1    r2       2     90.      3    a1       0
 H                    1    r3       2    oop      3    a1       0
       Variables:
  r1                    0.96048                  
  r2                    3.25083                  
  r3                    0.98806                  
  a1                  101.65547                  
  OOP                  75.                       
 
 ITRead=  0  0  0  0
 MicOpt= -1 -1 -1 -1
 NAtoms=      4 NQM=        4 NQMF=       0 NMMI=      0 NMMIF=      0
                NMic=       0 NMicF=      0.
                    Isotopes and Nuclear Properties:
 (Nuclear quadrupole moments (NQMom) in fm**2, nuclear magnetic moments (NMagM)
  in nuclear magnetons)

  Atom         1           2           3           4
 IAtWgt=          16           2          79           1
 AtmWgt=  15.9949146   2.0141018  78.9183361   1.0078250
 NucSpn=           0           2           3           1
 AtZEff=  -0.0000000  -0.0000000  -0.0000000  -0.0000000
 NQMom=    0.0000000   0.2860000  31.3000000   0.0000000
 NMagM=    0.0000000   0.8574380   2.1063990   2.7928460
 AtZNuc=   8.0000000   1.0000000  35.0000000   1.0000000
 Leave Link  101 at Wed Oct 20 14:54:45 2021, MaxMem= 16106127360 cpu:               3.3 elap:               0.2
 (Enter /sw/contrib/gaussian/g16/B01/g16/l202.exe)
                          Input orientation:                          
 ---------------------------------------------------------------------
 Center     Atomic      Atomic             Coordinates (Angstroms)
 Number     Number       Type             X           Y           Z
 ---------------------------------------------------------------------
      1          8           0        0.000000    0.000000    0.000000
      2          1           0        0.960482    0.000000    0.000000
      3         35           0       -0.656753   -3.183800    0.000000
      4          1           0       -0.192812   -0.934713    0.255729
 ---------------------------------------------------------------------
                    Distance matrix (angstroms):
                    1          2          3          4
     1  O    0.000000
     2  H    0.960482   0.000000
     3  Br   3.250832   3.570999   0.000000
     4  H    0.988060   1.506377   2.310634   0.000000
 Symmetry turned off by external request.
 Stoichiometry    BrH2O(1-)
 Framework group  C1[X(BrH2O)]
 Deg. of freedom     6
 Full point group                 C1      NOp   1
 Rotational constants (GHZ):         310.1484518           3.1549017           3.1255980
 Leave Link  202 at Wed Oct 20 14:54:45 2021, MaxMem= 16106127360 cpu:               0.2 elap:               0.0
 (Enter /sw/contrib/gaussian/g16/B01/g16/l301.exe)
 Standard basis: Aug-CC-pVTZ (5D, 7F)
 Ernie: Thresh=  0.10000D-02 Tol=  0.10000D-05 Strict=F.
 Ernie:  35 primitive shells out of 175 were deleted.
   151 basis functions,   343 primitive gaussians,   174 cartesian basis functions
    23 alpha electrons       23 beta electrons
       nuclear repulsion energy        67.8246495239 Hartrees.
 IExCor=    0 DFT=F Ex=HF Corr=None ExCW=0 ScaHFX=  1.000000
 ScaDFX=  1.000000  1.000000  1.000000  1.000000 ScalE2=  1.000000  1.000000
 IRadAn=      5 IRanWt=     -1 IRanGd=            0 ICorTp=0 IEmpDi=  4
 NAtoms=    4 NActive=    4 NUniq=    4 SFac= 1.00D+00 NAtFMM=   60 NAOKFM=F Big=F
 Integral buffers will be    131072 words long.
 Raffenetti 1 integral format.
 Two-electron integral symmetry is turned off.
 Leave Link  301 at Wed Oct 20 14:54:45 2021, MaxMem= 16106127360 cpu:               1.2 elap:               0.1
 (Enter /sw/contrib/gaussian/g16/B01/g16/l302.exe)
 NPDir=0 NMtPBC=     1 NCelOv=     1 NCel=       1 NClECP=     1 NCelD=      1
         NCelK=      1 NCelE2=     1 NClLst=     1 CellRange=     0.0.
 One-electron integrals computed using PRISM.
 NBasis=   151 RedAO= T EigKep=  3.09D-04  NBF=   151
 NBsUse=   151 1.00D-06 EigRej= -1.00D+00 NBFU=   151
 Leave Link  302 at Wed Oct 20 14:54:46 2021, MaxMem= 16106127360 cpu:               4.2 elap:               0.2
 (Enter /sw/contrib/gaussian/g16/B01/g16/l303.exe)
 DipDrv:  MaxL=1.
 Leave Link  303 at Wed Oct 20 14:54:46 2021, MaxMem= 16106127360 cpu:               1.0 elap:               0.1
 (Enter /sw/contrib/gaussian/g16/B01/g16/l401.exe)
 ExpMin= 2.53D-02 ExpMax= 1.06D+07 ExpMxC= 1.21D+04 IAcc=3 IRadAn=         5 AccDes= 0.00D+00
 Harris functional with IExCor=  205 and IRadAn=       5 diagonalized for initial guess.
 HarFok:  IExCor=  205 AccDes= 0.00D+00 IRadAn=         5 IDoV= 1 UseB2=F ITyADJ=14
 ICtDFT=  3500011 ScaDFX=  1.000000  1.000000  1.000000  1.000000
 FoFCou: FMM=F IPFlag=           0 FMFlag=      100000 FMFlg1=           0
         NFxFlg=           0 DoJE=T BraDBF=F KetDBF=T FulRan=T
         wScrn=  0.000000 ICntrl=       500 IOpCl=  0 I1Cent=   200000004 NGrid=           0
         NMat0=    1 NMatS0=      1 NMatT0=    0 NMatD0=    1 NMtDS0=    0 NMtDT0=    0
 Symmetry not used in FoFCou.
 Harris En= -2648.01625432470    
 JPrj=0 DoOrth=F DoCkMO=F.
 Leave Link  401 at Wed Oct 20 14:54:46 2021, MaxMem= 16106127360 cpu:               6.7 elap:               0.3
 (Enter /sw/contrib/gaussian/g16/B01/g16/l502.exe)
 Keep R1 ints in memory in canonical form, NReq=88257241.
 FoFCou: FMM=F IPFlag=           0 FMFlag=           0 FMFlg1=           0
         NFxFlg=           0 DoJE=F BraDBF=F KetDBF=F FulRan=T
         wScrn=  0.000000 ICntrl=       600 IOpCl=  0 I1Cent=           0 NGrid=           0
         NMat0=    1 NMatS0=  11476 NMatT0=    0 NMatD0=    1 NMtDS0=    0 NMtDT0=    0
 Symmetry not used in FoFCou.
 Two-electron integral symmetry not used.
 Closed shell SCF:
 Using DIIS extrapolation, IDIIS=  1040.
 NGot= 16106127360 LenX= 16040205766 LenY= 16040175049
 Requested convergence on RMS density matrix=1.00D-08 within 128 cycles.
 Requested convergence on MAX density matrix=1.00D-06.
 Requested convergence on             energy=1.00D-06.
 No special actions if energy rises.

 Cycle   1  Pass 1  IDiag  1:
 E= -2648.43854265681    
 DIIS: error= 7.25D-02 at cycle   1 NSaved=   1.
 NSaved= 1 IEnMin= 1 EnMin= -2648.43854265681     IErMin= 1 ErrMin= 7.25D-02
 ErrMax= 7.25D-02  0.00D+00 EMaxC= 1.00D-01 BMatC= 5.38D-01 BMatP= 5.38D-01
 IDIUse=3 WtCom= 2.75D-01 WtEn= 7.25D-01
 Coeff-Com:  0.100D+01
 Coeff-En:   0.100D+01
 Coeff:      0.100D+01
 Gap=     0.384 Goal=   None    Shift=    0.000
 GapD=    0.384 DampG=1.000 DampE=0.500 DampFc=0.5000 IDamp=-1.
 Damping current iteration by 5.00D-01
 RMSDP=3.06D-03 MaxDP=9.34D-02              OVMax= 1.23D-01

 Cycle   2  Pass 1  IDiag  1:
 E= -2648.52597947608     Delta-E=       -0.087436819261 Rises=F Damp=T
 DIIS: error= 3.40D-02 at cycle   2 NSaved=   2.
 NSaved= 2 IEnMin= 2 EnMin= -2648.52597947608     IErMin= 2 ErrMin= 3.40D-02
 ErrMax= 3.40D-02  0.00D+00 EMaxC= 1.00D-01 BMatC= 1.01D-01 BMatP= 5.38D-01
 IDIUse=3 WtCom= 6.60D-01 WtEn= 3.40D-01
 Coeff-Com: -0.598D+00 0.160D+01
 Coeff-En:   0.000D+00 0.100D+01
 Coeff:     -0.395D+00 0.139D+01
 Gap=     0.277 Goal=   None    Shift=    0.000
 RMSDP=1.25D-03 MaxDP=3.37D-02 DE=-8.74D-02 OVMax= 6.10D-02

 Cycle   3  Pass 1  IDiag  1:
 E= -2648.60400740554     Delta-E=       -0.078027929465 Rises=F Damp=F
 DIIS: error= 3.27D-03 at cycle   3 NSaved=   3.
 NSaved= 3 IEnMin= 3 EnMin= -2648.60400740554     IErMin= 3 ErrMin= 3.27D-03
 ErrMax= 3.27D-03  0.00D+00 EMaxC= 1.00D-01 BMatC= 2.06D-03 BMatP= 1.01D-01
 IDIUse=3 WtCom= 9.67D-01 WtEn= 3.27D-02
 Coeff-Com: -0.139D+00 0.301D+00 0.838D+00
 Coeff-En:   0.000D+00 0.000D+00 0.100D+01
 Coeff:     -0.135D+00 0.291D+00 0.843D+00
 Gap=     0.295 Goal=   None    Shift=    0.000
 RMSDP=2.43D-04 MaxDP=6.99D-03 DE=-7.80D-02 OVMax= 1.06D-02

 Cycle   4  Pass 1  IDiag  1:
 E= -2648.60535256715     Delta-E=       -0.001345161605 Rises=F Damp=F
 DIIS: error= 3.99D-04 at cycle   4 NSaved=   4.
 NSaved= 4 IEnMin= 4 EnMin= -2648.60535256715     IErMin= 4 ErrMin= 3.99D-04
 ErrMax= 3.99D-04  0.00D+00 EMaxC= 1.00D-01 BMatC= 3.05D-05 BMatP= 2.06D-03
 IDIUse=3 WtCom= 9.96D-01 WtEn= 3.99D-03
 Coeff-Com:  0.174D-01-0.412D-01 0.208D-02 0.102D+01
 Coeff-En:   0.000D+00 0.000D+00 0.000D+00 0.100D+01
 Coeff:      0.173D-01-0.410D-01 0.207D-02 0.102D+01
 Gap=     0.294 Goal=   None    Shift=    0.000
 RMSDP=4.29D-05 MaxDP=1.27D-03 DE=-1.35D-03 OVMax= 1.86D-03

 Cycle   5  Pass 1  IDiag  1:
 E= -2648.60539272606     Delta-E=       -0.000040158918 Rises=F Damp=F
 DIIS: error= 1.13D-04 at cycle   5 NSaved=   5.
 NSaved= 5 IEnMin= 5 EnMin= -2648.60539272606     IErMin= 5 ErrMin= 1.13D-04
 ErrMax= 1.13D-04  0.00D+00 EMaxC= 1.00D-01 BMatC= 1.58D-06 BMatP= 3.05D-05
 IDIUse=3 WtCom= 9.99D-01 WtEn= 1.13D-03
 Coeff-Com: -0.236D-02 0.672D-02-0.241D-01-0.381D+00 0.140D+01
 Coeff-En:   0.000D+00 0.000D+00 0.000D+00 0.000D+00 0.100D+01
 Coeff:     -0.236D-02 0.671D-02-0.241D-01-0.380D+00 0.140D+01
 Gap=     0.295 Goal=   None    Shift=    0.000
 RMSDP=1.89D-05 MaxDP=5.04D-04 DE=-4.02D-05 OVMax= 8.82D-04

 Cycle   6  Pass 1  IDiag  1:
 E= -2648.60539755467     Delta-E=       -0.000004828607 Rises=F Damp=F
 DIIS: error= 1.97D-05 at cycle   6 NSaved=   6.
 NSaved= 6 IEnMin= 6 EnMin= -2648.60539755467     IErMin= 6 ErrMin= 1.97D-05
 ErrMax= 1.97D-05  0.00D+00 EMaxC= 1.00D-01 BMatC= 6.38D-08 BMatP= 1.58D-06
 IDIUse=1 WtCom= 1.00D+00 WtEn= 0.00D+00
 Coeff-Com: -0.336D-03 0.685D-03 0.243D-02 0.102D-01-0.178D+00 0.116D+01
 Coeff:     -0.336D-03 0.685D-03 0.243D-02 0.102D-01-0.178D+00 0.116D+01
 Gap=     0.295 Goal=   None    Shift=    0.000
 RMSDP=3.08D-06 MaxDP=8.75D-05 DE=-4.83D-06 OVMax= 1.84D-04

 Cycle   7  Pass 1  IDiag  1:
 E= -2648.60539773725     Delta-E=       -0.000000182582 Rises=F Damp=F
 DIIS: error= 6.09D-06 at cycle   7 NSaved=   7.
 NSaved= 7 IEnMin= 7 EnMin= -2648.60539773725     IErMin= 7 ErrMin= 6.09D-06
 ErrMax= 6.09D-06  0.00D+00 EMaxC= 1.00D-01 BMatC= 7.83D-09 BMatP= 6.38D-08
 IDIUse=1 WtCom= 1.00D+00 WtEn= 0.00D+00
 Coeff-Com: -0.929D-04 0.203D-04 0.291D-02 0.258D-01-0.134D+00 0.173D+00
 Coeff-Com:  0.933D+00
 Coeff:     -0.929D-04 0.203D-04 0.291D-02 0.258D-01-0.134D+00 0.173D+00
 Coeff:      0.933D+00
 Gap=     0.295 Goal=   None    Shift=    0.000
 RMSDP=8.11D-07 MaxDP=2.03D-05 DE=-1.83D-07 OVMax= 5.38D-05

 Cycle   8  Pass 1  IDiag  1:
 E= -2648.60539775137     Delta-E=       -0.000000014119 Rises=F Damp=F
 DIIS: error= 1.39D-06 at cycle   8 NSaved=   8.
 NSaved= 8 IEnMin= 8 EnMin= -2648.60539775137     IErMin= 8 ErrMin= 1.39D-06
 ErrMax= 1.39D-06  0.00D+00 EMaxC= 1.00D-01 BMatC= 4.73D-10 BMatP= 7.83D-09
 IDIUse=1 WtCom= 1.00D+00 WtEn= 0.00D+00
 Coeff-Com:  0.920D-04-0.178D-03-0.480D-03 0.454D-03 0.164D-01-0.981D-01
 Coeff-Com: -0.715D-01 0.115D+01
 Coeff:      0.920D-04-0.178D-03-0.480D-03 0.454D-03 0.164D-01-0.981D-01
 Coeff:     -0.715D-01 0.115D+01
 Gap=     0.295 Goal=   None    Shift=    0.000
 RMSDP=3.12D-07 MaxDP=8.58D-06 DE=-1.41D-08 OVMax= 1.71D-05

 Cycle   9  Pass 1  IDiag  1:
 E= -2648.60539775246     Delta-E=       -0.000000001094 Rises=F Damp=F
 DIIS: error= 3.23D-07 at cycle   9 NSaved=   9.
 NSaved= 9 IEnMin= 9 EnMin= -2648.60539775246     IErMin= 9 ErrMin= 3.23D-07
 ErrMax= 3.23D-07  0.00D+00 EMaxC= 1.00D-01 BMatC= 2.79D-11 BMatP= 4.73D-10
 IDIUse=1 WtCom= 1.00D+00 WtEn= 0.00D+00
 Coeff-Com: -0.862D-05 0.269D-04-0.137D-03-0.188D-02 0.797D-02-0.714D-02
 Coeff-Com: -0.531D-01 0.513D-02 0.105D+01
 Coeff:     -0.862D-05 0.269D-04-0.137D-03-0.188D-02 0.797D-02-0.714D-02
 Coeff:     -0.531D-01 0.513D-02 0.105D+01
 Gap=     0.295 Goal=   None    Shift=    0.000
 RMSDP=5.59D-08 MaxDP=1.25D-06 DE=-1.09D-09 OVMax= 3.22D-06

 Cycle  10  Pass 1  IDiag  1:
 E= -2648.60539775252     Delta-E=       -0.000000000057 Rises=F Damp=F
 DIIS: error= 1.05D-07 at cycle  10 NSaved=  10.
 NSaved=10 IEnMin=10 EnMin= -2648.60539775252     IErMin=10 ErrMin= 1.05D-07
 ErrMax= 1.05D-07  0.00D+00 EMaxC= 1.00D-01 BMatC= 2.77D-12 BMatP= 2.79D-11
 IDIUse=1 WtCom= 1.00D+00 WtEn= 0.00D+00
 Coeff-Com: -0.664D-05 0.122D-04 0.466D-04 0.965D-04-0.193D-02 0.943D-02
 Coeff-Com:  0.997D-02-0.120D+00 0.133D-02 0.110D+01
 Coeff:     -0.664D-05 0.122D-04 0.466D-04 0.965D-04-0.193D-02 0.943D-02
 Coeff:      0.997D-02-0.120D+00 0.133D-02 0.110D+01
 Gap=     0.295 Goal=   None    Shift=    0.000
 RMSDP=1.54D-08 MaxDP=2.16D-07 DE=-5.73D-11 OVMax= 1.21D-06

 Cycle  11  Pass 1  IDiag  1:
 E= -2648.60539775251     Delta-E=        0.000000000010 Rises=F Damp=F
 DIIS: error= 2.52D-08 at cycle  11 NSaved=  11.
 NSaved=11 IEnMin=10 EnMin= -2648.60539775252     IErMin=11 ErrMin= 2.52D-08
 ErrMax= 2.52D-08  0.00D+00 EMaxC= 1.00D-01 BMatC= 1.20D-13 BMatP= 2.77D-12
 IDIUse=1 WtCom= 1.00D+00 WtEn= 0.00D+00
 Coeff-Com:  0.148D-05-0.323D-05-0.778D-06 0.652D-04-0.305D-04-0.127D-02
 Coeff-Com:  0.704D-03 0.199D-01-0.605D-01-0.186D+00 0.123D+01
 Coeff:      0.148D-05-0.323D-05-0.778D-06 0.652D-04-0.305D-04-0.127D-02
 Coeff:      0.704D-03 0.199D-01-0.605D-01-0.186D+00 0.123D+01
 Gap=     0.295 Goal=   None    Shift=    0.000
 RMSDP=6.94D-09 MaxDP=2.27D-07 DE= 1.00D-11 OVMax= 2.99D-07

 SCF Done:  E(RHF) =  -2648.60539775     A.U. after   11 cycles
            NFock= 11  Conv=0.69D-08     -V/T= 2.0000
 KE= 2.648513961457D+03 PE=-6.483603503339D+03 EE= 1.118659494606D+03
 Leave Link  502 at Wed Oct 20 14:54:48 2021, MaxMem= 16106127360 cpu:              32.6 elap:               2.2
 (Enter /sw/contrib/gaussian/g16/B01/g16/l801.exe)
 ExpMin= 2.53D-02 ExpMax= 1.06D+07 ExpMxC= 1.21D+04 IAcc=3 IRadAn=         5 AccDes= 0.00D+00
 HarFok:  IExCor=  205 AccDes= 0.00D+00 IRadAn=         5 IDoV=-2 UseB2=F ITyADJ=14
 ICtDFT= 12500011 ScaDFX=  1.000000  1.000000  1.000000  1.000000
 Largest valence mixing into a core orbital is  1.27D-04
 Largest core mixing into a valence orbital is  3.63D-05
 Range of M.O.s used for correlation:    11   151
 NBasis=   151 NAE=    23 NBE=    23 NFC=    10 NFV=     0
 NROrb=    141 NOA=    13 NOB=    13 NVA=   128 NVB=   128

 **** Warning!!: The largest alpha MO coefficient is  0.15074767D+02

 Leave Link  801 at Wed Oct 20 14:54:48 2021, MaxMem= 16106127360 cpu:               2.1 elap:               0.1
 (Enter /sw/contrib/gaussian/g16/B01/g16/l906.exe)
 Frozen-core derivative calculation, NFC=  10 NFV=   0.
 FulOut=F Deriv=T AODrv=F NAtomX=     4
   MMem=         214  MDisk=          13 MDiskD=          13
  W3Min=      604302 MinDsk=     1007783 NBas6D=         174
 NBas2D=       15618    NTT=       15225    LW2=     9911920
    MDV= 16105777071 MDiskM=      462752 NBas2p=       15367
 Fully in-core method, ICMem=   275550978.
 IMap=   1   2   3   4   5   6   7   8   9  10  11  12  13  14  15  16  17  18  19  20
 IMap=  21  22  23
 JobTyp=1 Pass  1 fully in-core, NPsUse= 28.
 Compute canonical integrals.
 FoFCou: FMM=F IPFlag=           0 FMFlag=           0 FMFlg1=           0
         NFxFlg=           0 DoJE=F BraDBF=F KetDBF=F FulRan=T
         wScrn=  0.000000 ICntrl=       600 IOpCl=  1 I1Cent=           0 NGrid=           0
         NMat0=    1 NMatS0=  15618 NMatT0=    0 NMatD0=    1 NMtDS0=    0 NMtDT0=    0
 Symmetry not used in FoFCou.
 Spin components of T(2) and E(2):
     alpha-alpha T2 =       0.2056708278D-01 E2=     -0.6988256066D-01
     alpha-beta  T2 =       0.1090352945D+00 E2=     -0.3788951093D+00
     beta-beta   T2 =       0.2056708278D-01 E2=     -0.6988256066D-01
 The integrals were generated   1 times.
 ANorm=    0.1072459538D+01
 E2 =    -0.5186602306D+00 EUMP2 =    -0.26491240579831D+04
 Leave Link  906 at Wed Oct 20 14:54:52 2021, MaxMem= 16106127360 cpu:              89.9 elap:               3.3
 (Enter /sw/contrib/gaussian/g16/B01/g16/l1002.exe)
 Minotr:  Closed shell wavefunction.
          Computing MP2/KS-MP2 derivatives.
          Using Z-Vector for PSCF gradient.
          Skipping F1 and S1 gradient terms here.
          Frozen-core window.
          Direct CPHF calculation.
          Differentiating once with respect to electric field.
                with respect to dipole field.
          Electric field/nuclear overlap derivatives assumed to be zero.
          Requested convergence is 1.0D-10 RMS, and 1.0D-09 maximum.
          NewPWx=F KeepS1=T KeepF1=T KeepIn=T MapXYZ=F SortEE=F KeepMc=T.
 Keep R1 ints in memory in canonical form, NReq=88260001.
 FoFCou: FMM=F IPFlag=           0 FMFlag=           0 FMFlg1=           0
         NFxFlg=           0 DoJE=F BraDBF=F KetDBF=F FulRan=T
         wScrn=  0.000000 ICntrl=       600 IOpCl=  0 I1Cent=           0 NGrid=           0
         NMat0=    1 NMatS0=  11476 NMatT0=    0 NMatD0=    1 NMtDS0=    0 NMtDT0=    0
 Symmetry not used in FoFCou.
 Two-electron integral symmetry not used.
          MDV=   16106127360 using IRadAn=       5.
          Solving linear equations separately, MaxMat=       0.
          There are     1 degrees of freedom in the 1st order CPHF.  IDoFFX=0 NUNeed=     1.
 LinEq1:  Iter=  0 NonCon=     1 RMS=2.40D-03 Max=4.47D-02 NDo=     1
 AX will form     1 AO Fock derivatives at one time.
 LinEq1:  Iter=  1 NonCon=     1 RMS=4.00D-04 Max=4.72D-03 NDo=     1
 LinEq1:  Iter=  2 NonCon=     1 RMS=1.89D-04 Max=2.26D-03 NDo=     1
 LinEq1:  Iter=  3 NonCon=     1 RMS=5.25D-05 Max=9.20D-04 NDo=     1
 LinEq1:  Iter=  4 NonCon=     1 RMS=1.05D-05 Max=1.14D-04 NDo=     1
 LinEq1:  Iter=  5 NonCon=     1 RMS=4.64D-06 Max=4.90D-05 NDo=     1
 LinEq1:  Iter=  6 NonCon=     1 RMS=9.43D-07 Max=1.66D-05 NDo=     1
 LinEq1:  Iter=  7 NonCon=     1 RMS=2.13D-07 Max=2.72D-06 NDo=     1
 LinEq1:  Iter=  8 NonCon=     1 RMS=6.18D-08 Max=6.94D-07 NDo=     1
 LinEq1:  Iter=  9 NonCon=     1 RMS=8.90D-09 Max=1.29D-07 NDo=     1
 LinEq1:  Iter= 10 NonCon=     1 RMS=1.42D-09 Max=2.22D-08 NDo=     1
 LinEq1:  Iter= 11 NonCon=     1 RMS=3.79D-10 Max=5.09D-09 NDo=     1
 LinEq1:  Iter= 12 NonCon=     1 RMS=8.45D-11 Max=1.23D-09 NDo=     1
 LinEq1:  Iter= 13 NonCon=     0 RMS=1.46D-11 Max=1.42D-10 NDo=     1
 Linear equations converged to 1.000D-10 1.000D-09 after    13 iterations.
 End of Minotr F.D. properties file   721 does not exist.
 End of Minotr F.D. properties file   722 does not exist.
 End of Minotr F.D. properties file   788 does not exist.
 Leave Link 1002 at Wed Oct 20 14:54:54 2021, MaxMem= 16106127360 cpu:              37.6 elap:               2.7
 (Enter /sw/contrib/gaussian/g16/B01/g16/l601.exe)
 Copying SCF densities to generalized density rwf, IOpCl= 0 IROHF=0.

 **********************************************************************

            Population analysis using the MP2 Density.

 **********************************************************************

 Alpha  occ. eigenvalues -- -489.73885 -64.87910 -58.23360 -58.23358 -58.23355
 Alpha  occ. eigenvalues --  -20.39066  -9.55156  -7.15913  -7.15892  -7.15883
 Alpha  occ. eigenvalues --   -2.90081  -2.90074  -2.90063  -2.90039  -2.90038
 Alpha  occ. eigenvalues --   -1.17162  -0.70999  -0.52754  -0.41782  -0.33513
 Alpha  occ. eigenvalues --   -0.16424  -0.15946  -0.15872
 Alpha virt. eigenvalues --    0.13600   0.17297   0.23422   0.24182   0.24990
 Alpha virt. eigenvalues --    0.27646   0.28647   0.29967   0.34568   0.35035
 Alpha virt. eigenvalues --    0.39769   0.40772   0.41593   0.45860   0.48151
 Alpha virt. eigenvalues --    0.48584   0.52563   0.53626   0.57629   0.58941
 Alpha virt. eigenvalues --    0.61117   0.62967   0.69694   0.74271   0.74642
 Alpha virt. eigenvalues --    0.76417   0.80781   0.86528   0.86826   0.88792
 Alpha virt. eigenvalues --    0.90938   0.95891   0.99619   1.00892   1.02003
 Alpha virt. eigenvalues --    1.02278   1.03931   1.05934   1.07072   1.08619
 Alpha virt. eigenvalues --    1.09312   1.12443   1.15871   1.16744   1.18103
 Alpha virt. eigenvalues --    1.18416   1.19316   1.19903   1.21893   1.25881
 Alpha virt. eigenvalues --    1.34866   1.36405   1.40773   1.45212   1.45971
 Alpha virt. eigenvalues --    1.47066   1.61295   1.66114   1.69415   1.70314
 Alpha virt. eigenvalues --    1.76467   1.81555   2.03696   2.06596   2.18135
 Alpha virt. eigenvalues --    2.37433   2.41928   2.43733   2.45138   2.48761
 Alpha virt. eigenvalues --    2.49833   2.54895   2.55133   2.56323   2.56500
 Alpha virt. eigenvalues --    2.56635   2.58027   2.58975   2.60912   2.62444
 Alpha virt. eigenvalues --    2.65379   2.65774   2.67404   2.72793   2.73950
 Alpha virt. eigenvalues --    2.78484   2.80118   2.89439   2.91647   2.97483
 Alpha virt. eigenvalues --    3.06533   3.09896   3.13182   3.87191   4.08305
 Alpha virt. eigenvalues --    4.22847   4.32291   4.34981   4.41109   4.44777
 Alpha virt. eigenvalues --    4.53732   4.56469   4.59595   4.69318   4.77681
 Alpha virt. eigenvalues --    4.95326   5.09336   5.29334   5.36790   5.44075
 Alpha virt. eigenvalues --    5.49687   5.68163   5.81678   6.38587   6.69503
 Alpha virt. eigenvalues --    6.91330   7.11277   7.28882   7.42451   7.45189
 Alpha virt. eigenvalues --    7.47655   7.54279   7.60986   7.77654   8.05608
 Alpha virt. eigenvalues --    8.12408   8.95260  15.98691
          Condensed to atoms (all electrons):
               1          2          3          4
     1  O    8.237135   0.209113  -0.062266   0.135613
     2  H    0.209113   0.601390   0.004789   0.014486
     3  Br  -0.062266   0.004789  35.946913   0.037200
     4  H    0.135613   0.014486   0.037200   0.536692
 Mulliken charges:
               1
     1  O   -0.519594
     2  H    0.170222
     3  Br  -0.926636
     4  H    0.276009
 Sum of Mulliken charges =  -1.00000
 Mulliken charges with hydrogens summed into heavy atoms:
               1
     1  O   -0.073364
     3  Br  -0.926636
 Electronic spatial extent (au):  <R**2>=           1429.5344
 Charge=             -1.0000 electrons
 Dipole moment (field-independent basis, Debye):
    X=              3.8852    Y=             12.5120    Z=              0.1921  Tot=             13.1028
 Quadrupole moment (field-independent basis, Debye-Ang):
   XX=            -30.9053   YY=            -74.5802   ZZ=            -31.5732
   XY=             -8.3961   XZ=             -0.0795   YZ=             -0.1417
 Traceless Quadrupole moment (field-independent basis, Debye-Ang):
   XX=             14.7809   YY=            -28.8940   ZZ=             14.1131
   XY=             -8.3961   XZ=             -0.0795   YZ=             -0.1417
 Octapole moment (field-independent basis, Debye-Ang**2):
  XXX=             47.5231  YYY=            366.5320  ZZZ=             -0.9748  XYY=             42.7440
  XXY=             81.2012  XXZ=             -0.3866  XZZ=             14.7950  YZZ=             75.4335
  YYZ=             -1.4064  XYZ=             -0.2259
 Hexadecapole moment (field-independent basis, Debye-Ang**3):
 XXXX=           -110.4428 YYYY=          -1926.0606 ZZZZ=            -50.6406 XXXY=           -150.5685
 XXXZ=              0.2366 YYYX=           -234.7095 YYYZ=              5.8278 ZZZX=              0.2141
 ZZZY=              1.3590 XXYY=           -284.1242 XXZZ=            -27.0808 YYZZ=           -256.2019
 XXYZ=              0.6315 YYXZ=              0.9623 ZZXY=            -48.9936
 N-N= 6.782464952395D+01 E-N=-6.482070380703D+03  KE= 2.648361486377D+03
 No NMR shielding tensors so no spin-rotation constants.
 Leave Link  601 at Wed Oct 20 14:54:54 2021, MaxMem= 16106127360 cpu:               4.2 elap:               0.2
 (Enter /sw/contrib/gaussian/g16/B01/g16/l607.exe)
 ******************************Gaussian NBO Version 3.1******************************
             N A T U R A L   A T O M I C   O R B I T A L   A N D
          N A T U R A L   B O N D   O R B I T A L   A N A L Y S I S
 ******************************Gaussian NBO Version 3.1******************************
       /RESON  / : Allow strongly delocalized NBO set

 Analyzing the MP2 density

 Job title: title                                                           

 Storage needed:     69217 in NPA,     91732 in NBO (********** available)
 GSVD:  LWork=         337 too small for GESVD, short by       43655 words or       43655 for optimal perf.


 NATURAL POPULATIONS:  Natural atomic orbital occupancies 
                                                          
   NAO  Atom  No  lang   Type(AO)    Occupancy
 --------------------------------------------
     1    O    1  S      Cor( 1S)     1.99967
     2    O    1  S      Val( 2S)     1.74312
     3    O    1  S      Ryd( 3S)     0.00639
     4    O    1  S      Ryd( 4S)     0.00051
     5    O    1  S      Ryd( 5S)     0.00023
     6    O    1  px     Val( 2p)     1.52398
     7    O    1  px     Ryd( 3p)     0.01004
     8    O    1  px     Ryd( 4p)     0.00058
     9    O    1  px     Ryd( 5p)     0.00008
    10    O    1  py     Val( 2p)     1.68122
    11    O    1  py     Ryd( 3p)     0.01263
    12    O    1  py     Ryd( 4p)     0.00064
    13    O    1  py     Ryd( 5p)     0.00011
    14    O    1  pz     Val( 2p)     1.93006
    15    O    1  pz     Ryd( 3p)     0.02123
    16    O    1  pz     Ryd( 4p)     0.00062
    17    O    1  pz     Ryd( 5p)     0.00000
    18    O    1  dxy    Ryd( 3d)     0.00859
    19    O    1  dxy    Ryd( 4d)     0.00052
    20    O    1  dxy    Ryd( 5d)     0.00013
    21    O    1  dxz    Ryd( 3d)     0.00959
    22    O    1  dxz    Ryd( 4d)     0.00091
    23    O    1  dxz    Ryd( 5d)     0.00017
    24    O    1  dyz    Ryd( 3d)     0.00843
    25    O    1  dyz    Ryd( 4d)     0.00048
    26    O    1  dyz    Ryd( 5d)     0.00015
    27    O    1  dx2y2  Ryd( 3d)     0.01188
    28    O    1  dx2y2  Ryd( 4d)     0.00031
    29    O    1  dx2y2  Ryd( 5d)     0.00014
    30    O    1  dz2    Ryd( 3d)     0.00872
    31    O    1  dz2    Ryd( 4d)     0.00046
    32    O    1  dz2    Ryd( 5d)     0.00012
    33    O    1  f(0)   Ryd( 4f)     0.00079
    34    O    1  f(0)   Ryd( 5f)     0.00013
    35    O    1  f(C1)  Ryd( 4f)     0.00052
    36    O    1  f(C1)  Ryd( 5f)     0.00008
    37    O    1  f(S1)  Ryd( 4f)     0.00064
    38    O    1  f(S1)  Ryd( 5f)     0.00010
    39    O    1  f(C2)  Ryd( 4f)     0.00058
    40    O    1  f(C2)  Ryd( 5f)     0.00012
    41    O    1  f(S2)  Ryd( 4f)     0.00048
    42    O    1  f(S2)  Ryd( 5f)     0.00008
    43    O    1  f(C3)  Ryd( 4f)     0.00041
    44    O    1  f(C3)  Ryd( 5f)     0.00011
    45    O    1  f(S3)  Ryd( 4f)     0.00049
    46    O    1  f(S3)  Ryd( 5f)     0.00013

    47    H    2  S      Val( 1S)     0.54874
    48    H    2  S      Ryd( 2S)     0.00170
    49    H    2  S      Ryd( 3S)     0.00038
    50    H    2  S      Ryd( 4S)     0.00011
    51    H    2  px     Ryd( 3p)     0.00027
    52    H    2  px     Ryd( 2p)     0.00072
    53    H    2  px     Ryd( 4p)     0.00016
    54    H    2  py     Ryd( 2p)     0.00060
    55    H    2  py     Ryd( 3p)     0.00018
    56    H    2  py     Ryd( 4p)     0.00007
    57    H    2  pz     Ryd( 2p)     0.00137
    58    H    2  pz     Ryd( 3p)     0.00017
    59    H    2  pz     Ryd( 4p)     0.00005
    60    H    2  dxy    Ryd( 3d)     0.00013
    61    H    2  dxy    Ryd( 4d)     0.00006
    62    H    2  dxz    Ryd( 3d)     0.00037
    63    H    2  dxz    Ryd( 4d)     0.00008
    64    H    2  dyz    Ryd( 3d)     0.00011
    65    H    2  dyz    Ryd( 4d)     0.00005
    66    H    2  dx2y2  Ryd( 3d)     0.00013
    67    H    2  dx2y2  Ryd( 4d)     0.00005
    68    H    2  dz2    Ryd( 3d)     0.00013
    69    H    2  dz2    Ryd( 4d)     0.00006

    70   Br    3  S      Cor( 1S)     2.00001
    71   Br    3  S      Cor( 2S)     2.00000
    72   Br    3  S      Cor( 3S)     2.00000
    73   Br    3  S      Val( 4S)     1.97809
    74   Br    3  S      Ryd( 5S)     0.00272
    75   Br    3  S      Ryd( 6S)     0.00054
    76   Br    3  S      Ryd( 7S)     0.00011
    77   Br    3  px     Cor( 2p)     2.00002
    78   Br    3  px     Cor( 3p)     2.00000
    79   Br    3  px     Val( 4p)     1.95226
    80   Br    3  px     Ryd( 5p)     0.01177
    81   Br    3  px     Ryd( 6p)     0.00083
    82   Br    3  px     Ryd( 7p)     0.00005
    83   Br    3  py     Cor( 3p)     1.99999
    84   Br    3  py     Cor( 2p)     2.00000
    85   Br    3  py     Val( 4p)     1.91843
    86   Br    3  py     Ryd( 5p)     0.01037
    87   Br    3  py     Ryd( 6p)     0.00079
    88   Br    3  py     Ryd( 7p)     0.00012
    89   Br    3  pz     Cor( 2p)     2.00002
    90   Br    3  pz     Cor( 3p)     2.00000
    91   Br    3  pz     Val( 4p)     1.95299
    92   Br    3  pz     Ryd( 5p)     0.01176
    93   Br    3  pz     Ryd( 6p)     0.00083
    94   Br    3  pz     Ryd( 7p)     0.00004
    95   Br    3  dxy    Cor( 3d)     1.99767
    96   Br    3  dxy    Ryd( 4d)     0.01877
    97   Br    3  dxy    Ryd( 5d)     0.00154
    98   Br    3  dxy    Ryd( 6d)     0.00022
    99   Br    3  dxz    Cor( 3d)     1.99769
   100   Br    3  dxz    Ryd( 4d)     0.01869
   101   Br    3  dxz    Ryd( 5d)     0.00178
   102   Br    3  dxz    Ryd( 6d)     0.00022
   103   Br    3  dyz    Cor( 3d)     1.99767
   104   Br    3  dyz    Ryd( 4d)     0.01882
   105   Br    3  dyz    Ryd( 5d)     0.00155
   106   Br    3  dyz    Ryd( 6d)     0.00022
   107   Br    3  dx2y2  Cor( 3d)     1.99766
   108   Br    3  dx2y2  Ryd( 4d)     0.01845
   109   Br    3  dx2y2  Ryd( 5d)     0.00165
   110   Br    3  dx2y2  Ryd( 6d)     0.00024
   111   Br    3  dz2    Cor( 3d)     1.99768
   112   Br    3  dz2    Ryd( 4d)     0.01860
   113   Br    3  dz2    Ryd( 5d)     0.00174
   114   Br    3  dz2    Ryd( 6d)     0.00023
   115   Br    3  f(0)   Ryd( 4f)     0.00174
   116   Br    3  f(0)   Ryd( 5f)     0.00025
   117   Br    3  f(C1)  Ryd( 4f)     0.00175
   118   Br    3  f(C1)  Ryd( 5f)     0.00024
   119   Br    3  f(S1)  Ryd( 4f)     0.00175
   120   Br    3  f(S1)  Ryd( 5f)     0.00026
   121   Br    3  f(C2)  Ryd( 4f)     0.00174
   122   Br    3  f(C2)  Ryd( 5f)     0.00025
   123   Br    3  f(S2)  Ryd( 4f)     0.00176
   124   Br    3  f(S2)  Ryd( 5f)     0.00025
   125   Br    3  f(C3)  Ryd( 4f)     0.00171
   126   Br    3  f(C3)  Ryd( 5f)     0.00026
   127   Br    3  f(S3)  Ryd( 4f)     0.00173
   128   Br    3  f(S3)  Ryd( 5f)     0.00026

   129    H    4  S      Val( 1S)     0.48955
   130    H    4  S      Ryd( 2S)     0.00640
   131    H    4  S      Ryd( 3S)     0.00041
   132    H    4  S      Ryd( 4S)     0.00008
   133    H    4  px     Ryd( 2p)     0.00364
   134    H    4  px     Ryd( 3p)     0.00036
   135    H    4  px     Ryd( 4p)     0.00011
   136    H    4  py     Ryd( 2p)     0.00414
   137    H    4  py     Ryd( 3p)     0.00051
   138    H    4  py     Ryd( 4p)     0.00020
   139    H    4  pz     Ryd( 2p)     0.00385
   140    H    4  pz     Ryd( 3p)     0.00040
   141    H    4  pz     Ryd( 4p)     0.00012
   142    H    4  dxy    Ryd( 3d)     0.00020
   143    H    4  dxy    Ryd( 4d)     0.00009
   144    H    4  dxz    Ryd( 3d)     0.00017
   145    H    4  dxz    Ryd( 4d)     0.00007
   146    H    4  dyz    Ryd( 3d)     0.00022
   147    H    4  dyz    Ryd( 4d)     0.00008
   148    H    4  dx2y2  Ryd( 3d)     0.00022
   149    H    4  dx2y2  Ryd( 4d)     0.00010
   150    H    4  dz2    Ryd( 3d)     0.00017
   151    H    4  dz2    Ryd( 4d)     0.00008

 WARNING:  5 low occupancy (<1.9990e) core orbitals found on Br    3


 Summary of Natural Population Analysis:                  
                                                          
                                       Natural Population 
                Natural  -----------------------------------------------
    Atom  No    Charge         Core      Valence    Rydberg      Total
 -----------------------------------------------------------------------
      O    1   -0.98637      1.99967     6.87839    0.10831     8.98637
      H    2    0.44432      0.00000     0.54874    0.00694     0.55568
     Br    3   -0.94678     27.98841     7.80177    0.15660    35.94678
      H    4    0.48882      0.00000     0.48955    0.02162     0.51118
 =======================================================================
   * Total *   -1.00000     29.98808    15.71845    0.29347    46.00000

                                 Natural Population      
 --------------------------------------------------------
   Core                      29.98808 ( 99.9603% of  30)
   Valence                   15.71845 ( 98.2403% of  16)
   Natural Minimal Basis     45.70653 ( 99.3620% of  46)
   Natural Rydberg Basis      0.29347 (  0.6380% of  46)
 --------------------------------------------------------

    Atom  No          Natural Electron Configuration
 ----------------------------------------------------------------------------
      O    1      [core]2S( 1.74)2p( 5.14)3S( 0.01)3p( 0.04)3d( 0.05)
      H    2            1S( 0.55)
     Br    3      [core]4S( 1.98)4p( 5.82)4d( 0.09)5p( 0.03)4f( 0.01)5d( 0.01)
      H    4            1S( 0.49)2S( 0.01)2p( 0.01)


 NATURAL BOND ORBITAL ANALYSIS:
 Warning:  a bond orbital has occupanc of -0.00009

                       Occupancies       Lewis Structure    Low   High
           Occ.    -------------------  -----------------   occ   occ
  Cycle   Thresh.   Lewis   Non-Lewis     CR  BD  3C  LP    (L)   (NL)   Dev
 =============================================================================
   1(1)    1.90    45.65543   0.34457     15   2   0   6     0      0    0.06
 -----------------------------------------------------------------------------

 Structure accepted: No low occupancy Lewis orbitals

 WARNING:  5 low occupancy (<1.9990e) core orbitals found on Br    3

 --------------------------------------------------------
   Core                     29.98808 ( 99.960% of  30)
   Valence Lewis            15.66734 ( 97.921% of  16)
  ==================       ============================
   Total Lewis              45.65543 ( 99.251% of  46)
  -----------------------------------------------------
   Valence non-Lewis         0.08031 (  0.175% of  46)
   Rydberg non-Lewis         0.26426 (  0.574% of  46)
  ==================       ============================
   Total non-Lewis           0.34457 (  0.749% of  46)
 --------------------------------------------------------


       (Occupancy)   Bond orbital/ Coefficients/ Hybrids
 ---------------------------------------------------------------------------------
     1. (1.96598) BD ( 1) O   1 - H   2  
                ( 72.85%)   0.8535* O   1 s( 21.04%)p 3.73( 78.51%)d 0.02(  0.45%)
                                                  f 0.00(  0.01%)
                                            0.0002  0.4585 -0.0090  0.0010 -0.0045
                                            0.8834 -0.0346  0.0085 -0.0014  0.0546
                                           -0.0146  0.0017 -0.0038 -0.0106  0.0046
                                           -0.0005  0.0009 -0.0181  0.0013  0.0021
                                            0.0070 -0.0012  0.0001 -0.0019 -0.0004
                                            0.0010  0.0536 -0.0039  0.0038 -0.0342
                                            0.0013 -0.0001  0.0000  0.0001 -0.0088
                                           -0.0006 -0.0003 -0.0000 -0.0003 -0.0000
                                           -0.0031  0.0010  0.0037  0.0030  0.0016
                                           -0.0002
                ( 27.15%)   0.5210* H   2 s( 99.89%)p 0.00(  0.10%)d 0.00(  0.01%)
                                            0.9994  0.0036 -0.0003  0.0001  0.0015
                                            0.0312 -0.0042  0.0024 -0.0008 -0.0012
                                            0.0005  0.0009 -0.0000  0.0016 -0.0022
                                            0.0006  0.0005 -0.0010 -0.0005  0.0076
                                           -0.0020 -0.0053  0.0004
     2. (1.96757) BD ( 1) O   1 - H   4  
                ( 77.42%)   0.8799* O   1 s( 25.88%)p 2.85( 73.68%)d 0.02(  0.43%)
                                                  f 0.00(  0.01%)
                                           -0.0003 -0.5087  0.0014  0.0012  0.0008
                                            0.2092 -0.0185  0.0002  0.0017  0.7988
                                           -0.0147  0.0079 -0.0040 -0.2332  0.0032
                                           -0.0028  0.0026  0.0056 -0.0055  0.0032
                                           -0.0015  0.0016 -0.0010  0.0319 -0.0017
                                           -0.0014  0.0489 -0.0032 -0.0003  0.0280
                                           -0.0004 -0.0029  0.0061 -0.0004 -0.0017
                                            0.0003 -0.0070  0.0006  0.0036  0.0011
                                           -0.0018 -0.0005 -0.0026 -0.0015  0.0012
                                           -0.0039
                ( 22.58%)   0.4751* H   4 s( 99.89%)p 0.00(  0.10%)d 0.00(  0.01%)
                                           -0.9992 -0.0235 -0.0007  0.0006 -0.0181
                                           -0.0002 -0.0000  0.0019 -0.0227 -0.0077
                                           -0.0087  0.0068  0.0024 -0.0005  0.0029
                                           -0.0000 -0.0009  0.0008 -0.0001 -0.0061
                                            0.0018  0.0025  0.0010
     3. (1.99967) CR ( 1) O   1           s(100.00%)
                                            1.0000 -0.0004  0.0000  0.0000  0.0000
                                           -0.0001  0.0000 -0.0000  0.0000  0.0001
                                           -0.0000  0.0000 -0.0000 -0.0000  0.0000
                                           -0.0000  0.0000 -0.0000 -0.0000  0.0000
                                            0.0000  0.0000 -0.0000  0.0000 -0.0000
                                           -0.0000 -0.0000 -0.0000 -0.0000  0.0000
                                            0.0000 -0.0000  0.0000  0.0000  0.0000
                                            0.0000 -0.0000 -0.0000  0.0000  0.0000
                                           -0.0000 -0.0000 -0.0000 -0.0000 -0.0000
                                           -0.0000
     4. (2.00001) CR ( 1)Br   3           s(100.00%)p 0.00(  0.00%)
                                            1.0000 -0.0000 -0.0000  0.0000  0.0000
                                            0.0000  0.0000 -0.0000 -0.0000  0.0000
                                            0.0000 -0.0000 -0.0000 -0.0000 -0.0000
                                            0.0002 -0.0000 -0.0000  0.0000 -0.0000
                                           -0.0000  0.0000  0.0000 -0.0000  0.0000
                                           -0.0000  0.0000 -0.0000  0.0000 -0.0000
                                            0.0000 -0.0000  0.0000 -0.0000  0.0000
                                           -0.0000  0.0000  0.0000 -0.0000  0.0000
                                            0.0000  0.0000 -0.0000  0.0000 -0.0000
                                           -0.0000 -0.0000 -0.0000 -0.0000 -0.0000
                                           -0.0000 -0.0000 -0.0000  0.0000  0.0000
                                           -0.0000 -0.0000 -0.0000 -0.0000
     5. (2.00000) CR ( 2)Br   3           s(100.00%)
                                           -0.0000  1.0000 -0.0000  0.0000  0.0000
                                           -0.0000  0.0000 -0.0000 -0.0000  0.0000
                                            0.0000 -0.0000 -0.0000 -0.0000 -0.0000
                                            0.0000 -0.0000 -0.0000  0.0000 -0.0000
                                           -0.0000  0.0000  0.0000 -0.0000  0.0000
                                           -0.0000  0.0000 -0.0000  0.0000 -0.0000
                                            0.0000 -0.0000  0.0000 -0.0000  0.0000
                                           -0.0000  0.0000  0.0000 -0.0000  0.0000
                                            0.0000  0.0000 -0.0000  0.0000 -0.0000
                                           -0.0000 -0.0000 -0.0000 -0.0000 -0.0000
                                           -0.0000 -0.0000 -0.0000  0.0000  0.0000
                                           -0.0000 -0.0000 -0.0000 -0.0000
     6. (2.00000) CR ( 3)Br   3           s(100.00%)
                                           -0.0000 -0.0000  1.0000  0.0000  0.0000
                                            0.0000  0.0000 -0.0000 -0.0000  0.0000
                                            0.0000 -0.0000 -0.0000 -0.0000 -0.0000
                                            0.0000 -0.0000 -0.0000  0.0000 -0.0000
                                           -0.0000  0.0000  0.0000 -0.0000  0.0000
                                           -0.0000  0.0000 -0.0000  0.0000 -0.0000
                                            0.0000 -0.0000  0.0000 -0.0000  0.0000
                                           -0.0000  0.0000  0.0000 -0.0000  0.0000
                                            0.0000  0.0000 -0.0000  0.0000 -0.0000
                                           -0.0000 -0.0000 -0.0000 -0.0000 -0.0000
                                           -0.0000 -0.0000 -0.0000  0.0000  0.0000
                                           -0.0000 -0.0000 -0.0000 -0.0000
     7. (2.00002) CR ( 4)Br   3           s(  0.00%)p 1.00(100.00%)
                                           -0.0000 -0.0000 -0.0000  0.0000  0.0000
                                           -0.0000  0.0000  1.0000 -0.0000 -0.0001
                                           -0.0000 -0.0000  0.0000 -0.0000 -0.0000
                                            0.0001 -0.0000 -0.0000  0.0000 -0.0000
                                           -0.0000  0.0000  0.0000 -0.0000  0.0000
                                           -0.0000 -0.0000  0.0000  0.0000 -0.0000
                                           -0.0000  0.0000 -0.0000 -0.0000  0.0000
                                           -0.0000  0.0000  0.0000 -0.0000  0.0000
                                           -0.0000  0.0000 -0.0000  0.0000  0.0000
                                           -0.0000 -0.0000  0.0000  0.0000 -0.0000
                                           -0.0000 -0.0000 -0.0000 -0.0000 -0.0000
                                            0.0000  0.0000 -0.0000 -0.0000
     8. (2.00000) CR ( 5)Br   3           s(  0.00%)p 1.00(100.00%)
                                           -0.0000 -0.0000 -0.0000  0.0000  0.0000
                                           -0.0000  0.0000 -0.0000  1.0000 -0.0000
                                           -0.0000 -0.0000  0.0000 -0.0000 -0.0000
                                            0.0000 -0.0000 -0.0000  0.0000 -0.0000
                                           -0.0000  0.0000  0.0000 -0.0000  0.0000
                                           -0.0000 -0.0000  0.0000  0.0000 -0.0000
                                           -0.0000  0.0000 -0.0000 -0.0000  0.0000
                                           -0.0000  0.0000  0.0000 -0.0000  0.0000
                                           -0.0000  0.0000 -0.0000  0.0000  0.0000
                                           -0.0000 -0.0000  0.0000  0.0000 -0.0000
                                           -0.0000 -0.0000 -0.0000 -0.0000 -0.0000
                                            0.0000  0.0000 -0.0000 -0.0000
     9. (1.99999) CR ( 6)Br   3           s(  0.00%)p 1.00(100.00%)
                                           -0.0000 -0.0000 -0.0000  0.0001  0.0000
                                            0.0000  0.0000 -0.0000 -0.0000  0.0001
                                            0.0000 -0.0000 -0.0000  1.0000 -0.0000
                                            0.0002 -0.0000 -0.0000  0.0000 -0.0000
                                           -0.0000  0.0000  0.0000 -0.0000  0.0000
                                           -0.0000  0.0000 -0.0000  0.0000 -0.0000
                                            0.0000 -0.0000  0.0000 -0.0000  0.0000
                                           -0.0000  0.0000  0.0000 -0.0000  0.0000
                                            0.0000  0.0000 -0.0000  0.0000 -0.0000
                                           -0.0000 -0.0000 -0.0000 -0.0000 -0.0000
                                           -0.0000 -0.0000 -0.0000  0.0000  0.0000
                                           -0.0000 -0.0000 -0.0000 -0.0000
    10. (2.00000) CR ( 7)Br   3           s(  0.00%)p 1.00(100.00%)
                                           -0.0000 -0.0000 -0.0000  0.0000  0.0000
                                            0.0000 -0.0000 -0.0000 -0.0000  0.0000
                                            0.0000 -0.0000 -0.0000 -0.0000  1.0000
                                            0.0000 -0.0000 -0.0000  0.0000 -0.0000
                                           -0.0000  0.0000  0.0000 -0.0000  0.0000
                                           -0.0000  0.0000 -0.0000  0.0000 -0.0000
                                            0.0000 -0.0000  0.0000 -0.0000  0.0000
                                           -0.0000  0.0000  0.0000 -0.0000  0.0000
                                            0.0000  0.0000 -0.0000  0.0000 -0.0000
                                           -0.0000 -0.0000 -0.0000 -0.0000 -0.0000
                                           -0.0000 -0.0000 -0.0000  0.0000  0.0000
                                           -0.0000 -0.0000 -0.0000 -0.0000
    11. (2.00002) CR ( 8)Br   3           s(  0.00%)p 1.00(100.00%)
                                           -0.0000 -0.0000 -0.0000  0.0000  0.0000
                                           -0.0000  0.0000 -0.0000 -0.0000  0.0000
                                            0.0000 -0.0000 -0.0000 -0.0000 -0.0000
                                            0.0000 -0.0000 -0.0000  0.0000  1.0000
                                           -0.0000 -0.0001 -0.0000 -0.0000 -0.0000
                                           -0.0000  0.0000 -0.0000  0.0000 -0.0000
                                           -0.0000  0.0000 -0.0000 -0.0000 -0.0000
                                            0.0000  0.0000  0.0000 -0.0000  0.0000
                                            0.0000  0.0000 -0.0000  0.0000 -0.0000
                                            0.0000  0.0000 -0.0000 -0.0000 -0.0000
                                           -0.0000  0.0000  0.0000 -0.0000 -0.0000
                                           -0.0000 -0.0000 -0.0000 -0.0000
    12. (2.00000) CR ( 9)Br   3           s(  0.00%)p 1.00(100.00%)
                                           -0.0000 -0.0000 -0.0000  0.0000  0.0000
                                           -0.0000  0.0000 -0.0000 -0.0000  0.0000
                                            0.0000 -0.0000 -0.0000 -0.0000 -0.0000
                                            0.0000 -0.0000 -0.0000  0.0000 -0.0000
                                            1.0000 -0.0000 -0.0000 -0.0000 -0.0000
                                           -0.0000  0.0000 -0.0000  0.0000 -0.0000
                                           -0.0000  0.0000 -0.0000 -0.0000 -0.0000
                                            0.0000  0.0000  0.0000 -0.0000  0.0000
                                            0.0000  0.0000 -0.0000  0.0000 -0.0000
                                            0.0000  0.0000 -0.0000 -0.0000 -0.0000
                                           -0.0000  0.0000  0.0000 -0.0000 -0.0000
                                           -0.0000 -0.0000 -0.0000 -0.0000
    13. (1.99767) CR (10)Br   3           s(  0.00%)p 0.00(  0.00%)d 1.00(100.00%)
                                           -0.0000 -0.0000 -0.0000  0.0000  0.0000
                                            0.0000  0.0000 -0.0000 -0.0000  0.0000
                                            0.0000 -0.0000 -0.0000 -0.0000 -0.0000
                                            0.0001 -0.0000 -0.0000  0.0000 -0.0000
                                           -0.0000  0.0000  0.0000 -0.0000  0.0000
                                            1.0000  0.0000 -0.0000  0.0000 -0.0000
                                            0.0000 -0.0000  0.0000 -0.0000  0.0000
                                           -0.0000  0.0000  0.0000 -0.0000  0.0000
                                            0.0000  0.0000 -0.0000  0.0000 -0.0000
                                           -0.0000 -0.0000 -0.0000 -0.0000 -0.0000
                                           -0.0000 -0.0000 -0.0000  0.0000  0.0000
                                           -0.0000 -0.0000 -0.0000 -0.0000
    14. (1.99769) CR (11)Br   3           s(  0.00%)p 0.00(  0.00%)d 1.00(100.00%)
                                           -0.0000 -0.0000 -0.0000  0.0000  0.0000
                                            0.0000 -0.0000 -0.0000 -0.0000  0.0000
                                            0.0000 -0.0000 -0.0000 -0.0000 -0.0000
                                            0.0000 -0.0000 -0.0000 -0.0000 -0.0000
                                           -0.0000  0.0000  0.0000 -0.0000  0.0000
                                           -0.0000  0.0000 -0.0000 -0.0000  1.0000
                                            0.0000 -0.0000  0.0000 -0.0000  0.0000
                                           -0.0000  0.0000  0.0000 -0.0000  0.0000
                                            0.0000  0.0000 -0.0000  0.0000 -0.0000
                                           -0.0000 -0.0000 -0.0000 -0.0000 -0.0000
                                           -0.0000 -0.0000 -0.0000  0.0000  0.0000
                                           -0.0000 -0.0000 -0.0000 -0.0000
    15. (1.99767) CR (12)Br   3           s(  0.00%)p 0.00(  0.00%)d 1.00(100.00%)
                                           -0.0000 -0.0000 -0.0000  0.0000  0.0000
                                            0.0000  0.0000 -0.0000 -0.0000  0.0000
                                            0.0000 -0.0000 -0.0000 -0.0000 -0.0000
                                            0.0000 -0.0000 -0.0000  0.0000 -0.0000
                                           -0.0000  0.0000  0.0000 -0.0000  0.0000
                                           -0.0000  0.0000 -0.0000  0.0000 -0.0000
                                            0.0000 -0.0000  0.0000  1.0000  0.0000
                                           -0.0000  0.0000  0.0000 -0.0000  0.0000
                                            0.0000  0.0000 -0.0000  0.0000 -0.0000
                                           -0.0000 -0.0000 -0.0000 -0.0000 -0.0000
                                           -0.0000 -0.0000 -0.0000  0.0000  0.0000
                                           -0.0000 -0.0000 -0.0000 -0.0000
    16. (1.99766) CR (13)Br   3           s(  0.00%)p 0.00(  0.00%)d 1.00(100.00%)
                                            0.0000  0.0000  0.0000 -0.0000 -0.0000
                                           -0.0000 -0.0000  0.0000  0.0000 -0.0000
                                           -0.0000  0.0000  0.0000  0.0000  0.0000
                                           -0.0001  0.0000  0.0000 -0.0000  0.0000
                                            0.0000 -0.0000 -0.0000  0.0000 -0.0000
                                            0.0000 -0.0000  0.0000 -0.0000  0.0000
                                           -0.0000  0.0000 -0.0000  0.0000 -0.0000
                                            0.0000 -0.0000  1.0000  0.0000 -0.0000
                                           -0.0000 -0.0000  0.0000 -0.0000  0.0000
                                            0.0000  0.0000  0.0000  0.0000  0.0000
                                            0.0000  0.0000  0.0000 -0.0000 -0.0000
                                            0.0000  0.0000  0.0000  0.0000
    17. (1.99768) CR (14)Br   3           s(  0.00%)p 0.00(  0.00%)d 1.00(100.00%)
                                            0.0000  0.0000  0.0000 -0.0000 -0.0000
                                           -0.0000 -0.0000  0.0000  0.0000 -0.0000
                                           -0.0000  0.0000  0.0000  0.0000  0.0000
                                           -0.0001  0.0000  0.0000 -0.0000  0.0000
                                            0.0000 -0.0000 -0.0000  0.0000 -0.0000
                                            0.0000 -0.0000  0.0000 -0.0000  0.0000
                                           -0.0000  0.0000 -0.0000  0.0000 -0.0000
                                            0.0000 -0.0000 -0.0000  0.0000 -0.0000
                                           -0.0000  1.0000  0.0000 -0.0000  0.0000
                                            0.0000  0.0000  0.0000  0.0000  0.0000
                                            0.0000  0.0000  0.0000 -0.0000 -0.0000
                                            0.0000  0.0000  0.0000  0.0000
    18. (1.97008) LP ( 1) O   1           s( 53.00%)p 0.88( 46.88%)d 0.00(  0.12%)
                                                  f 0.00(  0.00%)
                                            0.0002  0.7280  0.0044  0.0003  0.0022
                                           -0.4112 -0.0022  0.0033 -0.0012  0.5242
                                            0.0096 -0.0043 -0.0003 -0.1573 -0.0030
                                            0.0012  0.0004  0.0290 -0.0033 -0.0026
                                           -0.0097  0.0017  0.0001  0.0091 -0.0014
                                            0.0002  0.0052  0.0004 -0.0033  0.0113
                                           -0.0019  0.0015  0.0027 -0.0010  0.0018
                                           -0.0003 -0.0028  0.0011  0.0004  0.0001
                                            0.0013 -0.0003  0.0008 -0.0001  0.0035
                                           -0.0022
    19. (1.96108) LP ( 2) O   1           s(  0.00%)p 1.00( 99.70%)d 0.00(  0.27%)
                                                  f 0.00(  0.03%)
                                           -0.0000  0.0007  0.0037  0.0032 -0.0002
                                           -0.0063  0.0005 -0.0002  0.0006  0.2815
                                            0.0084 -0.0014  0.0005  0.9574  0.0309
                                           -0.0070  0.0034  0.0115 -0.0038  0.0021
                                            0.0394 -0.0128  0.0072 -0.0218 -0.0008
                                            0.0059  0.0075 -0.0001 -0.0015  0.0155
                                           -0.0009 -0.0021 -0.0113  0.0044 -0.0008
                                            0.0002 -0.0068  0.0020  0.0061 -0.0037
                                            0.0018 -0.0003 -0.0005 -0.0003  0.0019
                                           -0.0014
    20. (1.98000) LP ( 1)Br   3           s( 97.15%)p 0.03(  2.85%)d 0.00(  0.00%)
                                                  f 0.00(  0.00%)
                                            0.0000  0.0000  0.0000  0.9856 -0.0003
                                           -0.0000 -0.0001 -0.0000 -0.0000 -0.0325
                                            0.0003 -0.0001  0.0002 -0.0000 -0.0000
                                           -0.1638  0.0006 -0.0006  0.0001 -0.0000
                                           -0.0000 -0.0243  0.0002 -0.0001  0.0001
                                           -0.0000  0.0004 -0.0002 -0.0001 -0.0000
                                            0.0000 -0.0000 -0.0000 -0.0000  0.0003
                                           -0.0002 -0.0001  0.0000 -0.0008  0.0002
                                            0.0003  0.0000 -0.0007  0.0002  0.0002
                                           -0.0002 -0.0001 -0.0001 -0.0001 -0.0004
                                           -0.0002 -0.0002 -0.0002  0.0001  0.0001
                                           -0.0003 -0.0002 -0.0004 -0.0002
    21. (1.95423) LP ( 2)Br   3           s(  0.00%)p 1.00( 99.99%)d 0.00(  0.00%)
                                                  f 0.00(  0.00%)
                                           -0.0000 -0.0000 -0.0000  0.0038  0.0001
                                           -0.0007  0.0016  0.0000  0.0000  0.2343
                                            0.0004  0.0002 -0.0001  0.0000  0.0000
                                            0.1200 -0.0006 -0.0003  0.0003 -0.0001
                                           -0.0000 -0.9647 -0.0004 -0.0008 -0.0001
                                           -0.0000  0.0017 -0.0005 -0.0001  0.0000
                                           -0.0018  0.0009 -0.0007  0.0000 -0.0045
                                            0.0010  0.0011  0.0000  0.0003 -0.0003
                                            0.0008  0.0000 -0.0027  0.0012 -0.0009
                                            0.0012  0.0008 -0.0004 -0.0003 -0.0014
                                           -0.0011  0.0012  0.0007 -0.0007 -0.0005
                                           -0.0005 -0.0003  0.0001  0.0001
    22. (1.95403) LP ( 3)Br   3           s(  0.00%)p 1.00( 99.99%)d 0.00(  0.01%)
                                                  f 0.00(  0.00%)
                                           -0.0000 -0.0000 -0.0000  0.0034 -0.0004
                                           -0.0016  0.0025 -0.0001 -0.0000 -0.9500
                                           -0.0019 -0.0012  0.0005  0.0000  0.0000
                                            0.2389 -0.0007 -0.0003  0.0008 -0.0000
                                           -0.0000 -0.2010  0.0000 -0.0002 -0.0000
                                            0.0000 -0.0053  0.0012  0.0006  0.0000
                                           -0.0022  0.0010 -0.0009  0.0000 -0.0004
                                           -0.0000  0.0004  0.0000 -0.0041  0.0015
                                           -0.0007  0.0000  0.0002 -0.0003  0.0006
                                            0.0002  0.0002  0.0006  0.0004 -0.0003
                                           -0.0002 -0.0001 -0.0001 -0.0010 -0.0007
                                            0.0014  0.0007 -0.0015 -0.0010
    23. (1.91436) LP ( 4)Br   3           s(  2.85%)p34.14( 97.13%)d 0.01(  0.03%)
                                                  f 0.00(  0.00%)
                                           -0.0002 -0.0000 -0.0000  0.1687  0.0016
                                            0.0001  0.0005 -0.0000 -0.0000  0.2038
                                            0.0003 -0.0004 -0.0002 -0.0002 -0.0000
                                            0.9494 -0.0023 -0.0021  0.0003 -0.0000
                                           -0.0000  0.1682  0.0012 -0.0003  0.0001
                                           -0.0001  0.0063 -0.0013  0.0002 -0.0000
                                            0.0016 -0.0004  0.0001 -0.0000  0.0068
                                           -0.0019  0.0008  0.0001 -0.0108  0.0022
                                            0.0006  0.0001 -0.0071  0.0016 -0.0002
                                           -0.0014 -0.0006 -0.0005 -0.0003 -0.0023
                                           -0.0012 -0.0016 -0.0008  0.0007  0.0002
                                           -0.0018 -0.0006 -0.0024 -0.0010
    24. (0.02041) RY*( 1) O   1           s(  0.02%)p99.99( 97.47%)d99.99(  2.43%)
                                                  f 4.26(  0.08%)
                                           -0.0000 -0.0002  0.0108  0.0084 -0.0007
                                            0.0001  0.0009 -0.0008  0.0011 -0.0105
                                            0.2735  0.0105 -0.0058 -0.0384  0.9470
                                            0.0325 -0.0170  0.0393 -0.0104  0.0050
                                            0.1318 -0.0350  0.0175 -0.0458  0.0064
                                            0.0042  0.0150 -0.0029  0.0001  0.0357
                                           -0.0069  0.0008 -0.0157  0.0133  0.0014
                                            0.0004 -0.0076  0.0072  0.0118 -0.0092
                                           -0.0018 -0.0007  0.0014 -0.0007  0.0044
                                           -0.0034
    25. (0.01559) RY*( 2) O   1           s( 20.97%)p 3.61( 75.70%)d 0.15(  3.20%)
                                                  f 0.01(  0.13%)
                                            0.0000 -0.0099  0.4578  0.0037 -0.0033
                                            0.0097 -0.4600 -0.0136  0.0046 -0.0093
                                            0.7080  0.0114 -0.0131  0.0021 -0.2081
                                           -0.0056  0.0055  0.1653 -0.0177 -0.0026
                                           -0.0555  0.0083 -0.0019  0.0210 -0.0046
                                           -0.0019  0.0038  0.0025 -0.0079  0.0215
                                           -0.0110  0.0030  0.0010 -0.0031 -0.0019
                                            0.0003 -0.0030  0.0047 -0.0087  0.0029
                                            0.0081 -0.0035  0.0197 -0.0062  0.0236
                                           -0.0120
    26. (0.00729) RY*( 3) O   1           s(  6.48%)p 9.72( 63.03%)d 4.61( 29.89%)
                                                  f 0.09(  0.59%)
                                            0.0000  0.0032  0.2501 -0.0443  0.0185
                                           -0.0575 -0.6377 -0.0208 -0.0106 -0.0270
                                           -0.4482 -0.0192 -0.0028  0.0064  0.1315
                                            0.0122 -0.0153 -0.3818  0.0021 -0.0112
                                            0.0160 -0.0028  0.0039 -0.0109  0.0176
                                           -0.0092  0.3755  0.0620 -0.0314  0.0797
                                            0.0084  0.0007 -0.0000  0.0035 -0.0283
                                            0.0111 -0.0091  0.0026  0.0059  0.0005
                                           -0.0086  0.0017  0.0086 -0.0054 -0.0631
                                            0.0268
    27. (0.00632) RY*( 4) O   1           s(  0.85%)p 5.62(  4.80%)d99.99( 93.14%)
                                                  f 1.41(  1.20%)
                                           -0.0000  0.0040  0.0910  0.0158 -0.0013
                                            0.0180  0.1862  0.0132 -0.0045  0.0176
                                            0.1072  0.0088 -0.0084  0.0039  0.0282
                                            0.0081  0.0017 -0.3369 -0.0249  0.0090
                                           -0.6212 -0.0493  0.0134 -0.5553 -0.0416
                                            0.0079 -0.0245 -0.0052  0.0050  0.3421
                                            0.0296 -0.0063  0.0064 -0.0016  0.0023
                                            0.0019 -0.0306  0.0138 -0.0885  0.0363
                                            0.0048 -0.0023 -0.0305  0.0105 -0.0234
                                            0.0077
    28. (0.00626) RY*( 5) O   1           s( 10.77%)p 0.62(  6.72%)d 7.57( 81.52%)
                                                  f 0.09(  1.00%)
                                           -0.0000  0.0134  0.3275  0.0162 -0.0032
                                            0.0133  0.2243  0.0160 -0.0081  0.0302
                                            0.1102  0.0019 -0.0049 -0.0131 -0.0552
                                           -0.0055 -0.0021 -0.6805 -0.0353  0.0130
                                            0.4220  0.0281 -0.0084  0.1321  0.0180
                                           -0.0070 -0.3885 -0.0305  0.0086  0.0433
                                            0.0130 -0.0081 -0.0229  0.0103  0.0045
                                            0.0046  0.0318 -0.0132  0.0196 -0.0044
                                           -0.0312  0.0127 -0.0771  0.0229 -0.0105
                                           -0.0020
    29. (0.00594) RY*( 6) O   1           s(  0.08%)p26.23(  2.19%)d99.99( 96.91%)
                                                  f 9.77(  0.82%)
                                           -0.0000  0.0012  0.0288  0.0022  0.0003
                                            0.0047  0.0378  0.0025 -0.0016 -0.0113
                                           -0.0329 -0.0011 -0.0092 -0.0414 -0.1316
                                           -0.0091 -0.0075  0.2286  0.0224 -0.0056
                                            0.6152  0.0685 -0.0195 -0.6016 -0.0550
                                            0.0040  0.1619  0.0157  0.0004  0.3741
                                            0.0369 -0.0031 -0.0569  0.0222  0.0217
                                           -0.0079 -0.0474  0.0200  0.0083 -0.0017
                                           -0.0292  0.0101  0.0133 -0.0046  0.0060
                                           -0.0013
    30. (0.00568) RY*( 7) O   1           s(  7.10%)p 0.75(  5.36%)d12.24( 86.93%)
                                                  f 0.09(  0.61%)
                                           -0.0000  0.0217  0.2656 -0.0051 -0.0024
                                            0.0339  0.1529  0.0139 -0.0071 -0.0383
                                           -0.1586 -0.0169 -0.0084  0.0105  0.0409
                                            0.0026 -0.0008  0.2411  0.0243 -0.0046
                                           -0.0904 -0.0104  0.0029  0.4818  0.0581
                                           -0.0057 -0.0159 -0.0009  0.0031  0.7475
                                            0.0875 -0.0078  0.0355 -0.0137  0.0454
                                           -0.0165 -0.0314  0.0126  0.0207 -0.0083
                                            0.0242 -0.0091 -0.0029  0.0005  0.0040
                                            0.0008
    31. (0.00323) RY*( 8) O   1           s( 16.20%)p 1.24( 20.03%)d 3.88( 62.81%)
                                                  f 0.06(  0.96%)
                                           -0.0000 -0.0057  0.4025  0.0029  0.0041
                                            0.0310 -0.1510  0.0223 -0.0427  0.0276
                                           -0.3947 -0.0355 -0.0568 -0.0073  0.1121
                                            0.0178 -0.0149  0.3284  0.0660 -0.0007
                                           -0.0841 -0.0159  0.0009 -0.2366 -0.0123
                                           -0.0252 -0.6427 -0.0557 -0.0556 -0.1765
                                           -0.0362 -0.0036 -0.0269  0.0200  0.0179
                                           -0.0084  0.0209 -0.0121 -0.0426  0.0247
                                            0.0119 -0.0096 -0.0045 -0.0062  0.0648
                                           -0.0243
    32. (0.00230) RY*( 9) O   1           s( 36.13%)p 0.69( 24.90%)d 1.06( 38.36%)
                                                  f 0.02(  0.61%)
                                            0.0000 -0.0053  0.5985  0.0080 -0.0553
                                           -0.0136  0.4835  0.0577 -0.0026 -0.0076
                                           -0.0857 -0.0327 -0.0528  0.0009  0.0210
                                            0.0061 -0.0005  0.1038  0.0413 -0.0141
                                           -0.0318 -0.0136  0.0048 -0.0168 -0.0029
                                           -0.0098  0.4748  0.1103  0.0749 -0.3359
                                           -0.1063 -0.0437 -0.0145  0.0101 -0.0195
                                            0.0365  0.0051 -0.0014 -0.0043  0.0073
                                            0.0104 -0.0024  0.0405 -0.0433 -0.0193
                                            0.0021
    33. (0.00072) RY*(10) O   1           s( 49.82%)p 0.85( 42.41%)d 0.11(  5.67%)
                                                  f 0.04(  2.09%)
                                            0.0000 -0.0047 -0.0380  0.7048  0.0007
                                           -0.0001 -0.0343 -0.0013 -0.0416 -0.0008
                                            0.0075 -0.6409 -0.0942 -0.0027 -0.0008
                                            0.0142  0.0374 -0.0235  0.0467 -0.0652
                                            0.0045  0.0443 -0.0011  0.0199  0.0067
                                            0.0512  0.0181 -0.0459  0.0645  0.0246
                                           -0.1490  0.1235 -0.0532 -0.0081 -0.0051
                                            0.0067 -0.0529  0.0428 -0.0838 -0.0056
                                            0.0361 -0.0005 -0.0002  0.0355  0.0483
                                            0.0375
    34. (0.00056) RY*(11) O   1           s(  0.18%)p61.56( 11.29%)d99.99( 73.68%)
                                                  f80.90( 14.84%)
                                           -0.0000 -0.0000 -0.0070  0.0409  0.0106
                                           -0.0007 -0.0033 -0.0294  0.0043 -0.0033
                                           -0.0111  0.0509 -0.0236 -0.0131 -0.0592
                                            0.3239 -0.0116  0.0069 -0.2347 -0.0122
                                            0.0322 -0.7226 -0.0178 -0.0288  0.3371
                                            0.0105  0.0114 -0.1037  0.0044  0.0196
                                           -0.1792  0.0082 -0.2691  0.0330  0.0435
                                            0.0030 -0.1076  0.0153  0.2122 -0.0347
                                           -0.0811 -0.0085  0.0401  0.0070  0.0815
                                           -0.0067
    35. (0.00055) RY*(12) O   1           s(  0.41%)p99.99( 56.69%)d79.55( 32.51%)
                                                  f25.44( 10.40%)
                                            0.0000 -0.0029 -0.0282  0.0261  0.0510
                                           -0.0024 -0.0117  0.2955 -0.0413  0.0058
                                            0.0275  0.1305 -0.0027  0.0098 -0.0172
                                            0.6715  0.0929 -0.0011  0.3094  0.0138
                                            0.0102  0.2724  0.0448 -0.0087  0.3846
                                            0.0469  0.0131 -0.0486 -0.0005 -0.0062
                                           -0.0092  0.0020  0.0318 -0.0022 -0.0060
                                            0.0047  0.0114  0.0125 -0.2631  0.0137
                                            0.0143  0.0008 -0.0980  0.0121 -0.1514
                                            0.0179
    36. (0.00053) RY*(13) O   1           s(  0.64%)p66.72( 42.90%)d67.71( 43.54%)
                                                  f20.08( 12.91%)
                                           -0.0000  0.0050  0.0332  0.0520 -0.0510
                                            0.0052  0.0284 -0.5576  0.0634 -0.0046
                                           -0.0468  0.1707  0.0123  0.0062  0.0074
                                            0.2798  0.0575  0.0016 -0.4247 -0.0171
                                            0.0038  0.3190  0.0327  0.0107 -0.0417
                                            0.0093 -0.0070 -0.1111 -0.0025  0.0291
                                           -0.3689 -0.0261  0.1790 -0.0021 -0.0181
                                           -0.0051 -0.1753  0.0053 -0.1360  0.0120
                                            0.0744 -0.0060  0.1648 -0.0063  0.1203
                                           -0.0078
    37. (0.00046) RY*(14) O   1           s(  1.56%)p 7.77( 12.14%)d 3.89(  6.09%)
                                                  f51.33( 80.21%)
                                           -0.0000  0.0034  0.0006  0.1249 -0.0032
                                            0.0056  0.0086 -0.2828  0.0162  0.0076
                                            0.0059  0.1582  0.0262 -0.0032 -0.0017
                                           -0.1201 -0.0295  0.0167  0.1602  0.0290
                                           -0.0042 -0.0296 -0.0027  0.0181 -0.0042
                                            0.0247 -0.0279 -0.0626 -0.0163  0.0343
                                           -0.1614  0.0057 -0.3967 -0.0327  0.1725
                                            0.0094  0.3586  0.0297 -0.1395 -0.0216
                                            0.0640  0.0004  0.2525  0.0200 -0.6292
                                           -0.0113
    38. (0.00044) RY*(15) O   1           s(  1.53%)p 7.90( 12.07%)d 7.55( 11.54%)
                                                  f48.95( 74.85%)
                                            0.0000 -0.0006 -0.0101  0.0668  0.1036
                                           -0.0007 -0.0176  0.2693 -0.0024 -0.0017
                                            0.0016  0.1176  0.0072  0.0027  0.0018
                                           -0.1781 -0.0481 -0.0606  0.1011 -0.0562
                                            0.0200 -0.0373  0.0188 -0.0247  0.1065
                                            0.0136  0.0201 -0.1547 -0.0401  0.0026
                                           -0.2403 -0.0202  0.3870  0.0353  0.6571
                                            0.0823 -0.0258  0.0018  0.0225  0.0079
                                            0.0307  0.0136  0.3725  0.0417  0.1260
                                            0.0178
    39. (0.00044) RY*(16) O   1           s(  0.45%)p 0.71(  0.32%)d23.48( 10.67%)
                                                  f99.99( 88.56%)
                                            0.0000  0.0001 -0.0044  0.0559  0.0374
                                           -0.0018 -0.0058  0.0273 -0.0192 -0.0008
                                           -0.0093  0.0435 -0.0018  0.0036 -0.0037
                                           -0.0049  0.0064  0.0239 -0.0566  0.0024
                                            0.0202 -0.0937 -0.0091 -0.0434  0.0604
                                           -0.0331  0.0414 -0.0898  0.0148  0.0817
                                           -0.2646  0.0176  0.3401  0.0341 -0.2609
                                           -0.0265  0.7951  0.0956  0.0551  0.0037
                                           -0.0360 -0.0025 -0.1646 -0.0125  0.1631
                                            0.0228
    40. (0.00045) RY*(17) O   1           s(  0.67%)p 5.67(  3.80%)d 9.14(  6.13%)
                                                  f99.99( 89.41%)
                                           -0.0000  0.0000 -0.0028  0.0653  0.0493
                                            0.0014 -0.0065  0.0789  0.0036 -0.0008
                                           -0.0017  0.1009  0.0222 -0.0035 -0.0091
                                            0.1394  0.0384 -0.0285  0.0562 -0.0315
                                            0.0195 -0.0632 -0.0048 -0.0102 -0.2195
                                           -0.0544  0.0042 -0.0097 -0.0082  0.0045
                                           -0.0037  0.0204 -0.0448  0.0051 -0.0082
                                            0.0094  0.0125  0.0027  0.2441  0.0147
                                            0.9046  0.0908 -0.0634 -0.0045  0.0363
                                            0.0095
[...]
                                            0.0334  0.0024  0.0288
   130. (0.00392) RY*( 3) H   4           s(  2.70%)p35.73( 96.56%)d 0.27(  0.74%)
                                           -0.0210  0.0742  0.1449  0.0084  0.7678
                                           -0.0041  0.0056 -0.4403  0.0377 -0.0136
                                            0.4211  0.0567 -0.0010 -0.0457  0.0073
                                           -0.0016 -0.0076 -0.0049  0.0080  0.0452
                                           -0.0012 -0.0549  0.0011
   131. (0.00251) RY*( 4) H   4           s( 21.33%)p 3.64( 77.73%)d 0.04(  0.94%)
                                           -0.0075  0.4017  0.2231  0.0459 -0.5799
                                            0.0235 -0.0047 -0.5234  0.2080 -0.0145
                                            0.3450  0.0464 -0.0432  0.0478 -0.0361
                                            0.0326 -0.0043  0.0158  0.0013  0.0187
                                            0.0477  0.0385  0.0195
   132. (0.00043) RY*( 5) H   4           s( 17.07%)p 4.28( 72.99%)d 0.58(  9.95%)
                                            0.0004 -0.0606  0.3853 -0.1362  0.0415
                                            0.7159 -0.1173  0.1449  0.1532 -0.0358
                                           -0.1090  0.3766 -0.0483 -0.0537  0.0639
                                            0.0708 -0.0469  0.1468  0.0459  0.1895
                                            0.0649  0.1407  0.0420
   133. (0.00037) RY*( 6) H   4           s(  2.47%)p33.75( 83.45%)d 5.70( 14.08%)
                                           -0.0014 -0.0625  0.1166  0.0849  0.0481
                                           -0.5632  0.0373  0.0866  0.3831 -0.1789
                                           -0.1274  0.5541  0.0635 -0.0274 -0.1545
                                            0.1099  0.0089  0.2595  0.0838  0.0238
                                            0.0284  0.1680  0.0109
   134. (0.00029) RY*( 7) H   4           s(  3.58%)p14.54( 51.97%)d12.43( 44.45%)
                                            0.0007  0.0634  0.1740 -0.0383 -0.0016
                                           -0.0242  0.2082 -0.0120 -0.1633  0.6136
                                           -0.0223  0.1492  0.2230  0.1840  0.1807
                                            0.1239 -0.0778  0.3372 -0.0574 -0.2696
                                           -0.3402 -0.0290 -0.2244
   135. (0.00025) RY*( 8) H   4           s(  4.21%)p 4.53( 19.09%)d18.20( 76.70%)
                                            0.0017 -0.0266  0.1463 -0.1416  0.0027
                                           -0.0800  0.2823  0.0096 -0.2164 -0.1743
                                           -0.0091 -0.1387  0.0904  0.5658 -0.1232
                                            0.2723  0.0513  0.0756 -0.0423  0.5821
                                           -0.0458 -0.0293  0.0750
   136. (0.00023) RY*( 9) H   4           s(  2.38%)p14.31( 34.11%)d26.65( 63.51%)
                                            0.0034 -0.0028  0.1532 -0.0181 -0.0029
                                           -0.0508 -0.1153  0.0514 -0.1482 -0.1627
                                            0.1050 -0.4494  0.2473 -0.2933 -0.0236
                                           -0.0111 -0.0734  0.6043 -0.0547 -0.0267
                                            0.0866  0.3795  0.1502
   137. (0.00019) RY*(10) H   4           s( 27.81%)p 2.24( 62.41%)d 0.35(  9.77%)
                                           -0.0157 -0.1061  0.4538 -0.2464  0.0566
                                           -0.1433  0.1175  0.1907  0.5397  0.2249
                                           -0.0116 -0.4165 -0.1865  0.0354 -0.0556
                                           -0.1084 -0.0236 -0.2002 -0.1729 -0.0526
                                           -0.0589  0.0287  0.0634
   138. (0.00016) RY*(11) H   4           s(  7.92%)p 2.45( 19.38%)d 9.17( 72.70%)
                                            0.0059 -0.0083  0.2376 -0.1506 -0.0990
                                           -0.1864  0.0127 -0.0053 -0.3217  0.0827
                                           -0.0022  0.1707 -0.0980 -0.3478 -0.0984
                                           -0.5862 -0.0536  0.0225 -0.0538  0.4113
                                           -0.1835 -0.1847 -0.0970
   139. (0.00013) RY*(12) H   4           s(  2.59%)p 3.28(  8.49%)d34.39( 88.92%)
                                            0.0016 -0.0125  0.1602 -0.0051 -0.0458
                                           -0.1266 -0.1675  0.0143 -0.1360  0.1050
                                           -0.0276 -0.0307 -0.0854 -0.4945 -0.0203
                                            0.7070  0.0477 -0.1386 -0.1952  0.1540
                                           -0.0025 -0.2282 -0.0952
   140. (0.00014) RY*(13) H   4           s(  2.47%)p 9.35( 23.07%)d30.19( 74.46%)
                                            0.0106 -0.0000  0.1544 -0.0270  0.0112
                                           -0.1172  0.1127 -0.0484 -0.3505 -0.0281
                                           -0.0111  0.1187 -0.2529 -0.0060  0.1812
                                            0.0547  0.0549 -0.3754 -0.0513 -0.1007
                                           -0.0932  0.7368  0.0194
   141. (0.00011) RY*(14) H   4           s(  0.85%)p55.91( 47.45%)d60.92( 51.70%)
                                           -0.0029  0.0034  0.0808 -0.0440 -0.0176
                                            0.0009 -0.0124 -0.0098  0.1050  0.0711
                                           -0.0282 -0.0958  0.6692 -0.1585 -0.0115
                                            0.0098  0.0207 -0.3776  0.5230  0.1615
                                           -0.0788  0.1400 -0.1525
   142. (0.00010) RY*(15) H   4           s(  0.77%)p65.33( 50.28%)d63.61( 48.95%)
   143. (0.00006) RY*(16) H   4           s(  0.75%)p 1.79(  1.34%)d99.99( 97.91%)
   144. (0.00007) RY*(17) H   4           s( 59.36%)p 0.28( 16.85%)d 0.40( 23.79%)
   145. (0.00006) RY*(18) H   4           s(  4.67%)p 1.63(  7.60%)d18.77( 87.73%)
   146. (0.00004) RY*(19) H   4           s(  3.29%)p 9.86( 32.46%)d19.52( 64.25%)
   147. (0.00004) RY*(20) H   4           s(  7.49%)p 3.26( 24.44%)d 9.09( 68.07%)
   148. (0.00004) RY*(21) H   4           s( 44.75%)p 0.45( 20.28%)d 0.78( 34.97%)
   149. (0.00004) RY*(22) H   4           s(  2.40%)p13.59( 32.68%)d27.01( 64.92%)
   150. (0.02145) BD*( 1) O   1 - H   2  
                ( 27.15%)   0.5210* O   1 s( 21.04%)p 3.73( 78.51%)d 0.02(  0.45%)
                                                  f 0.00(  0.01%)
                                           -0.0002 -0.4585  0.0090 -0.0010  0.0045
                                           -0.8834  0.0346 -0.0085  0.0014 -0.0546
                                            0.0146 -0.0017  0.0038  0.0106 -0.0046
                                            0.0005 -0.0009  0.0181 -0.0013 -0.0021
                                           -0.0070  0.0012 -0.0001  0.0019  0.0004
                                           -0.0010 -0.0536  0.0039 -0.0038  0.0342
                                           -0.0013  0.0001 -0.0000 -0.0001  0.0088
                                            0.0006  0.0003  0.0000  0.0003  0.0000
                                            0.0031 -0.0010 -0.0037 -0.0030 -0.0016
                                            0.0002
                ( 72.85%)  -0.8535* H   2 s( 99.89%)p 0.00(  0.10%)d 0.00(  0.01%)
                                           -0.9994 -0.0036  0.0003 -0.0001 -0.0015
                                           -0.0312  0.0042 -0.0024  0.0008  0.0012
                                           -0.0005 -0.0009  0.0000 -0.0016  0.0022
                                           -0.0006 -0.0005  0.0010  0.0005 -0.0076
                                            0.0020  0.0053 -0.0004
   151. (0.05885) BD*( 1) O   1 - H   4  
                ( 22.58%)   0.4751* O   1 s( 25.88%)p 2.85( 73.68%)d 0.02(  0.43%)
                                                  f 0.00(  0.01%)
                                            0.0003  0.5087 -0.0014 -0.0012 -0.0008
                                           -0.2092  0.0185 -0.0002 -0.0017 -0.7988
                                            0.0147 -0.0079  0.0040  0.2332 -0.0032
                                            0.0028 -0.0026 -0.0056  0.0055 -0.0032
                                            0.0015 -0.0016  0.0010 -0.0319  0.0017
                                            0.0014 -0.0489  0.0032  0.0003 -0.0280
                                            0.0004  0.0029 -0.0061  0.0004  0.0017
                                           -0.0003  0.0070 -0.0006 -0.0036 -0.0011
                                            0.0018  0.0005  0.0026  0.0015 -0.0012
                                            0.0039
                ( 77.42%)  -0.8799* H   4 s( 99.89%)p 0.00(  0.10%)d 0.00(  0.01%)
                                            0.9992  0.0235  0.0007 -0.0006  0.0181
                                            0.0002  0.0000 -0.0019  0.0227  0.0077
                                            0.0087 -0.0068 -0.0024  0.0005 -0.0029
                                            0.0000  0.0009 -0.0008  0.0001  0.0061
                                           -0.0018 -0.0025 -0.0010


 NHO Directionality and "Bond Bending" (deviations from line of nuclear centers)

         [Thresholds for printing:  angular deviation  >  1.0 degree]
                                    hybrid p-character > 25.0%
                                    orbital occupancy  >  0.10e

                                Line of Centers        Hybrid 1              Hybrid 2
                                ---------------  -------------------   ------------------
                NBO               Theta   Phi    Theta   Phi    Dev    Theta   Phi    Dev
 ========================================================================================
     1. BD (   1) O   1 - H   2    90.0    0.0    90.4    2.5   2.6      --     --    --
     2. BD (   1) O   1 - H   4    75.0  258.3    74.2  256.3   2.2      --     --    --
    18. LP (   1) O   1             --     --    103.3  127.9   --       --     --    --
    19. LP (   2) O   1             --     --     16.4   91.1   --       --     --    --
    21. LP (   2)Br   3             --     --    164.7   26.9   --       --     --    --
    22. LP (   3)Br   3             --     --    101.6  165.9   --       --     --    --
    23. LP (   4)Br   3             --     --     80.1   77.9   --       --     --    --


 Natural Bond Orbitals (Summary):

           NBO                  Occupancy  
 -----------------------------------------------
 Molecular unit  1  (H2O)
     1. BD (   1) O   1 - H   2          1.96598
     2. BD (   1) O   1 - H   4          1.96757
     3. CR (   1) O   1                  1.99967
    18. LP (   1) O   1                  1.97008
    19. LP (   2) O   1                  1.96108
    24. RY*(   1) O   1                  0.02041
    25. RY*(   2) O   1                  0.01559
    26. RY*(   3) O   1                  0.00729
    27. RY*(   4) O   1                  0.00632
    28. RY*(   5) O   1                  0.00626
    29. RY*(   6) O   1                  0.00594
    30. RY*(   7) O   1                  0.00568
    31. RY*(   8) O   1                  0.00323
    32. RY*(   9) O   1                  0.00230
    33. RY*(  10) O   1                  0.00072
    34. RY*(  11) O   1                  0.00056
    35. RY*(  12) O   1                  0.00055
    36. RY*(  13) O   1                  0.00053
    37. RY*(  14) O   1                  0.00046
    38. RY*(  15) O   1                  0.00044
    39. RY*(  16) O   1                  0.00044
    40. RY*(  17) O   1                  0.00045
    41. RY*(  18) O   1                  0.00044
    42. RY*(  19) O   1                  0.00042
    43. RY*(  20) O   1                  0.00040
    44. RY*(  21) O   1                  0.00037
    45. RY*(  22) O   1                  0.00035
    46. RY*(  23) O   1                  0.00030
    47. RY*(  24) O   1                  0.00027
    48. RY*(  25) O   1                  0.00023
    49. RY*(  26) O   1                  0.00014
    50. RY*(  27) O   1                  0.00008
    51. RY*(  28) O   1                  0.00008
    52. RY*(  29) O   1                  0.00008
    53. RY*(  30) O   1                  0.00007
    54. RY*(  31) O   1                  0.00007
    55. RY*(  32) O   1                  0.00007
    56. RY*(  33) O   1                  0.00007
    57. RY*(  34) O   1                  0.00007
    58. RY*(  35) O   1                  0.00004
    59. RY*(  36) O   1                  0.00004
    60. RY*(  37) O   1                  0.00004
    61. RY*(  38) O   1                  0.00005
    62. RY*(  39) O   1                  0.00001
    63. RY*(  40) O   1                  0.00001
    64. RY*(  41) O   1                 -0.00009
    65. RY*(   1) H   2                  0.00188
    66. RY*(   2) H   2                  0.00175
    67. RY*(   3) H   2                  0.00084
    68. RY*(   4) H   2                  0.00053
    69. RY*(   5) H   2                  0.00029
    70. RY*(   6) H   2                  0.00020
    71. RY*(   7) H   2                  0.00013
    72. RY*(   8) H   2                  0.00011
    73. RY*(   9) H   2                  0.00010
    74. RY*(  10) H   2                  0.00009
    75. RY*(  11) H   2                  0.00009
    76. RY*(  12) H   2                  0.00006
    77. RY*(  13) H   2                  0.00006
    78. RY*(  14) H   2                  0.00003
    79. RY*(  15) H   2                  0.00003
    80. RY*(  16) H   2                  0.00003
    81. RY*(  17) H   2                  0.00003
    82. RY*(  18) H   2                  0.00003
    83. RY*(  19) H   2                  0.00002
    84. RY*(  20) H   2                  0.00001
    85. RY*(  21) H   2                  0.00001
    86. RY*(  22) H   2                  0.00002
   128. RY*(   1) H   4                  0.00799
   129. RY*(   2) H   4                  0.00425
   130. RY*(   3) H   4                  0.00392
   131. RY*(   4) H   4                  0.00251
   132. RY*(   5) H   4                  0.00043
   133. RY*(   6) H   4                  0.00037
   134. RY*(   7) H   4                  0.00029
   135. RY*(   8) H   4                  0.00025
   136. RY*(   9) H   4                  0.00023
   137. RY*(  10) H   4                  0.00019
   138. RY*(  11) H   4                  0.00016
   139. RY*(  12) H   4                  0.00013
   140. RY*(  13) H   4                  0.00014
   141. RY*(  14) H   4                  0.00011
   142. RY*(  15) H   4                  0.00010
   143. RY*(  16) H   4                  0.00006
   144. RY*(  17) H   4                  0.00007
   145. RY*(  18) H   4                  0.00006
   146. RY*(  19) H   4                  0.00004
   147. RY*(  20) H   4                  0.00004
   148. RY*(  21) H   4                  0.00004
   149. RY*(  22) H   4                  0.00004
   150. BD*(   1) O   1 - H   2          0.02145
   151. BD*(   1) O   1 - H   4          0.05885
       -------------------------------
              Total Lewis    9.86439  ( 98.1217%)
        Valence non-Lewis    0.08031  (  0.7988%)
        Rydberg non-Lewis    0.10852  (  1.0795%)
       -------------------------------
            Total unit  1   10.05322  (100.0000%)
           Charge unit  1   -0.05322

 Molecular unit  2  (Br)
     4. CR (   1)Br   3                  2.00001
     5. CR (   2)Br   3                  2.00000
     6. CR (   3)Br   3                  2.00000
     7. CR (   4)Br   3                  2.00002
     8. CR (   5)Br   3                  2.00000
     9. CR (   6)Br   3                  1.99999
    10. CR (   7)Br   3                  2.00000
    11. CR (   8)Br   3                  2.00002
    12. CR (   9)Br   3                  2.00000
    13. CR (  10)Br   3                  1.99767
    14. CR (  11)Br   3                  1.99769
    15. CR (  12)Br   3                  1.99767
    16. CR (  13)Br   3                  1.99766
    17. CR (  14)Br   3                  1.99768
    20. LP (   1)Br   3                  1.98000
    21. LP (   2)Br   3                  1.95423
    22. LP (   3)Br   3                  1.95403
    23. LP (   4)Br   3                  1.91436
    87. RY*(   1)Br   3                  0.01876
    88. RY*(   2)Br   3                  0.01874
    89. RY*(   3)Br   3                  0.01865
    90. RY*(   4)Br   3                  0.01865
    91. RY*(   5)Br   3                  0.01818
    92. RY*(   6)Br   3                  0.01183
    93. RY*(   7)Br   3                  0.01177
    94. RY*(   8)Br   3                  0.01011
    95. RY*(   9)Br   3                  0.00308
    96. RY*(  10)Br   3                  0.00180
    97. RY*(  11)Br   3                  0.00180
    98. RY*(  12)Br   3                  0.00176
    99. RY*(  13)Br   3                  0.00176
   100. RY*(  14)Br   3                  0.00176
   101. RY*(  15)Br   3                  0.00176
   102. RY*(  16)Br   3                  0.00176
   103. RY*(  17)Br   3                  0.00177
   104. RY*(  18)Br   3                  0.00176
   105. RY*(  19)Br   3                  0.00149
   106. RY*(  20)Br   3                  0.00150
   107. RY*(  21)Br   3                  0.00132
   108. RY*(  22)Br   3                  0.00082
   109. RY*(  23)Br   3                  0.00082
   110. RY*(  24)Br   3                  0.00078
   111. RY*(  25)Br   3                  0.00047
   112. RY*(  26)Br   3                  0.00025
   113. RY*(  27)Br   3                  0.00024
   114. RY*(  28)Br   3                  0.00025
   115. RY*(  29)Br   3                  0.00025
   116. RY*(  30)Br   3                  0.00025
   117. RY*(  31)Br   3                  0.00024
   118. RY*(  32)Br   3                  0.00025
   119. RY*(  33)Br   3                  0.00021
   120. RY*(  34)Br   3                  0.00021
   121. RY*(  35)Br   3                  0.00018
   122. RY*(  36)Br   3                  0.00015
   123. RY*(  37)Br   3                  0.00016
   124. RY*(  38)Br   3                  0.00007
   125. RY*(  39)Br   3                  0.00004
   126. RY*(  40)Br   3                  0.00004
   127. RY*(  41)Br   3                  0.00004
       -------------------------------
              Total Lewis   35.79103  ( 99.5667%)
        Valence non-Lewis    0.00000  (  0.0000%)
        Rydberg non-Lewis    0.15574  (  0.4333%)
       -------------------------------
            Total unit  2   35.94678  (100.0000%)
           Charge unit  2   -0.94678
 Leave Link  607 at Wed Oct 20 14:54:57 2021, MaxMem= 16106127360 cpu:              68.8 elap:               2.5
 (Enter /sw/contrib/gaussian/g16/B01/g16/l9999.exe)
 1\1\GINC-N2183\SP\RMP2-FC\Aug-CC-pVTZ\Br1H2O1(1-)\CGAVINH\20-Oct-2021\
 0\\#p pop=NBO SP NoSymm mp2/aug-cc-pvtz density=current\\title\\-1,1\O
 \X,1,10.\H,1,0.96048156,2,90.\Br,1,3.25083182,2,90.,3,101.65547111,0\H
 ,1,0.98806,2,75.,3,101.65547111,0\\Version=ES64L-G16RevB.01\HF=-2648.6
 053978\MP2=-2649.124058\RMSD=6.945e-09\Dipole=0.5955071,0.2038562,0.08
 63009\Quadrupole=10.9892341,-21.4819525,10.4927184,-6.2422874,-0.05909
 36,-0.1053671\PG=C01 [X(Br1H2O1)]\\@


 IF THERE IS ONE WAY BETTER THAN ANOTHER IT IS THE WAY OF NATURE.

                          -- ARISTOTLE
 Job cpu time:       0 days  0 hours  4 minutes 16.3 seconds.
 Elapsed time:       0 days  0 hours  0 minutes 11.9 seconds.
 File lengths (MBytes):  RWF=     11 Int=      0 D2E=      0 Chk=      8 Scr=      1
 Normal termination of Gaussian 16 at Wed Oct 20 14:54:57 2021.
