 Entering Gaussian System, Link 0=g16
 Input=brhod_pp_oop_30_sp.gjf
 Output=brhod_pp_oop_30_sp.log
 Initial command:
 /sw/contrib/gaussian/g16/B01/g16/l1.exe "/scr/Gau-3953.inp" -scrdir="/scr/"
 Entering Link 1 = /sw/contrib/gaussian/g16/B01/g16/l1.exe PID=      3954.
  
 Copyright (c) 1988-2017, Gaussian, Inc.  All Rights Reserved.
  
 This is part of the Gaussian(R) 16 program.  It is based on
 the Gaussian(R) 09 system (copyright 2009, Gaussian, Inc.),
 the Gaussian(R) 03 system (copyright 2003, Gaussian, Inc.),
 the Gaussian(R) 98 system (copyright 1998, Gaussian, Inc.),
 the Gaussian(R) 94 system (copyright 1995, Gaussian, Inc.),
 the Gaussian 92(TM) system (copyright 1992, Gaussian, Inc.),
 the Gaussian 90(TM) system (copyright 1990, Gaussian, Inc.),
 the Gaussian 88(TM) system (copyright 1988, Gaussian, Inc.),
 the Gaussian 86(TM) system (copyright 1986, Carnegie Mellon
 University), and the Gaussian 82(TM) system (copyright 1983,
 Carnegie Mellon University). Gaussian is a federally registered
 trademark of Gaussian, Inc.
  
 This software contains proprietary and confidential information,
 including trade secrets, belonging to Gaussian, Inc.
  
 This software is provided under written license and may be
 used, copied, transmitted, or stored only in accord with that
 written license.
  
 The following legend is applicable only to US Government
 contracts under FAR:
  
                    RESTRICTED RIGHTS LEGEND
  
 Use, reproduction and disclosure by the US Government is
 subject to restrictions as set forth in subparagraphs (a)
 and (c) of the Commercial Computer Software - Restricted
 Rights clause in FAR 52.227-19.
  
 Gaussian, Inc.
 340 Quinnipiac St., Bldg. 40, Wallingford CT 06492
  
  
 ---------------------------------------------------------------
 Warning -- This program may not be used in any manner that
 competes with the business of Gaussian, Inc. or will provide
 assistance to any competitor of Gaussian, Inc.  The licensee
 of this program is prohibited from giving any competitor of
 Gaussian, Inc. access to this program.  By using this program,
 the user acknowledges that Gaussian, Inc. is engaged in the
 business of creating and licensing software in the field of
 computational chemistry and represents and warrants to the
 licensee that it is not a competitor of Gaussian, Inc. and that
 it will not use this program in any manner prohibited above.
 ---------------------------------------------------------------
  

 Cite this work as:
 Gaussian 16, Revision B.01,
 M. J. Frisch, G. W. Trucks, H. B. Schlegel, G. E. Scuseria, 
 M. A. Robb, J. R. Cheeseman, G. Scalmani, V. Barone, 
 G. A. Petersson, H. Nakatsuji, X. Li, M. Caricato, A. V. Marenich, 
 J. Bloino, B. G. Janesko, R. Gomperts, B. Mennucci, H. P. Hratchian, 
 J. V. Ortiz, A. F. Izmaylov, J. L. Sonnenberg, D. Williams-Young, 
 F. Ding, F. Lipparini, F. Egidi, J. Goings, B. Peng, A. Petrone, 
 T. Henderson, D. Ranasinghe, V. G. Zakrzewski, J. Gao, N. Rega, 
 G. Zheng, W. Liang, M. Hada, M. Ehara, K. Toyota, R. Fukuda, 
 J. Hasegawa, M. Ishida, T. Nakajima, Y. Honda, O. Kitao, H. Nakai, 
 T. Vreven, K. Throssell, J. A. Montgomery, Jr., J. E. Peralta, 
 F. Ogliaro, M. J. Bearpark, J. J. Heyd, E. N. Brothers, K. N. Kudin, 
 V. N. Staroverov, T. A. Keith, R. Kobayashi, J. Normand, 
 K. Raghavachari, A. P. Rendell, J. C. Burant, S. S. Iyengar, 
 J. Tomasi, M. Cossi, J. M. Millam, M. Klene, C. Adamo, R. Cammi, 
 J. W. Ochterski, R. L. Martin, K. Morokuma, O. Farkas, 
 J. B. Foresman, and D. J. Fox, Gaussian, Inc., Wallingford CT, 2016.
 
 ******************************************
 Gaussian 16:  ES64L-G16RevB.01 20-Dec-2017
                20-Oct-2021 
 ******************************************
 %nproc=28
 Will use up to   28 processors via shared memory.
 %mem=120GB
 %chk=/gscratch/ilahie/mccoygrp/coire_hocl/oop_s_rOH_opt/brhod_pp/brhod_pp_oop_30
 _sp.chk
 ----------------------------------------------------
 #p pop=NBO SP NoSymm mp2/aug-cc-pvtz density=current
 ----------------------------------------------------
 1/30=1,38=1,172=1/1;
 2/12=2,15=1,17=6,18=5,40=1/2;
 3/5=16,6=1,7=10,11=9,25=1,30=1,71=1/1,2,3;
 4//1;
 5/5=2,38=5/2;
 8/6=4,10=1/1;
 9/15=1,16=-3/6;
 10/5=1,13=10,31=1/2;
 6/7=2,8=2,9=2,10=2,22=-1,40=1/1,7;
 99/5=1,9=1/99;
 Leave Link    1 at Wed Oct 20 14:55:24 2021, MaxMem= 16106127360 cpu:               2.7 elap:               0.1
 (Enter /sw/contrib/gaussian/g16/B01/g16/l101.exe)
 -----
 title
 -----
 Symbolic Z-matrix:
 Charge = -1 Multiplicity = 1
 O
 X                    1     10. 
 H(iso=2)             1    r1       2     90. 
 Br                   1    r2       2     90.      3    a1       0
 H                    1    r3       2    oop      3    a1       0
       Variables:
  r1                    0.96048                  
  r2                    3.25083                  
  r3                    0.98806                  
  a1                  101.65547                  
  OOP                  60.                       
 
 ITRead=  0  0  0  0
 MicOpt= -1 -1 -1 -1
 NAtoms=      4 NQM=        4 NQMF=       0 NMMI=      0 NMMIF=      0
                NMic=       0 NMicF=      0.
                    Isotopes and Nuclear Properties:
 (Nuclear quadrupole moments (NQMom) in fm**2, nuclear magnetic moments (NMagM)
  in nuclear magnetons)

  Atom         1           2           3           4
 IAtWgt=          16           2          79           1
 AtmWgt=  15.9949146   2.0141018  78.9183361   1.0078250
 NucSpn=           0           2           3           1
 AtZEff=  -0.0000000  -0.0000000  -0.0000000  -0.0000000
 NQMom=    0.0000000   0.2860000  31.3000000   0.0000000
 NMagM=    0.0000000   0.8574380   2.1063990   2.7928460
 AtZNuc=   8.0000000   1.0000000  35.0000000   1.0000000
 Leave Link  101 at Wed Oct 20 14:55:24 2021, MaxMem= 16106127360 cpu:               2.1 elap:               0.1
 (Enter /sw/contrib/gaussian/g16/B01/g16/l202.exe)
                          Input orientation:                          
 ---------------------------------------------------------------------
 Center     Atomic      Atomic             Coordinates (Angstroms)
 Number     Number       Type             X           Y           Z
 ---------------------------------------------------------------------
      1          8           0        0.000000    0.000000    0.000000
      2          1           0        0.960482    0.000000    0.000000
      3         35           0       -0.656753   -3.183800    0.000000
      4          1           0       -0.172871   -0.838041    0.494030
 ---------------------------------------------------------------------
                    Distance matrix (angstroms):
                    1          2          3          4
     1  O    0.000000
     2  H    0.960482   0.000000
     3  Br   3.250832   3.570999   0.000000
     4  H    0.988060   1.493608   2.445566   0.000000
 Symmetry turned off by external request.
 Stoichiometry    BrH2O(1-)
 Framework group  C1[X(BrH2O)]
 Deg. of freedom     6
 Full point group                 C1      NOp   1
 Rotational constants (GHZ):         280.0611584           3.1447135           3.1189090
 Leave Link  202 at Wed Oct 20 14:55:24 2021, MaxMem= 16106127360 cpu:               0.3 elap:               0.0
 (Enter /sw/contrib/gaussian/g16/B01/g16/l301.exe)
 Standard basis: Aug-CC-pVTZ (5D, 7F)
 Ernie: Thresh=  0.10000D-02 Tol=  0.10000D-05 Strict=F.
 Ernie:  35 primitive shells out of 175 were deleted.
   151 basis functions,   343 primitive gaussians,   174 cartesian basis functions
    23 alpha electrons       23 beta electrons
       nuclear repulsion energy        67.3853968898 Hartrees.
 IExCor=    0 DFT=F Ex=HF Corr=None ExCW=0 ScaHFX=  1.000000
 ScaDFX=  1.000000  1.000000  1.000000  1.000000 ScalE2=  1.000000  1.000000
 IRadAn=      5 IRanWt=     -1 IRanGd=            0 ICorTp=0 IEmpDi=  4
 NAtoms=    4 NActive=    4 NUniq=    4 SFac= 1.00D+00 NAtFMM=   60 NAOKFM=F Big=F
 Integral buffers will be    131072 words long.
 Raffenetti 1 integral format.
 Two-electron integral symmetry is turned off.
 Leave Link  301 at Wed Oct 20 14:55:24 2021, MaxMem= 16106127360 cpu:               1.1 elap:               0.1
 (Enter /sw/contrib/gaussian/g16/B01/g16/l302.exe)
 NPDir=0 NMtPBC=     1 NCelOv=     1 NCel=       1 NClECP=     1 NCelD=      1
         NCelK=      1 NCelE2=     1 NClLst=     1 CellRange=     0.0.
 One-electron integrals computed using PRISM.
 NBasis=   151 RedAO= T EigKep=  3.45D-04  NBF=   151
 NBsUse=   151 1.00D-06 EigRej= -1.00D+00 NBFU=   151
 Leave Link  302 at Wed Oct 20 14:55:24 2021, MaxMem= 16106127360 cpu:               5.0 elap:               0.2
 (Enter /sw/contrib/gaussian/g16/B01/g16/l303.exe)
 DipDrv:  MaxL=1.
 Leave Link  303 at Wed Oct 20 14:55:24 2021, MaxMem= 16106127360 cpu:               1.7 elap:               0.1
 (Enter /sw/contrib/gaussian/g16/B01/g16/l401.exe)
 ExpMin= 2.53D-02 ExpMax= 1.06D+07 ExpMxC= 1.21D+04 IAcc=3 IRadAn=         5 AccDes= 0.00D+00
 Harris functional with IExCor=  205 and IRadAn=       5 diagonalized for initial guess.
 HarFok:  IExCor=  205 AccDes= 0.00D+00 IRadAn=         5 IDoV= 1 UseB2=F ITyADJ=14
 ICtDFT=  3500011 ScaDFX=  1.000000  1.000000  1.000000  1.000000
 FoFCou: FMM=F IPFlag=           0 FMFlag=      100000 FMFlg1=           0
         NFxFlg=           0 DoJE=T BraDBF=F KetDBF=T FulRan=T
         wScrn=  0.000000 ICntrl=       500 IOpCl=  0 I1Cent=   200000004 NGrid=           0
         NMat0=    1 NMatS0=      1 NMatT0=    0 NMatD0=    1 NMtDS0=    0 NMtDT0=    0
 Symmetry not used in FoFCou.
 Harris En= -2648.01544354389    
 JPrj=0 DoOrth=F DoCkMO=F.
 Leave Link  401 at Wed Oct 20 14:55:24 2021, MaxMem= 16106127360 cpu:               6.9 elap:               0.3
 (Enter /sw/contrib/gaussian/g16/B01/g16/l502.exe)
 Keep R1 ints in memory in canonical form, NReq=88256933.
 FoFCou: FMM=F IPFlag=           0 FMFlag=           0 FMFlg1=           0
         NFxFlg=           0 DoJE=F BraDBF=F KetDBF=F FulRan=T
         wScrn=  0.000000 ICntrl=       600 IOpCl=  0 I1Cent=           0 NGrid=           0
         NMat0=    1 NMatS0=  11476 NMatT0=    0 NMatD0=    1 NMtDS0=    0 NMtDT0=    0
 Symmetry not used in FoFCou.
 Two-electron integral symmetry not used.
 Closed shell SCF:
 Using DIIS extrapolation, IDIIS=  1040.
 NGot= 16106127360 LenX= 16040205766 LenY= 16040175049
 Requested convergence on RMS density matrix=1.00D-08 within 128 cycles.
 Requested convergence on MAX density matrix=1.00D-06.
 Requested convergence on             energy=1.00D-06.
 No special actions if energy rises.

 Cycle   1  Pass 1  IDiag  1:
 E= -2648.43161105004    
 DIIS: error= 5.73D-02 at cycle   1 NSaved=   1.
 NSaved= 1 IEnMin= 1 EnMin= -2648.43161105004     IErMin= 1 ErrMin= 5.73D-02
 ErrMax= 5.73D-02  0.00D+00 EMaxC= 1.00D-01 BMatC= 5.32D-01 BMatP= 5.32D-01
 IDIUse=3 WtCom= 4.27D-01 WtEn= 5.73D-01
 Coeff-Com:  0.100D+01
 Coeff-En:   0.100D+01
 Coeff:      0.100D+01
 Gap=     0.370 Goal=   None    Shift=    0.000
 GapD=    0.370 DampG=1.000 DampE=0.500 DampFc=0.5000 IDamp=-1.
 Damping current iteration by 5.00D-01
 RMSDP=2.97D-03 MaxDP=9.05D-02              OVMax= 1.21D-01

 Cycle   2  Pass 1  IDiag  1:
 E= -2648.52019339135     Delta-E=       -0.088582341304 Rises=F Damp=T
 DIIS: error= 2.70D-02 at cycle   2 NSaved=   2.
 NSaved= 2 IEnMin= 2 EnMin= -2648.52019339135     IErMin= 2 ErrMin= 2.70D-02
 ErrMax= 2.70D-02  0.00D+00 EMaxC= 1.00D-01 BMatC= 9.99D-02 BMatP= 5.32D-01
 IDIUse=3 WtCom= 7.30D-01 WtEn= 2.70D-01
 Coeff-Com: -0.597D+00 0.160D+01
 Coeff-En:   0.000D+00 0.100D+01
 Coeff:     -0.436D+00 0.144D+01
 Gap=     0.272 Goal=   None    Shift=    0.000
 RMSDP=1.22D-03 MaxDP=3.49D-02 DE=-8.86D-02 OVMax= 6.26D-02

 Cycle   3  Pass 1  IDiag  1:
 E= -2648.59887548358     Delta-E=       -0.078682092234 Rises=F Damp=F
 DIIS: error= 3.66D-03 at cycle   3 NSaved=   3.
 NSaved= 3 IEnMin= 3 EnMin= -2648.59887548358     IErMin= 3 ErrMin= 3.66D-03
 ErrMax= 3.66D-03  0.00D+00 EMaxC= 1.00D-01 BMatC= 2.81D-03 BMatP= 9.99D-02
 IDIUse=3 WtCom= 9.63D-01 WtEn= 3.66D-02
 Coeff-Com: -0.163D+00 0.350D+00 0.813D+00
 Coeff-En:   0.000D+00 0.000D+00 0.100D+01
 Coeff:     -0.157D+00 0.337D+00 0.820D+00
 Gap=     0.290 Goal=   None    Shift=    0.000
 RMSDP=2.23D-04 MaxDP=5.98D-03 DE=-7.87D-02 OVMax= 1.23D-02

 Cycle   4  Pass 1  IDiag  1:
 E= -2648.60066862465     Delta-E=       -0.001793141069 Rises=F Damp=F
 DIIS: error= 3.61D-04 at cycle   4 NSaved=   4.
 NSaved= 4 IEnMin= 4 EnMin= -2648.60066862465     IErMin= 4 ErrMin= 3.61D-04
 ErrMax= 3.61D-04  0.00D+00 EMaxC= 1.00D-01 BMatC= 3.20D-05 BMatP= 2.81D-03
 IDIUse=3 WtCom= 9.96D-01 WtEn= 3.61D-03
 Coeff-Com:  0.188D-01-0.442D-01-0.284D-02 0.103D+01
 Coeff-En:   0.000D+00 0.000D+00 0.000D+00 0.100D+01
 Coeff:      0.187D-01-0.441D-01-0.283D-02 0.103D+01
 Gap=     0.289 Goal=   None    Shift=    0.000
 RMSDP=4.35D-05 MaxDP=1.29D-03 DE=-1.79D-03 OVMax= 2.22D-03

 Cycle   5  Pass 1  IDiag  1:
 E= -2648.60071116555     Delta-E=       -0.000042540904 Rises=F Damp=F
 DIIS: error= 1.01D-04 at cycle   5 NSaved=   5.
 NSaved= 5 IEnMin= 5 EnMin= -2648.60071116555     IErMin= 5 ErrMin= 1.01D-04
 ErrMax= 1.01D-04  0.00D+00 EMaxC= 1.00D-01 BMatC= 1.71D-06 BMatP= 3.20D-05
 IDIUse=3 WtCom= 9.99D-01 WtEn= 1.01D-03
 Coeff-Com: -0.239D-02 0.683D-02-0.213D-01-0.395D+00 0.141D+01
 Coeff-En:   0.000D+00 0.000D+00 0.000D+00 0.000D+00 0.100D+01
 Coeff:     -0.239D-02 0.682D-02-0.213D-01-0.395D+00 0.141D+01
 Gap=     0.289 Goal=   None    Shift=    0.000
 RMSDP=1.94D-05 MaxDP=4.94D-04 DE=-4.25D-05 OVMax= 9.79D-04

 Cycle   6  Pass 1  IDiag  1:
 E= -2648.60071631557     Delta-E=       -0.000005150012 Rises=F Damp=F
 DIIS: error= 1.86D-05 at cycle   6 NSaved=   6.
 NSaved= 6 IEnMin= 6 EnMin= -2648.60071631557     IErMin= 6 ErrMin= 1.86D-05
 ErrMax= 1.86D-05  0.00D+00 EMaxC= 1.00D-01 BMatC= 7.90D-08 BMatP= 1.71D-06
 IDIUse=1 WtCom= 1.00D+00 WtEn= 0.00D+00
 Coeff-Com: -0.395D-03 0.105D-02-0.683D-03-0.262D-01-0.322D-01 0.106D+01
 Coeff:     -0.395D-03 0.105D-02-0.683D-03-0.262D-01-0.322D-01 0.106D+01
 Gap=     0.289 Goal=   None    Shift=    0.000
 RMSDP=2.95D-06 MaxDP=8.38D-05 DE=-5.15D-06 OVMax= 1.86D-04

 Cycle   7  Pass 1  IDiag  1:
 E= -2648.60071650069     Delta-E=       -0.000000185128 Rises=F Damp=F
 DIIS: error= 4.76D-06 at cycle   7 NSaved=   7.
 NSaved= 7 IEnMin= 7 EnMin= -2648.60071650069     IErMin= 7 ErrMin= 4.76D-06
 ErrMax= 4.76D-06  0.00D+00 EMaxC= 1.00D-01 BMatC= 1.19D-08 BMatP= 7.90D-08
 IDIUse=1 WtCom= 1.00D+00 WtEn= 0.00D+00
 Coeff-Com: -0.205D-03 0.230D-03 0.309D-02 0.272D-01-0.145D+00 0.164D+00
 Coeff-Com:  0.951D+00
 Coeff:     -0.205D-03 0.230D-03 0.309D-02 0.272D-01-0.145D+00 0.164D+00
 Coeff:      0.951D+00
 Gap=     0.289 Goal=   None    Shift=    0.000
 RMSDP=1.05D-06 MaxDP=2.60D-05 DE=-1.85D-07 OVMax= 7.06D-05

 Cycle   8  Pass 1  IDiag  1:
 E= -2648.60071652124     Delta-E=       -0.000000020542 Rises=F Damp=F
 DIIS: error= 1.63D-06 at cycle   8 NSaved=   8.
 NSaved= 8 IEnMin= 8 EnMin= -2648.60071652124     IErMin= 8 ErrMin= 1.63D-06
 ErrMax= 1.63D-06  0.00D+00 EMaxC= 1.00D-01 BMatC= 5.26D-10 BMatP= 1.19D-08
 IDIUse=1 WtCom= 1.00D+00 WtEn= 0.00D+00
 Coeff-Com:  0.107D-03-0.213D-03-0.422D-03 0.103D-02 0.140D-01-0.851D-01
 Coeff-Com: -0.109D+00 0.118D+01
 Coeff:      0.107D-03-0.213D-03-0.422D-03 0.103D-02 0.140D-01-0.851D-01
 Coeff:     -0.109D+00 0.118D+01
 Gap=     0.289 Goal=   None    Shift=    0.000
 RMSDP=3.58D-07 MaxDP=9.98D-06 DE=-2.05D-08 OVMax= 1.86D-05

 Cycle   9  Pass 1  IDiag  1:
 E= -2648.60071652254     Delta-E=       -0.000000001307 Rises=F Damp=F
 DIIS: error= 4.29D-07 at cycle   9 NSaved=   9.
 NSaved= 9 IEnMin= 9 EnMin= -2648.60071652254     IErMin= 9 ErrMin= 4.29D-07
 ErrMax= 4.29D-07  0.00D+00 EMaxC= 1.00D-01 BMatC= 3.01D-11 BMatP= 5.26D-10
 IDIUse=1 WtCom= 1.00D+00 WtEn= 0.00D+00
 Coeff-Com: -0.118D-05 0.128D-04-0.147D-03-0.186D-02 0.821D-02-0.643D-02
 Coeff-Com: -0.524D-01-0.104D-01 0.106D+01
 Coeff:     -0.118D-05 0.128D-04-0.147D-03-0.186D-02 0.821D-02-0.643D-02
 Coeff:     -0.524D-01-0.104D-01 0.106D+01
 Gap=     0.289 Goal=   None    Shift=    0.000
 RMSDP=6.65D-08 MaxDP=1.79D-06 DE=-1.31D-09 OVMax= 3.71D-06

 Cycle  10  Pass 1  IDiag  1:
 E= -2648.60071652262     Delta-E=       -0.000000000071 Rises=F Damp=F
 DIIS: error= 1.45D-07 at cycle  10 NSaved=  10.
 NSaved=10 IEnMin=10 EnMin= -2648.60071652262     IErMin=10 ErrMin= 1.45D-07
 ErrMax= 1.45D-07  0.00D+00 EMaxC= 1.00D-01 BMatC= 2.79D-12 BMatP= 3.01D-11
 IDIUse=1 WtCom= 1.00D+00 WtEn= 0.00D+00
 Coeff-Com: -0.844D-05 0.158D-04 0.460D-04 0.751D-04-0.181D-02 0.768D-02
 Coeff-Com:  0.149D-01-0.111D+00-0.511D-01 0.114D+01
 Coeff:     -0.844D-05 0.158D-04 0.460D-04 0.751D-04-0.181D-02 0.768D-02
 Coeff:      0.149D-01-0.111D+00-0.511D-01 0.114D+01
 Gap=     0.289 Goal=   None    Shift=    0.000
 RMSDP=1.81D-08 MaxDP=3.55D-07 DE=-7.09D-11 OVMax= 1.23D-06

 Cycle  11  Pass 1  IDiag  1:
 E= -2648.60071652262     Delta-E=       -0.000000000008 Rises=F Damp=F
 DIIS: error= 3.02D-08 at cycle  11 NSaved=  11.
 NSaved=11 IEnMin=11 EnMin= -2648.60071652262     IErMin=11 ErrMin= 3.02D-08
 ErrMax= 3.02D-08  0.00D+00 EMaxC= 1.00D-01 BMatC= 1.39D-13 BMatP= 2.79D-12
 IDIUse=1 WtCom= 1.00D+00 WtEn= 0.00D+00
 Coeff-Com:  0.189D-05-0.405D-05-0.255D-05 0.666D-04 0.152D-04-0.129D-02
 Coeff-Com: -0.759D-03 0.234D-01-0.495D-01-0.231D+00 0.126D+01
 Coeff:      0.189D-05-0.405D-05-0.255D-05 0.666D-04 0.152D-04-0.129D-02
 Coeff:     -0.759D-03 0.234D-01-0.495D-01-0.231D+00 0.126D+01
 Gap=     0.289 Goal=   None    Shift=    0.000
 RMSDP=6.94D-09 MaxDP=1.99D-07 DE=-8.19D-12 OVMax= 3.48D-07

 SCF Done:  E(RHF) =  -2648.60071652     A.U. after   11 cycles
            NFock= 11  Conv=0.69D-08     -V/T= 2.0000
 KE= 2.648506134571D+03 PE=-6.482834183968D+03 EE= 1.118341935984D+03
 Leave Link  502 at Wed Oct 20 14:55:27 2021, MaxMem= 16106127360 cpu:              32.2 elap:               2.1
 (Enter /sw/contrib/gaussian/g16/B01/g16/l801.exe)
 ExpMin= 2.53D-02 ExpMax= 1.06D+07 ExpMxC= 1.21D+04 IAcc=3 IRadAn=         5 AccDes= 0.00D+00
 HarFok:  IExCor=  205 AccDes= 0.00D+00 IRadAn=         5 IDoV=-2 UseB2=F ITyADJ=14
 ICtDFT= 12500011 ScaDFX=  1.000000  1.000000  1.000000  1.000000
 Largest valence mixing into a core orbital is  1.27D-04
 Largest core mixing into a valence orbital is  3.64D-05
 Range of M.O.s used for correlation:    11   151
 NBasis=   151 NAE=    23 NBE=    23 NFC=    10 NFV=     0
 NROrb=    141 NOA=    13 NOB=    13 NVA=   128 NVB=   128

 **** Warning!!: The largest alpha MO coefficient is  0.14298184D+02

 Leave Link  801 at Wed Oct 20 14:55:27 2021, MaxMem= 16106127360 cpu:               4.0 elap:               0.2
 (Enter /sw/contrib/gaussian/g16/B01/g16/l906.exe)
 Frozen-core derivative calculation, NFC=  10 NFV=   0.
 FulOut=F Deriv=T AODrv=F NAtomX=     4
   MMem=         214  MDisk=          13 MDiskD=          13
  W3Min=      604302 MinDsk=     1007783 NBas6D=         174
 NBas2D=       15618    NTT=       15225    LW2=     9911920
    MDV= 16105777337 MDiskM=      462752 NBas2p=       15367
 Fully in-core method, ICMem=   275550978.
 IMap=   1   2   3   4   5   6   7   8   9  10  11  12  13  14  15  16  17  18  19  20
 IMap=  21  22  23
 JobTyp=1 Pass  1 fully in-core, NPsUse= 28.
 Compute canonical integrals.
 FoFCou: FMM=F IPFlag=           0 FMFlag=           0 FMFlg1=           0
         NFxFlg=           0 DoJE=F BraDBF=F KetDBF=F FulRan=T
         wScrn=  0.000000 ICntrl=       600 IOpCl=  1 I1Cent=           0 NGrid=           0
         NMat0=    1 NMatS0=  15618 NMatT0=    0 NMatD0=    1 NMtDS0=    0 NMtDT0=    0
 Symmetry not used in FoFCou.
 Spin components of T(2) and E(2):
     alpha-alpha T2 =       0.2054868926D-01 E2=     -0.6967691714D-01
     alpha-beta  T2 =       0.1091917451D+00 E2=     -0.3784164679D+00
     beta-beta   T2 =       0.2054868926D-01 E2=     -0.6967691714D-01
 The integrals were generated   1 times.
 ANorm=    0.1072515326D+01
 E2 =    -0.5177703021D+00 EUMP2 =    -0.26491184868248D+04
 Leave Link  906 at Wed Oct 20 14:55:30 2021, MaxMem= 16106127360 cpu:              90.0 elap:               3.2
 (Enter /sw/contrib/gaussian/g16/B01/g16/l1002.exe)
 Minotr:  Closed shell wavefunction.
          Computing MP2/KS-MP2 derivatives.
          Using Z-Vector for PSCF gradient.
          Skipping F1 and S1 gradient terms here.
          Frozen-core window.
          Direct CPHF calculation.
          Differentiating once with respect to electric field.
                with respect to dipole field.
          Electric field/nuclear overlap derivatives assumed to be zero.
          Requested convergence is 1.0D-10 RMS, and 1.0D-09 maximum.
          NewPWx=F KeepS1=T KeepF1=T KeepIn=T MapXYZ=F SortEE=F KeepMc=T.
 Keep R1 ints in memory in canonical form, NReq=88259781.
 FoFCou: FMM=F IPFlag=           0 FMFlag=           0 FMFlg1=           0
         NFxFlg=           0 DoJE=F BraDBF=F KetDBF=F FulRan=T
         wScrn=  0.000000 ICntrl=       600 IOpCl=  0 I1Cent=           0 NGrid=           0
         NMat0=    1 NMatS0=  11476 NMatT0=    0 NMatD0=    1 NMtDS0=    0 NMtDT0=    0
 Symmetry not used in FoFCou.
 Two-electron integral symmetry not used.
          MDV=   16106127360 using IRadAn=       5.
          Solving linear equations separately, MaxMat=       0.
          There are     1 degrees of freedom in the 1st order CPHF.  IDoFFX=0 NUNeed=     1.
 LinEq1:  Iter=  0 NonCon=     1 RMS=2.40D-03 Max=3.04D-02 NDo=     1
 AX will form     1 AO Fock derivatives at one time.
 LinEq1:  Iter=  1 NonCon=     1 RMS=4.03D-04 Max=3.88D-03 NDo=     1
 LinEq1:  Iter=  2 NonCon=     1 RMS=1.93D-04 Max=1.99D-03 NDo=     1
 LinEq1:  Iter=  3 NonCon=     1 RMS=5.32D-05 Max=7.98D-04 NDo=     1
 LinEq1:  Iter=  4 NonCon=     1 RMS=1.06D-05 Max=1.16D-04 NDo=     1
 LinEq1:  Iter=  5 NonCon=     1 RMS=4.83D-06 Max=6.15D-05 NDo=     1
 LinEq1:  Iter=  6 NonCon=     1 RMS=1.05D-06 Max=1.14D-05 NDo=     1
 LinEq1:  Iter=  7 NonCon=     1 RMS=2.27D-07 Max=2.23D-06 NDo=     1
 LinEq1:  Iter=  8 NonCon=     1 RMS=6.63D-08 Max=6.72D-07 NDo=     1
 LinEq1:  Iter=  9 NonCon=     1 RMS=1.05D-08 Max=1.52D-07 NDo=     1
 LinEq1:  Iter= 10 NonCon=     1 RMS=1.67D-09 Max=1.54D-08 NDo=     1
 LinEq1:  Iter= 11 NonCon=     1 RMS=3.80D-10 Max=4.22D-09 NDo=     1
 LinEq1:  Iter= 12 NonCon=     1 RMS=8.89D-11 Max=1.16D-09 NDo=     1
 LinEq1:  Iter= 13 NonCon=     0 RMS=1.64D-11 Max=1.49D-10 NDo=     1
 Linear equations converged to 1.000D-10 1.000D-09 after    13 iterations.
 End of Minotr F.D. properties file   721 does not exist.
 End of Minotr F.D. properties file   722 does not exist.
 End of Minotr F.D. properties file   788 does not exist.
 Leave Link 1002 at Wed Oct 20 14:55:33 2021, MaxMem= 16106127360 cpu:              38.0 elap:               2.7
 (Enter /sw/contrib/gaussian/g16/B01/g16/l601.exe)
 Copying SCF densities to generalized density rwf, IOpCl= 0 IROHF=0.

 **********************************************************************

            Population analysis using the MP2 Density.

 **********************************************************************

 Alpha  occ. eigenvalues -- -489.73405 -64.87427 -58.22877 -58.22875 -58.22870
 Alpha  occ. eigenvalues --  -20.39735  -9.54672  -7.15430  -7.15410  -7.15393
 Alpha  occ. eigenvalues --   -2.89602  -2.89598  -2.89575  -2.89552  -2.89548
 Alpha  occ. eigenvalues --   -1.17754  -0.70390  -0.53001  -0.42412  -0.34084
 Alpha  occ. eigenvalues --   -0.15815  -0.15462  -0.15321
 Alpha virt. eigenvalues --    0.13586   0.16951   0.23582   0.24239   0.25299
 Alpha virt. eigenvalues --    0.27382   0.28099   0.30003   0.33954   0.35868
 Alpha virt. eigenvalues --    0.38957   0.39764   0.41822   0.45588   0.47987
 Alpha virt. eigenvalues --    0.48833   0.53580   0.53891   0.57047   0.58140
 Alpha virt. eigenvalues --    0.59213   0.61482   0.67452   0.74253   0.74690
 Alpha virt. eigenvalues --    0.76088   0.78482   0.84469   0.86517   0.88764
 Alpha virt. eigenvalues --    0.90541   0.96887   1.00092   1.00490   1.02441
 Alpha virt. eigenvalues --    1.02590   1.02922   1.06253   1.06851   1.08013
 Alpha virt. eigenvalues --    1.09109   1.11320   1.13555   1.16378   1.17439
 Alpha virt. eigenvalues --    1.18105   1.19295   1.20597   1.22216   1.25488
 Alpha virt. eigenvalues --    1.32456   1.35261   1.37355   1.39123   1.43672
 Alpha virt. eigenvalues --    1.49262   1.54221   1.61518   1.68467   1.70446
 Alpha virt. eigenvalues --    1.75731   1.81131   2.01780   2.05248   2.16373
 Alpha virt. eigenvalues --    2.32788   2.41101   2.42488   2.44496   2.47373
 Alpha virt. eigenvalues --    2.48457   2.54683   2.55471   2.56423   2.56534
 Alpha virt. eigenvalues --    2.56950   2.57486   2.58634   2.59665   2.62664
 Alpha virt. eigenvalues --    2.64254   2.65347   2.66767   2.68372   2.73605
 Alpha virt. eigenvalues --    2.76492   2.80392   2.85738   2.89705   2.94949
 Alpha virt. eigenvalues --    2.99163   3.05362   3.12111   3.87371   3.96597
 Alpha virt. eigenvalues --    4.20676   4.29749   4.30831   4.40049   4.44635
 Alpha virt. eigenvalues --    4.50491   4.54354   4.58770   4.65127   4.73930
 Alpha virt. eigenvalues --    4.92726   5.04505   5.28685   5.35437   5.40985
 Alpha virt. eigenvalues --    5.46965   5.67939   5.79180   6.38906   6.68898
 Alpha virt. eigenvalues --    6.91725   7.12855   7.28233   7.39837   7.45317
 Alpha virt. eigenvalues --    7.47945   7.54574   7.59624   7.71823   8.00991
 Alpha virt. eigenvalues --    8.11984   8.94225  15.67306
          Condensed to atoms (all electrons):
               1          2          3          4
     1  O    8.183124   0.205739  -0.061598   0.157937
     2  H    0.205739   0.591115   0.003481   0.021646
     3  Br  -0.061598   0.003481  35.957196   0.043535
     4  H    0.157937   0.021646   0.043535   0.527085
 Mulliken charges:
               1
     1  O   -0.485203
     2  H    0.178019
     3  Br  -0.942614
     4  H    0.249797
 Sum of Mulliken charges =  -1.00000
 Mulliken charges with hydrogens summed into heavy atoms:
               1
     1  O   -0.057386
     3  Br  -0.942614
 Electronic spatial extent (au):  <R**2>=           1430.7331
 Charge=             -1.0000 electrons
 Dipole moment (field-independent basis, Debye):
    X=              3.9686    Y=             12.9303    Z=              0.4119  Tot=             13.5319
 Quadrupole moment (field-independent basis, Debye-Ang):
   XX=            -31.1069   YY=            -76.3144   ZZ=            -31.2498
   XY=             -8.7263   XZ=             -0.1562   YZ=             -0.2740
 Traceless Quadrupole moment (field-independent basis, Debye-Ang):
   XX=             15.1168   YY=            -30.0907   ZZ=             14.9739
   XY=             -8.7263   XZ=             -0.1562   YZ=             -0.2740
 Octapole moment (field-independent basis, Debye-Ang**2):
  XXX=             47.8721  YYY=            373.1475  ZZZ=             -1.6466  XYY=             43.8515
  XXY=             81.9077  XXZ=             -0.7149  XZZ=             14.8466  YZZ=             75.6820
  YYZ=             -2.4434  XYZ=             -0.3809
 Hexadecapole moment (field-independent basis, Debye-Ang**3):
 XXXX=           -111.8146 YYYY=          -1957.7307 ZZZZ=            -51.7272 XXXY=           -151.9006
 XXXZ=              0.3930 YYYX=           -239.7598 YYYZ=              9.7345 ZZZX=              0.3232
 ZZZY=              2.2487 XXYY=           -287.2035 XXZZ=            -27.4855 YYZZ=           -258.2206
 XXYZ=              1.0911 YYXZ=              1.5821 ZZXY=            -49.3221
 N-N= 6.738539688984D+01 E-N=-6.481294599748D+03  KE= 2.648354422659D+03
 No NMR shielding tensors so no spin-rotation constants.
 Leave Link  601 at Wed Oct 20 14:55:33 2021, MaxMem= 16106127360 cpu:               4.3 elap:               0.2
 (Enter /sw/contrib/gaussian/g16/B01/g16/l607.exe)
 ******************************Gaussian NBO Version 3.1******************************
             N A T U R A L   A T O M I C   O R B I T A L   A N D
          N A T U R A L   B O N D   O R B I T A L   A N A L Y S I S
 ******************************Gaussian NBO Version 3.1******************************
       /RESON  / : Allow strongly delocalized NBO set

 Analyzing the MP2 density

 Job title: title                                                           

 Storage needed:     69217 in NPA,     91732 in NBO (********** available)
 GSVD:  LWork=         337 too small for GESVD, short by       43655 words or       43655 for optimal perf.


 NATURAL POPULATIONS:  Natural atomic orbital occupancies 
                                                          
   NAO  Atom  No  lang   Type(AO)    Occupancy
 --------------------------------------------
     1    O    1  S      Cor( 1S)     1.99968
     2    O    1  S      Val( 2S)     1.74747
     3    O    1  S      Ryd( 3S)     0.00623
     4    O    1  S      Ryd( 4S)     0.00059
     5    O    1  S      Ryd( 5S)     0.00020
     6    O    1  px     Val( 2p)     1.52584
     7    O    1  px     Ryd( 3p)     0.01001
     8    O    1  px     Ryd( 4p)     0.00058
     9    O    1  px     Ryd( 5p)     0.00009
    10    O    1  py     Val( 2p)     1.72404
    11    O    1  py     Ryd( 3p)     0.01425
    12    O    1  py     Ryd( 4p)     0.00062
    13    O    1  py     Ryd( 5p)     0.00012
    14    O    1  pz     Val( 2p)     1.86398
    15    O    1  pz     Ryd( 3p)     0.01913
    16    O    1  pz     Ryd( 4p)     0.00063
    17    O    1  pz     Ryd( 5p)     0.00006
    18    O    1  dxy    Ryd( 3d)     0.00886
    19    O    1  dxy    Ryd( 4d)     0.00062
    20    O    1  dxy    Ryd( 5d)     0.00013
    21    O    1  dxz    Ryd( 3d)     0.00965
    22    O    1  dxz    Ryd( 4d)     0.00083
    23    O    1  dxz    Ryd( 5d)     0.00015
    24    O    1  dyz    Ryd( 3d)     0.00997
    25    O    1  dyz    Ryd( 4d)     0.00046
    26    O    1  dyz    Ryd( 5d)     0.00014
    27    O    1  dx2y2  Ryd( 3d)     0.01072
    28    O    1  dx2y2  Ryd( 4d)     0.00032
    29    O    1  dx2y2  Ryd( 5d)     0.00013
    30    O    1  dz2    Ryd( 3d)     0.00848
    31    O    1  dz2    Ryd( 4d)     0.00047
    32    O    1  dz2    Ryd( 5d)     0.00012
    33    O    1  f(0)   Ryd( 4f)     0.00066
    34    O    1  f(0)   Ryd( 5f)     0.00011
    35    O    1  f(C1)  Ryd( 4f)     0.00048
    36    O    1  f(C1)  Ryd( 5f)     0.00008
    37    O    1  f(S1)  Ryd( 4f)     0.00066
    38    O    1  f(S1)  Ryd( 5f)     0.00011
    39    O    1  f(C2)  Ryd( 4f)     0.00064
    40    O    1  f(C2)  Ryd( 5f)     0.00014
    41    O    1  f(S2)  Ryd( 4f)     0.00051
    42    O    1  f(S2)  Ryd( 5f)     0.00009
    43    O    1  f(C3)  Ryd( 4f)     0.00042
    44    O    1  f(C3)  Ryd( 5f)     0.00010
    45    O    1  f(S3)  Ryd( 4f)     0.00055
    46    O    1  f(S3)  Ryd( 5f)     0.00014

    47    H    2  S      Val( 1S)     0.54818
    48    H    2  S      Ryd( 2S)     0.00171
    49    H    2  S      Ryd( 3S)     0.00039
    50    H    2  S      Ryd( 4S)     0.00012
    51    H    2  px     Ryd( 3p)     0.00025
    52    H    2  px     Ryd( 2p)     0.00070
    53    H    2  px     Ryd( 4p)     0.00016
    54    H    2  py     Ryd( 2p)     0.00077
    55    H    2  py     Ryd( 3p)     0.00016
    56    H    2  py     Ryd( 4p)     0.00006
    57    H    2  pz     Ryd( 2p)     0.00116
    58    H    2  pz     Ryd( 3p)     0.00016
    59    H    2  pz     Ryd( 4p)     0.00005
    60    H    2  dxy    Ryd( 3d)     0.00018
    61    H    2  dxy    Ryd( 4d)     0.00007
    62    H    2  dxz    Ryd( 3d)     0.00030
    63    H    2  dxz    Ryd( 4d)     0.00007
    64    H    2  dyz    Ryd( 3d)     0.00011
    65    H    2  dyz    Ryd( 4d)     0.00005
    66    H    2  dx2y2  Ryd( 3d)     0.00014
    67    H    2  dx2y2  Ryd( 4d)     0.00005
    68    H    2  dz2    Ryd( 3d)     0.00012
    69    H    2  dz2    Ryd( 4d)     0.00006

    70   Br    3  S      Cor( 1S)     2.00003
    71   Br    3  S      Cor( 3S)     2.00000
    72   Br    3  S      Cor( 2S)     2.00000
    73   Br    3  S      Val( 4S)     1.97994
    74   Br    3  S      Ryd( 5S)     0.00333
    75   Br    3  S      Ryd( 6S)     0.00061
    76   Br    3  S      Ryd( 7S)     0.00014
    77   Br    3  px     Cor( 2p)     2.00002
    78   Br    3  px     Cor( 3p)     2.00000
    79   Br    3  px     Val( 4p)     1.95290
    80   Br    3  px     Ryd( 5p)     0.01206
    81   Br    3  px     Ryd( 6p)     0.00084
    82   Br    3  px     Ryd( 7p)     0.00005
    83   Br    3  py     Cor( 2p)     2.00001
    84   Br    3  py     Cor( 3p)     2.00000
    85   Br    3  py     Val( 4p)     1.93373
    86   Br    3  py     Ryd( 5p)     0.01092
    87   Br    3  py     Ryd( 6p)     0.00081
    88   Br    3  py     Ryd( 7p)     0.00009
    89   Br    3  pz     Cor( 2p)     2.00002
    90   Br    3  pz     Cor( 3p)     2.00000
    91   Br    3  pz     Val( 4p)     1.95142
    92   Br    3  pz     Ryd( 5p)     0.01198
    93   Br    3  pz     Ryd( 6p)     0.00084
    94   Br    3  pz     Ryd( 7p)     0.00005
    95   Br    3  dxy    Cor( 3d)     1.99768
    96   Br    3  dxy    Ryd( 4d)     0.01882
    97   Br    3  dxy    Ryd( 5d)     0.00161
    98   Br    3  dxy    Ryd( 6d)     0.00022
    99   Br    3  dxz    Cor( 3d)     1.99769
   100   Br    3  dxz    Ryd( 4d)     0.01874
   101   Br    3  dxz    Ryd( 5d)     0.00179
   102   Br    3  dxz    Ryd( 6d)     0.00023
   103   Br    3  dyz    Cor( 3d)     1.99768
   104   Br    3  dyz    Ryd( 4d)     0.01893
   105   Br    3  dyz    Ryd( 5d)     0.00162
   106   Br    3  dyz    Ryd( 6d)     0.00025
   107   Br    3  dx2y2  Cor( 3d)     1.99767
   108   Br    3  dx2y2  Ryd( 4d)     0.01858
   109   Br    3  dx2y2  Ryd( 5d)     0.00169
   110   Br    3  dx2y2  Ryd( 6d)     0.00025
   111   Br    3  dz2    Cor( 3d)     1.99768
   112   Br    3  dz2    Ryd( 4d)     0.01868
   113   Br    3  dz2    Ryd( 5d)     0.00175
   114   Br    3  dz2    Ryd( 6d)     0.00023
   115   Br    3  f(0)   Ryd( 4f)     0.00176
   116   Br    3  f(0)   Ryd( 5f)     0.00025
   117   Br    3  f(C1)  Ryd( 4f)     0.00176
   118   Br    3  f(C1)  Ryd( 5f)     0.00025
   119   Br    3  f(S1)  Ryd( 4f)     0.00175
   120   Br    3  f(S1)  Ryd( 5f)     0.00026
   121   Br    3  f(C2)  Ryd( 4f)     0.00175
   122   Br    3  f(C2)  Ryd( 5f)     0.00026
   123   Br    3  f(S2)  Ryd( 4f)     0.00177
   124   Br    3  f(S2)  Ryd( 5f)     0.00025
   125   Br    3  f(C3)  Ryd( 4f)     0.00173
   126   Br    3  f(C3)  Ryd( 5f)     0.00026
   127   Br    3  f(S3)  Ryd( 4f)     0.00174
   128   Br    3  f(S3)  Ryd( 5f)     0.00026

   129    H    4  S      Val( 1S)     0.49023
   130    H    4  S      Ryd( 2S)     0.00518
   131    H    4  S      Ryd( 3S)     0.00044
   132    H    4  S      Ryd( 4S)     0.00009
   133    H    4  px     Ryd( 2p)     0.00333
   134    H    4  px     Ryd( 3p)     0.00035
   135    H    4  px     Ryd( 4p)     0.00009
   136    H    4  py     Ryd( 2p)     0.00446
   137    H    4  py     Ryd( 3p)     0.00047
   138    H    4  py     Ryd( 4p)     0.00019
   139    H    4  pz     Ryd( 2p)     0.00332
   140    H    4  pz     Ryd( 3p)     0.00042
   141    H    4  pz     Ryd( 4p)     0.00013
   142    H    4  dxy    Ryd( 3d)     0.00019
   143    H    4  dxy    Ryd( 4d)     0.00008
   144    H    4  dxz    Ryd( 3d)     0.00014
   145    H    4  dxz    Ryd( 4d)     0.00007
   146    H    4  dyz    Ryd( 3d)     0.00024
   147    H    4  dyz    Ryd( 4d)     0.00007
   148    H    4  dx2y2  Ryd( 3d)     0.00024
   149    H    4  dx2y2  Ryd( 4d)     0.00009
   150    H    4  dz2    Ryd( 3d)     0.00015
   151    H    4  dz2    Ryd( 4d)     0.00008

 WARNING:  5 low occupancy (<1.9990e) core orbitals found on Br    3


 Summary of Natural Population Analysis:                  
                                                          
                                       Natural Population 
                Natural  -----------------------------------------------
    Atom  No    Charge         Core      Valence    Rydberg      Total
 -----------------------------------------------------------------------
      O    1   -0.96926      1.99968     6.86133    0.10825     8.96926
      H    2    0.44496      0.00000     0.54818    0.00686     0.55504
     Br    3   -0.96560     27.98848     7.81800    0.15912    35.96560
      H    4    0.48989      0.00000     0.49023    0.01987     0.51011
 =======================================================================
   * Total *   -1.00000     29.98816    15.71774    0.29411    46.00000

                                 Natural Population      
 --------------------------------------------------------
   Core                      29.98816 ( 99.9605% of  30)
   Valence                   15.71774 ( 98.2359% of  16)
   Natural Minimal Basis     45.70589 ( 99.3606% of  46)
   Natural Rydberg Basis      0.29411 (  0.6394% of  46)
 --------------------------------------------------------

    Atom  No          Natural Electron Configuration
 ----------------------------------------------------------------------------
      O    1      [core]2S( 1.75)2p( 5.11)3S( 0.01)3p( 0.04)3d( 0.05)
      H    2            1S( 0.55)
     Br    3      [core]4S( 1.98)4p( 5.84)4d( 0.09)5p( 0.03)4f( 0.01)5d( 0.01)
      H    4            1S( 0.49)2S( 0.01)2p( 0.01)


 NATURAL BOND ORBITAL ANALYSIS:
 Warning:  a bond orbital has occupanc of -0.00004

                       Occupancies       Lewis Structure    Low   High
           Occ.    -------------------  -----------------   occ   occ
  Cycle   Thresh.   Lewis   Non-Lewis     CR  BD  3C  LP    (L)   (NL)   Dev
 =============================================================================
   1(1)    1.90    45.67162   0.32838     15   2   0   6     0      0    0.04
 -----------------------------------------------------------------------------

 Structure accepted: No low occupancy Lewis orbitals

 WARNING:  5 low occupancy (<1.9990e) core orbitals found on Br    3

 --------------------------------------------------------
   Core                     29.98816 ( 99.961% of  30)
   Valence Lewis            15.68346 ( 98.022% of  16)
  ==================       ============================
   Total Lewis              45.67162 ( 99.286% of  46)
  -----------------------------------------------------
   Valence non-Lewis         0.06430 (  0.140% of  46)
   Rydberg non-Lewis         0.26408 (  0.574% of  46)
  ==================       ============================
   Total non-Lewis           0.32838 (  0.714% of  46)
 --------------------------------------------------------


       (Occupancy)   Bond orbital/ Coefficients/ Hybrids
 ---------------------------------------------------------------------------------
     1. (1.96618) BD ( 1) O   1 - H   2  
                ( 72.88%)   0.8537* O   1 s( 20.96%)p 3.75( 78.58%)d 0.02(  0.45%)
                                                  f 0.00(  0.01%)
                                            0.0002  0.4577 -0.0075  0.0024 -0.0047
                                            0.8838 -0.0329  0.0083 -0.0009  0.0525
                                           -0.0130  0.0014 -0.0032 -0.0217  0.0089
                                           -0.0009  0.0015 -0.0153  0.0007  0.0021
                                            0.0134 -0.0023  0.0001 -0.0040 -0.0005
                                            0.0017  0.0542 -0.0035  0.0032 -0.0334
                                            0.0016 -0.0007  0.0000  0.0002 -0.0070
                                           -0.0013 -0.0003  0.0000 -0.0004 -0.0000
                                           -0.0054  0.0017  0.0050  0.0026  0.0013
                                           -0.0002
                ( 27.12%)   0.5207* H   2 s( 99.89%)p 0.00(  0.10%)d 0.00(  0.01%)
                                            0.9995  0.0036 -0.0002  0.0001 -0.0005
                                            0.0308 -0.0041  0.0029  0.0000 -0.0009
                                            0.0007  0.0016 -0.0001  0.0022 -0.0020
                                            0.0010  0.0009 -0.0019 -0.0007  0.0077
                                           -0.0016 -0.0046  0.0006
     2. (1.96698) BD ( 1) O   1 - H   4  
                ( 76.72%)   0.8759* O   1 s( 24.05%)p 3.14( 75.49%)d 0.02(  0.45%)
                                                  f 0.00(  0.01%)
                                           -0.0003 -0.4904  0.0005  0.0001  0.0009
                                            0.1978 -0.0186 -0.0000  0.0020  0.7173
                                           -0.0145  0.0070 -0.0026 -0.4478  0.0069
                                           -0.0053  0.0044  0.0078 -0.0051  0.0027
                                           -0.0043  0.0030 -0.0017  0.0538 -0.0028
                                           -0.0021  0.0371 -0.0024  0.0002  0.0066
                                            0.0009 -0.0021  0.0088 -0.0009 -0.0006
                                            0.0005 -0.0000  0.0008  0.0050  0.0020
                                           -0.0028 -0.0007 -0.0016 -0.0013  0.0025
                                           -0.0035
                ( 23.28%)   0.4825* H   4 s( 99.87%)p 0.00(  0.12%)d 0.00(  0.01%)
                                           -0.9992 -0.0165 -0.0005  0.0002 -0.0193
                                            0.0005  0.0002 -0.0024 -0.0198 -0.0067
                                           -0.0152  0.0130  0.0050 -0.0004  0.0025
                                            0.0004 -0.0017  0.0017  0.0001 -0.0068
                                            0.0008  0.0027  0.0009
     3. (1.99968) CR ( 1) O   1           s(100.00%)
                                            1.0000 -0.0004  0.0000 -0.0000  0.0000
                                           -0.0001  0.0000 -0.0000  0.0000  0.0001
                                           -0.0000  0.0000  0.0000 -0.0000  0.0000
                                           -0.0000  0.0000 -0.0000 -0.0000  0.0000
                                            0.0000  0.0000 -0.0000  0.0000 -0.0000
                                           -0.0000 -0.0000  0.0000  0.0000  0.0000
                                            0.0000 -0.0000  0.0000  0.0000  0.0000
                                            0.0000 -0.0000  0.0000  0.0000  0.0000
                                            0.0000 -0.0000 -0.0000 -0.0000 -0.0000
                                           -0.0000
     4. (2.00003) CR ( 1)Br   3           s(100.00%)
                                            1.0000  0.0000  0.0000 -0.0000  0.0000
                                            0.0000  0.0000 -0.0000 -0.0000  0.0000
                                            0.0000 -0.0000 -0.0000 -0.0000 -0.0000
                                            0.0000 -0.0000 -0.0000 -0.0000 -0.0000
                                           -0.0000  0.0000  0.0000 -0.0000  0.0000
                                           -0.0000  0.0000 -0.0000  0.0000 -0.0000
                                            0.0000 -0.0000  0.0000 -0.0000  0.0000
                                           -0.0000  0.0000  0.0000 -0.0000  0.0000
                                            0.0000  0.0000 -0.0000  0.0000 -0.0000
                                           -0.0000 -0.0000 -0.0000 -0.0000 -0.0000
                                           -0.0000 -0.0000 -0.0000  0.0000  0.0000
                                           -0.0000 -0.0000 -0.0000 -0.0000
     5. (2.00000) CR ( 2)Br   3           s(100.00%)
                                            0.0000  1.0000 -0.0000 -0.0000 -0.0000
                                           -0.0000  0.0000  0.0000  0.0000 -0.0000
                                           -0.0000  0.0000  0.0000  0.0000  0.0000
                                           -0.0000  0.0000  0.0000  0.0000  0.0000
                                            0.0000 -0.0000 -0.0000  0.0000 -0.0000
                                            0.0000 -0.0000  0.0000 -0.0000  0.0000
                                           -0.0000  0.0000 -0.0000  0.0000 -0.0000
                                            0.0000 -0.0000 -0.0000  0.0000 -0.0000
                                           -0.0000 -0.0000  0.0000 -0.0000  0.0000
                                            0.0000  0.0000  0.0000  0.0000  0.0000
                                            0.0000  0.0000  0.0000 -0.0000 -0.0000
                                            0.0000  0.0000  0.0000  0.0000
     6. (2.00000) CR ( 3)Br   3           s(100.00%)
                                            0.0000 -0.0000  1.0000 -0.0000 -0.0000
                                           -0.0000  0.0000  0.0000  0.0000 -0.0000
                                           -0.0000  0.0000  0.0000  0.0000  0.0000
                                           -0.0000  0.0000  0.0000  0.0000  0.0000
                                            0.0000 -0.0000 -0.0000  0.0000 -0.0000
                                            0.0000 -0.0000  0.0000 -0.0000  0.0000
                                           -0.0000  0.0000 -0.0000  0.0000 -0.0000
                                            0.0000 -0.0000 -0.0000  0.0000 -0.0000
                                           -0.0000 -0.0000  0.0000 -0.0000  0.0000
                                            0.0000  0.0000  0.0000  0.0000  0.0000
                                            0.0000  0.0000  0.0000 -0.0000 -0.0000
                                            0.0000  0.0000  0.0000  0.0000
     7. (2.00002) CR ( 4)Br   3           s(  0.00%)p 1.00(100.00%)
                                           -0.0000  0.0000  0.0000  0.0000 -0.0000
                                           -0.0000  0.0000  1.0000 -0.0000 -0.0000
                                           -0.0000 -0.0000  0.0000 -0.0000 -0.0000
                                            0.0000 -0.0000 -0.0000  0.0000 -0.0000
                                           -0.0000  0.0000  0.0000 -0.0000  0.0000
                                           -0.0000 -0.0000  0.0000  0.0000 -0.0000
                                           -0.0000  0.0000 -0.0000 -0.0000  0.0000
                                           -0.0000  0.0000  0.0000 -0.0000  0.0000
                                           -0.0000  0.0000 -0.0000 -0.0000  0.0000
                                           -0.0000 -0.0000  0.0000  0.0000 -0.0000
                                           -0.0000 -0.0000 -0.0000 -0.0000 -0.0000
                                            0.0000  0.0000 -0.0000 -0.0000
     8. (2.00000) CR ( 5)Br   3           s(  0.00%)p 1.00(100.00%)
                                           -0.0000  0.0000  0.0000  0.0000  0.0000
                                           -0.0000  0.0000 -0.0000  1.0000 -0.0000
                                           -0.0000 -0.0000  0.0000 -0.0000 -0.0000
                                            0.0000 -0.0000 -0.0000  0.0000 -0.0000
                                           -0.0000  0.0000  0.0000 -0.0000  0.0000
                                           -0.0000 -0.0000  0.0000  0.0000 -0.0000
                                           -0.0000  0.0000 -0.0000 -0.0000  0.0000
                                           -0.0000  0.0000  0.0000 -0.0000  0.0000
                                           -0.0000  0.0000 -0.0000 -0.0000  0.0000
                                           -0.0000 -0.0000  0.0000  0.0000 -0.0000
                                           -0.0000 -0.0000 -0.0000 -0.0000 -0.0000
                                            0.0000  0.0000 -0.0000 -0.0000
     9. (2.00001) CR ( 6)Br   3           s(  0.00%)p 1.00(100.00%)
                                           -0.0000  0.0000  0.0000  0.0000  0.0000
                                            0.0000 -0.0000 -0.0000 -0.0000  0.0000
                                            0.0000 -0.0000 -0.0000  1.0000 -0.0000
                                            0.0001  0.0000 -0.0000 -0.0000 -0.0000
                                           -0.0000  0.0000  0.0000 -0.0000  0.0000
                                           -0.0000  0.0000 -0.0000  0.0000 -0.0000
                                            0.0000 -0.0000  0.0000 -0.0000  0.0000
                                           -0.0000  0.0000  0.0000 -0.0000  0.0000
                                            0.0000  0.0000 -0.0000  0.0000  0.0000
                                           -0.0000 -0.0000 -0.0000 -0.0000 -0.0000
                                           -0.0000 -0.0000 -0.0000  0.0000  0.0000
                                           -0.0000 -0.0000 -0.0000 -0.0000
    10. (2.00000) CR ( 7)Br   3           s(  0.00%)p 1.00(100.00%)
                                           -0.0000  0.0000  0.0000  0.0000  0.0000
                                            0.0000 -0.0000 -0.0000 -0.0000  0.0000
                                            0.0000 -0.0000 -0.0000 -0.0000  1.0000
                                            0.0000  0.0000 -0.0000 -0.0000 -0.0000
                                           -0.0000  0.0000  0.0000 -0.0000  0.0000
                                           -0.0000  0.0000 -0.0000  0.0000 -0.0000
                                            0.0000 -0.0000  0.0000 -0.0000  0.0000
                                           -0.0000  0.0000  0.0000 -0.0000  0.0000
                                            0.0000  0.0000 -0.0000  0.0000  0.0000
                                           -0.0000 -0.0000 -0.0000 -0.0000 -0.0000
                                           -0.0000 -0.0000 -0.0000  0.0000  0.0000
                                           -0.0000 -0.0000 -0.0000 -0.0000
    11. (2.00002) CR ( 8)Br   3           s(  0.00%)p 1.00(100.00%)
                                           -0.0000  0.0000  0.0000  0.0000  0.0000
                                           -0.0000  0.0000 -0.0000 -0.0000  0.0000
                                            0.0000 -0.0000 -0.0000 -0.0000 -0.0000
                                            0.0000 -0.0000 -0.0000  0.0000  1.0000
                                           -0.0000 -0.0000  0.0000 -0.0000  0.0000
                                           -0.0000  0.0000 -0.0000  0.0000 -0.0000
                                           -0.0000  0.0000 -0.0000 -0.0000  0.0000
                                           -0.0000  0.0000  0.0000 -0.0000  0.0000
                                            0.0000  0.0000 -0.0000  0.0000 -0.0000
                                           -0.0000 -0.0000 -0.0000 -0.0000 -0.0000
                                           -0.0000 -0.0000 -0.0000  0.0000 -0.0000
                                           -0.0000 -0.0000 -0.0000 -0.0000
    12. (2.00000) CR ( 9)Br   3           s(  0.00%)p 1.00(100.00%)
                                           -0.0000  0.0000  0.0000  0.0000  0.0000
                                           -0.0000  0.0000 -0.0000 -0.0000  0.0000
                                            0.0000 -0.0000 -0.0000 -0.0000 -0.0000
                                            0.0000 -0.0000 -0.0000  0.0000 -0.0000
                                            1.0000 -0.0000  0.0000 -0.0000  0.0000
                                           -0.0000  0.0000 -0.0000  0.0000 -0.0000
                                            0.0000  0.0000 -0.0000 -0.0000  0.0000
                                           -0.0000  0.0000  0.0000 -0.0000  0.0000
                                            0.0000  0.0000 -0.0000  0.0000 -0.0000
                                           -0.0000 -0.0000 -0.0000 -0.0000 -0.0000
                                           -0.0000 -0.0000 -0.0000  0.0000  0.0000
                                           -0.0000 -0.0000 -0.0000 -0.0000
    13. (1.99768) CR (10)Br   3           s(  0.00%)p 0.00(  0.00%)d 1.00(100.00%)
                                           -0.0000  0.0000  0.0000  0.0000  0.0000
                                            0.0000  0.0000 -0.0000 -0.0000  0.0000
                                            0.0000 -0.0000 -0.0000 -0.0000 -0.0000
                                            0.0000 -0.0000 -0.0000 -0.0000 -0.0000
                                           -0.0000  0.0000  0.0000 -0.0000  0.0000
                                            1.0000  0.0000 -0.0000  0.0000 -0.0000
                                            0.0000 -0.0000  0.0000 -0.0000  0.0000
                                           -0.0000  0.0000  0.0000 -0.0000  0.0000
                                            0.0000  0.0000 -0.0000  0.0000 -0.0000
                                           -0.0000 -0.0000 -0.0000 -0.0000 -0.0000
                                           -0.0000 -0.0000 -0.0000  0.0000  0.0000
                                           -0.0000 -0.0000 -0.0000 -0.0000
    14. (1.99769) CR (11)Br   3           s(  0.00%)p 0.00(  0.00%)d 1.00(100.00%)
                                           -0.0000  0.0000  0.0000  0.0000  0.0000
                                            0.0000 -0.0000 -0.0000 -0.0000  0.0000
                                            0.0000  0.0000 -0.0000 -0.0000 -0.0000
                                            0.0000  0.0000 -0.0000 -0.0000 -0.0000
                                           -0.0000  0.0000  0.0000 -0.0000  0.0000
                                           -0.0000  0.0000 -0.0000  0.0000  1.0000
                                            0.0000 -0.0000  0.0000 -0.0000  0.0000
                                           -0.0000  0.0000  0.0000 -0.0000  0.0000
                                            0.0000  0.0000 -0.0000  0.0000 -0.0000
                                           -0.0000 -0.0000 -0.0000 -0.0000 -0.0000
                                           -0.0000 -0.0000 -0.0000  0.0000  0.0000
                                           -0.0000 -0.0000 -0.0000 -0.0000
    15. (1.99768) CR (12)Br   3           s(  0.00%)p 0.00(  0.00%)d 1.00(100.00%)
                                           -0.0000  0.0000  0.0000  0.0000  0.0000
                                            0.0000 -0.0000 -0.0000 -0.0000  0.0000
                                            0.0000 -0.0000 -0.0000 -0.0000 -0.0000
                                            0.0000 -0.0000 -0.0000 -0.0000 -0.0000
                                           -0.0000  0.0000  0.0000 -0.0000  0.0000
                                           -0.0000  0.0000 -0.0000  0.0000 -0.0000
                                            0.0000 -0.0000  0.0000  1.0000  0.0000
                                           -0.0000  0.0000  0.0000 -0.0000  0.0000
                                            0.0000  0.0000 -0.0000  0.0000  0.0000
                                           -0.0000 -0.0000 -0.0000 -0.0000 -0.0000
                                           -0.0000 -0.0000 -0.0000  0.0000  0.0000
                                           -0.0000 -0.0000 -0.0000 -0.0000
    16. (1.99767) CR (13)Br   3           s(  0.00%)p 0.00(  0.00%)d 1.00(100.00%)
                                            0.0000 -0.0000 -0.0000 -0.0000 -0.0000
                                           -0.0000 -0.0000  0.0000  0.0000 -0.0000
                                           -0.0000  0.0000  0.0000  0.0000  0.0000
                                           -0.0001  0.0000  0.0000  0.0000  0.0000
                                            0.0000 -0.0000 -0.0000  0.0000 -0.0000
                                            0.0000 -0.0000  0.0000 -0.0000  0.0000
                                           -0.0000  0.0000 -0.0000  0.0000 -0.0000
                                            0.0000 -0.0000  1.0000  0.0000 -0.0000
                                           -0.0000 -0.0000  0.0000 -0.0000  0.0000
                                            0.0000  0.0000  0.0000  0.0000  0.0000
                                            0.0000  0.0000  0.0000 -0.0000 -0.0000
                                            0.0000  0.0000  0.0000  0.0000
    17. (1.99768) CR (14)Br   3           s(  0.00%)p 0.00(  0.00%)d 1.00(100.00%)
                                            0.0000 -0.0000 -0.0000 -0.0000 -0.0000
                                           -0.0000 -0.0000  0.0000  0.0000 -0.0000
                                           -0.0000  0.0000  0.0000  0.0000  0.0000
                                           -0.0000  0.0000  0.0000  0.0000  0.0000
                                            0.0000 -0.0000 -0.0000  0.0000 -0.0000
                                            0.0000 -0.0000  0.0000 -0.0000  0.0000
                                           -0.0000  0.0000 -0.0000  0.0000 -0.0000
                                            0.0000 -0.0000 -0.0000  0.0000 -0.0000
                                           -0.0000  1.0000  0.0000 -0.0000  0.0000
                                            0.0000  0.0000  0.0000  0.0000  0.0000
                                            0.0000  0.0000  0.0000 -0.0000 -0.0000
                                            0.0000  0.0000  0.0000  0.0000
    18. (1.97055) LP ( 1) O   1           s( 54.88%)p 0.82( 44.99%)d 0.00(  0.12%)
                                                  f 0.00(  0.00%)
                                            0.0002  0.7408  0.0036 -0.0008  0.0023
                                           -0.4161 -0.0024  0.0035 -0.0013  0.4520
                                            0.0091 -0.0041  0.0004 -0.2688 -0.0050
                                            0.0021  0.0007  0.0257 -0.0027 -0.0024
                                           -0.0180  0.0030  0.0004  0.0134 -0.0022
                                            0.0004  0.0012  0.0009 -0.0032  0.0052
                                           -0.0009  0.0013  0.0037 -0.0015  0.0011
                                           -0.0001 -0.0005  0.0003  0.0001  0.0004
                                            0.0023 -0.0005  0.0002  0.0001  0.0036
                                           -0.0021
    19. (1.96098) LP ( 2) O   1           s(  0.03%)p99.99( 99.66%)d10.83(  0.29%)
                                                  f 0.98(  0.03%)
                                            0.0000  0.0126 -0.0082 -0.0063 -0.0001
                                            0.0036 -0.0007  0.0004 -0.0013 -0.5228
                                           -0.0157  0.0029 -0.0008 -0.8498 -0.0279
                                            0.0066 -0.0029 -0.0217  0.0071 -0.0038
                                           -0.0357  0.0112 -0.0060  0.0079  0.0019
                                           -0.0044 -0.0117 -0.0001  0.0024 -0.0255
                                            0.0011  0.0036  0.0056 -0.0027  0.0013
                                           -0.0003  0.0094 -0.0027 -0.0089  0.0040
                                           -0.0010  0.0002  0.0007  0.0005 -0.0044
                                            0.0027
    20. (1.98058) LP ( 1)Br   3           s( 98.80%)p 0.01(  1.20%)d 0.00(  0.00%)
                                                  f 0.00(  0.00%)
                                            0.0000 -0.0000 -0.0000  0.9940 -0.0002
                                           -0.0000 -0.0001 -0.0000 -0.0000 -0.0198
                                            0.0003 -0.0001  0.0001 -0.0000 -0.0000
                                           -0.1039  0.0005 -0.0005  0.0001 -0.0000
                                           -0.0000 -0.0283  0.0005 -0.0001  0.0001
                                           -0.0000  0.0006 -0.0002 -0.0001 -0.0000
                                            0.0002 -0.0000 -0.0000 -0.0000  0.0010
                                           -0.0004 -0.0001  0.0000 -0.0010  0.0003
                                            0.0002  0.0000 -0.0008  0.0002  0.0001
                                           -0.0003 -0.0002 -0.0001 -0.0001 -0.0003
                                           -0.0002 -0.0004 -0.0003  0.0002  0.0001
                                           -0.0003 -0.0002 -0.0003 -0.0002
    21. (1.95410) LP ( 2)Br   3           s(  0.00%)p 1.00( 99.99%)d 0.00(  0.00%)
                                                  f 0.00(  0.00%)
                                           -0.0000 -0.0000 -0.0000  0.0051 -0.0001
                                           -0.0009  0.0018  0.0000  0.0000  0.5710
                                            0.0006  0.0005 -0.0002  0.0000  0.0000
                                            0.1592 -0.0011 -0.0003  0.0002 -0.0000
                                           -0.0000 -0.8053  0.0006 -0.0004 -0.0001
                                           -0.0000  0.0031 -0.0010  0.0000 -0.0000
                                            0.0001 -0.0001  0.0000  0.0000 -0.0020
                                            0.0001  0.0011  0.0000  0.0016 -0.0008
                                            0.0013  0.0000 -0.0036  0.0018 -0.0016
                                            0.0003  0.0001 -0.0006 -0.0004 -0.0017
                                           -0.0014  0.0005  0.0002  0.0003  0.0002
                                           -0.0008 -0.0005  0.0004  0.0004
    22. (1.95394) LP ( 3)Br   3           s(  0.01%)p 1.00( 99.99%)d 0.00(  0.00%)
                                                  f 0.00(  0.00%)
                                           -0.0000 -0.0000 -0.0000  0.0064 -0.0009
                                           -0.0025  0.0036 -0.0000 -0.0000 -0.7958
                                           -0.0009 -0.0009  0.0003  0.0000  0.0000
                                            0.3480 -0.0017 -0.0004  0.0011 -0.0000
                                           -0.0000 -0.4954  0.0006 -0.0002 -0.0000
                                            0.0000 -0.0033  0.0007  0.0004  0.0000
                                           -0.0034  0.0017 -0.0016  0.0000 -0.0001
                                           -0.0005  0.0012  0.0000 -0.0031  0.0013
                                           -0.0004  0.0000 -0.0012  0.0005 -0.0000
                                            0.0001 -0.0000  0.0001  0.0000 -0.0010
                                           -0.0008 -0.0004 -0.0005 -0.0013 -0.0011
                                            0.0006  0.0003 -0.0012 -0.0009
    23. (1.93017) LP ( 4)Br   3           s(  1.19%)p82.97( 98.78%)d 0.02(  0.02%)
                                                  f 0.00(  0.00%)
                                           -0.0001  0.0000  0.0000  0.1091  0.0016
                                            0.0006  0.0002 -0.0000 -0.0000  0.2004
                                            0.0008 -0.0001 -0.0004 -0.0001 -0.0000
                                            0.9179 -0.0004 -0.0013 -0.0001 -0.0000
                                           -0.0000  0.3242  0.0025 -0.0003  0.0002
                                           -0.0000  0.0051 -0.0014  0.0005 -0.0000
                                            0.0026 -0.0007  0.0003 -0.0000  0.0106
                                           -0.0031  0.0015  0.0001 -0.0078  0.0018
                                            0.0004  0.0000 -0.0038  0.0010 -0.0000
                                           -0.0019 -0.0011 -0.0003 -0.0002 -0.0010
                                           -0.0008 -0.0023 -0.0014  0.0010  0.0004
                                           -0.0014 -0.0008 -0.0017 -0.0010
    24. (0.02037) RY*( 1) O   1           s(  0.07%)p99.99( 97.28%)d37.36(  2.57%)
                                                  f 1.17(  0.08%)
                                            0.0000 -0.0005  0.0219  0.0145  0.0006
                                            0.0002  0.0010 -0.0016  0.0028 -0.0206
                                            0.5163  0.0201 -0.0098 -0.0348  0.8385
                                            0.0282 -0.0126  0.0750 -0.0193  0.0088
                                            0.1174 -0.0305  0.0148 -0.0146 -0.0005
                                            0.0056  0.0244 -0.0041 -0.0006  0.0613
                                           -0.0102 -0.0004 -0.0091  0.0070  0.0024
                                            0.0004 -0.0105  0.0098  0.0140 -0.0112
                                           -0.0003 -0.0008  0.0026 -0.0011  0.0091
                                           -0.0071
    25. (0.01534) RY*( 2) O   1           s( 21.20%)p 3.55( 75.15%)d 0.17(  3.51%)
                                                  f 0.01(  0.14%)
                                            0.0000 -0.0101  0.4602 -0.0107  0.0005
                                            0.0097 -0.4812 -0.0134  0.0030 -0.0091
                                            0.6096  0.0093 -0.0109  0.0039 -0.3842
                                           -0.0093  0.0082  0.1465 -0.0136 -0.0035
                                           -0.1083  0.0146 -0.0026  0.0345 -0.0083
                                           -0.0035 -0.0048  0.0046 -0.0079  0.0074
                                           -0.0085  0.0038  0.0051 -0.0061 -0.0073
                                            0.0027 -0.0074  0.0040 -0.0149  0.0058
                                            0.0127 -0.0055  0.0157 -0.0047  0.0198
                                           -0.0108
    26. (0.00720) RY*( 3) O   1           s(  4.60%)p13.10( 60.24%)d 7.50( 34.47%)
                                                  f 0.15(  0.69%)
                                            0.0000  0.0029  0.2098 -0.0409  0.0161
                                           -0.0564 -0.6204 -0.0189 -0.0137 -0.0238
                                           -0.3901 -0.0130 -0.0079  0.0121  0.2445
                                            0.0197 -0.0229 -0.3931  0.0001 -0.0081
                                            0.0534 -0.0059  0.0065  0.0767  0.0269
                                           -0.0128  0.4038  0.0537 -0.0262  0.1174
                                           -0.0030  0.0072  0.0094 -0.0006 -0.0230
                                            0.0097 -0.0070  0.0060  0.0241 -0.0068
                                           -0.0174  0.0050  0.0114 -0.0051 -0.0648
                                            0.0280
    27. (0.00631) RY*( 4) O   1           s(  0.88%)p10.75(  9.44%)d99.99( 88.47%)
                                                  f 1.39(  1.22%)
                                           -0.0000  0.0036  0.0919  0.0176 -0.0010
                                            0.0253  0.2590  0.0188 -0.0056  0.0231
                                            0.1544  0.0149 -0.0126 -0.0057 -0.0380
                                            0.0027  0.0006 -0.4703 -0.0393  0.0150
                                           -0.4751 -0.0404  0.0108 -0.3513 -0.0272
                                            0.0065  0.0393 -0.0031  0.0056  0.5533
                                            0.0476 -0.0113  0.0317 -0.0131  0.0069
                                            0.0006 -0.0501  0.0228 -0.0613  0.0255
                                           -0.0070  0.0032 -0.0350  0.0121 -0.0428
                                            0.0154
    28. (0.00624) RY*( 5) O   1           s( 11.18%)p 0.41(  4.61%)d 7.44( 83.18%)
                                                  f 0.09(  1.03%)
                                           -0.0000  0.0131  0.3339  0.0114 -0.0015
                                            0.0073  0.1808  0.0133 -0.0073  0.0233
                                            0.0778 -0.0000 -0.0048 -0.0207 -0.0777
                                           -0.0067 -0.0028 -0.5475 -0.0282  0.0131
                                            0.6065  0.0399 -0.0142  0.0930  0.0189
                                           -0.0092 -0.3878 -0.0350  0.0104 -0.0256
                                            0.0019 -0.0033 -0.0401  0.0169  0.0203
                                           -0.0021  0.0205 -0.0057  0.0178 -0.0016
                                           -0.0496  0.0199 -0.0627  0.0170 -0.0097
                                           -0.0012
    29. (0.00594) RY*( 6) O   1           s(  0.12%)p20.15(  2.50%)d99.99( 96.52%)
                                                  f 6.94(  0.86%)
                                           -0.0000  0.0010  0.0352  0.0002  0.0005
                                            0.0038  0.0423  0.0025 -0.0021 -0.0200
                                           -0.0587 -0.0018 -0.0144 -0.0396 -0.1319
                                           -0.0094 -0.0079  0.3877  0.0422 -0.0115
                                            0.5540  0.0641 -0.0189 -0.3211 -0.0280
                                            0.0025  0.2708  0.0262 -0.0009  0.5661
                                            0.0559 -0.0063 -0.0201  0.0066  0.0325
                                           -0.0116 -0.0655  0.0277  0.0303 -0.0110
                                           -0.0134  0.0045  0.0204 -0.0070  0.0137
                                           -0.0037
    30. (0.00565) RY*( 7) O   1           s(  6.41%)p 0.83(  5.33%)d13.67( 87.61%)
                                                  f 0.10(  0.65%)
                                           -0.0000  0.0221  0.2522 -0.0030 -0.0041
                                            0.0330  0.1395  0.0128 -0.0053 -0.0378
                                           -0.1572 -0.0176 -0.0054  0.0178  0.0758
                                            0.0045  0.0001  0.2137  0.0231 -0.0048
                                           -0.1518 -0.0180  0.0052  0.7375  0.0899
                                           -0.0092 -0.1628 -0.0205  0.0040  0.4737
                                            0.0551 -0.0051  0.0475 -0.0186  0.0318
                                           -0.0114  0.0050 -0.0018  0.0251 -0.0106
                                            0.0390 -0.0146 -0.0121  0.0040  0.0106
                                           -0.0021
    31. (0.00300) RY*( 8) O   1           s( 11.25%)p 2.02( 22.68%)d 5.79( 65.09%)
                                                  f 0.09(  0.98%)
                                           -0.0000 -0.0043  0.3348  0.0189 -0.0018
                                            0.0304 -0.2127  0.0183 -0.0467  0.0245
                                           -0.3550 -0.0314 -0.0572 -0.0151  0.2140
                                            0.0302 -0.0168  0.2558  0.0642  0.0000
                                           -0.1407 -0.0331  0.0008 -0.4198 -0.0492
                                           -0.0373 -0.6081 -0.0747 -0.0571  0.0225
                                           -0.0292  0.0214 -0.0243  0.0198  0.0143
                                           -0.0063 -0.0260  0.0184 -0.0601  0.0330
                                            0.0113 -0.0121 -0.0204  0.0046  0.0442
                                           -0.0146
    32. (0.00227) RY*( 9) O   1           s( 42.50%)p 0.55( 23.17%)d 0.79( 33.66%)
                                                  f 0.02(  0.66%)
                                            0.0000 -0.0061  0.6493  0.0213 -0.0535
                                           -0.0123  0.4501  0.0581 -0.0060 -0.0058
                                           -0.1240 -0.0342 -0.0651 -0.0002  0.0668
                                            0.0166  0.0016  0.1200  0.0505 -0.0108
                                           -0.0787 -0.0361  0.0097 -0.0811 -0.0301
                                           -0.0174  0.4163  0.1009  0.0651 -0.3194
                                           -0.1163 -0.0311 -0.0163  0.0115 -0.0264
                                            0.0387 -0.0165  0.0154 -0.0041  0.0102
                                            0.0145 -0.0032  0.0329 -0.0428 -0.0167
                                            0.0024
    33. (0.00068) RY*(10) O   1           s( 54.15%)p 0.63( 34.26%)d 0.11(  5.80%)
                                                  f 0.11(  5.78%)
                                            0.0000 -0.0039 -0.0515  0.7330  0.0387
                                           -0.0011 -0.0343 -0.0320 -0.0395 -0.0032
                                            0.0182 -0.5572 -0.1442 -0.0051 -0.0132
                                            0.0642  0.0543 -0.0260  0.0101 -0.0402
                                            0.0127  0.0768  0.0100  0.0416 -0.0070
                                            0.1092  0.0138 -0.0077  0.0091  0.0130
                                           -0.1638  0.0919  0.0108 -0.0346 -0.0438
                                            0.0127 -0.2019  0.0455 -0.0899 -0.0242
                                            0.0315  0.0073 -0.0164  0.0249  0.0195
                                            0.0249
    34. (0.00056) RY*(11) O   1           s(  0.10%)p73.96(  7.49%)d99.99( 72.49%)
                                                  f99.99( 19.92%)
                                            0.0000 -0.0023 -0.0121 -0.0142  0.0257
                                           -0.0003 -0.0025  0.2451 -0.0340  0.0103
                                            0.0369  0.0338  0.0267  0.0142  0.0313
                                            0.0836  0.0463 -0.0143  0.5797  0.0229
                                           -0.0213  0.5988  0.0319  0.0060  0.0344
                                            0.0108 -0.0015  0.0550 -0.0025 -0.0259
                                            0.1515 -0.0099  0.1527 -0.0223 -0.0557
                                           -0.0023  0.1182 -0.0096 -0.2831  0.0308
                                            0.0223  0.0075 -0.1193  0.0010 -0.2482
                                            0.0277
    35. (0.00056) RY*(12) O   1           s(  1.11%)p51.31( 57.21%)d33.03( 36.83%)
                                                  f 4.35(  4.85%)
                                            0.0000 -0.0028 -0.0399  0.0743  0.0635
                                           -0.0032 -0.0152  0.2763 -0.0486  0.0035
                                            0.0122  0.3070 -0.0426 -0.0008 -0.0562
                                            0.6266  0.0331  0.0102  0.0741  0.0099
                                            0.0275 -0.2296  0.0294 -0.0064  0.3894
                                            0.0561  0.0272 -0.2279 -0.0055  0.0152
                                           -0.3171 -0.0007 -0.0827  0.0028  0.0418
                                            0.0056 -0.1430  0.0264 -0.0284 -0.0212
                                           -0.0392  0.0055 -0.0611  0.0197 -0.1076
                                            0.0128
    36. (0.00053) RY*(13) O   1           s(  0.49%)p94.54( 46.32%)d80.04( 39.22%)
                                                  f28.51( 13.97%)
                                            0.0000 -0.0052 -0.0317 -0.0432  0.0448
                                           -0.0051 -0.0302  0.5355 -0.0517  0.0024
                                            0.0418 -0.3090 -0.0418 -0.0075 -0.0152
                                           -0.2633 -0.0650 -0.0036  0.2744  0.0023
                                           -0.0030 -0.4318 -0.0425 -0.0192  0.1811
                                            0.0018  0.0104  0.0650  0.0073 -0.0211
                                            0.2994  0.0315 -0.2822  0.0053  0.0647
                                            0.0022  0.0778 -0.0081  0.1493 -0.0114
                                           -0.0956  0.0076 -0.1232  0.0040 -0.0535
                                            0.0044
    37. (0.00045) RY*(14) O   1           s(  2.54%)p17.97( 45.70%)d 8.80( 22.38%)
                                                  f11.55( 29.37%)
                                            0.0000  0.0027 -0.0257  0.0897  0.1293
                                           -0.0049 -0.0200  0.2111 -0.0516 -0.0072
                                           -0.0129  0.3377 -0.0370 -0.0005  0.0081
                                           -0.5245 -0.1363 -0.0032  0.0356 -0.0131
                                            0.0052  0.0175  0.0335  0.0863 -0.2128
                                            0.0659  0.0139 -0.1245 -0.0350  0.0261
                                           -0.3796 -0.0460 -0.2155 -0.0453  0.0915
                                            0.0108 -0.3050 -0.0258 -0.3410 -0.0468
                                           -0.1367  0.0014  0.0610  0.0145 -0.0432
                                            0.0098
    38. (0.00046) RY*(15) O   1           s(  1.08%)p16.59( 17.84%)d 3.11(  3.34%)
                                                  f72.30( 77.74%)
                                           -0.0000  0.0034  0.0062  0.0840 -0.0604
                                            0.0066  0.0166 -0.4159  0.0226  0.0089
                                            0.0123  0.0443  0.0166 -0.0062 -0.0084
                                           -0.0447 -0.0083  0.0242  0.1373  0.0423
                                           -0.0110 -0.0794 -0.0228 -0.0057  0.0540
                                            0.0131 -0.0402  0.0044 -0.0098  0.0142
                                            0.0063  0.0123 -0.4744 -0.0320 -0.0004
                                           -0.0059  0.0721  0.0055  0.0743 -0.0089
                                            0.2274  0.0076  0.1424  0.0109 -0.6838
                                           -0.0276
    39. (0.00044) RY*(16) O   1           s(  0.22%)p14.08(  3.11%)d85.76( 18.93%)
                                                  f99.99( 77.74%)
                                            0.0000 -0.0003 -0.0065  0.0392  0.0250
                                           -0.0003 -0.0022 -0.0006 -0.0087  0.0020
                                            0.0013 -0.0984 -0.0482  0.0019 -0.0072
                                           -0.1258 -0.0555  0.0227 -0.0858 -0.0043
                                            0.0357 -0.1120  0.0050 -0.0320  0.1164
                                            0.0006  0.0462 -0.1731  0.0005  0.0816
                                           -0.3380 -0.0008  0.0649  0.0023 -0.0507
                                           -0.0086  0.8165  0.1003 -0.3022 -0.0339
                                            0.0128  0.0046 -0.0309 -0.0029  0.0106
                                            0.0107
    40. (0.00044) RY*(17) O   1           s(  1.64%)p 3.80(  6.24%)d 2.88(  4.72%)
                                                  f53.24( 87.40%)
                                           -0.0000  0.0001 -0.0104  0.0889  0.0917
                                            0.0013 -0.0142  0.1810  0.0004 -0.0023
                                            0.0006  0.1436  0.0111 -0.0026 -0.0076
                                           -0.0883 -0.0283 -0.0521  0.0799 -0.0542
                                            0.0401 -0.0759  0.0256 -0.0134 -0.1351
                                           -0.0195  0.0137 -0.0582 -0.0286  0.0002
                                           -0.0625  0.0087  0.1294  0.0174  0.0374
                                            0.0191  0.0066  0.0056  0.1693  0.0112
                                            0.8885  0.1069 -0.1076 -0.0106  0.1158
                                            0.0171
[...]
                                           -0.0025 -0.0001 -0.0415 -0.0200 -0.0019
                                           -0.0052  0.0043 -0.0699  0.0029  0.0708
                                           -0.0129  0.0238 -0.0155
   129. (0.00423) RY*( 2) H   4           s( 16.68%)p 4.93( 82.16%)d 0.07(  1.15%)
                                            0.0059  0.4071  0.0279  0.0171 -0.0948
                                            0.0118 -0.0134 -0.4940  0.0045 -0.0127
                                           -0.7416 -0.1327 -0.0243 -0.0317 -0.0031
                                           -0.0373  0.0220  0.0374 -0.0307 -0.0069
                                            0.0523  0.0382  0.0454
   130. (0.00356) RY*( 3) H   4           s(  5.39%)p17.37( 93.58%)d 0.19(  1.03%)
                                           -0.0227  0.1693  0.1564 -0.0156  0.8407
                                           -0.0042  0.0150 -0.4023  0.0195 -0.0115
                                            0.2569  0.0204 -0.0110 -0.0413  0.0086
                                           -0.0271 -0.0017  0.0130 -0.0106  0.0691
                                            0.0040 -0.0519  0.0063
   131. (0.00200) RY*( 4) H   4           s( 24.15%)p 3.09( 74.72%)d 0.05(  1.12%)
                                           -0.0086  0.4176  0.2521  0.0591 -0.4856
                                            0.0141 -0.0026 -0.3837  0.2197 -0.0201
                                            0.5493  0.0832 -0.0821  0.0517 -0.0312
                                            0.0558 -0.0053  0.0510 -0.0041  0.0086
                                            0.0332  0.0233  0.0115
   132. (0.00049) RY*( 5) H   4           s( 23.77%)p 2.52( 59.88%)d 0.69( 16.34%)
                                            0.0037 -0.0958  0.4777 -0.0171  0.0773
                                            0.3219 -0.0414  0.1879  0.3272 -0.0105
                                           -0.2347  0.5266 -0.1125  0.0174  0.0031
                                            0.1141 -0.0545  0.3260 -0.0019  0.0715
                                            0.0124  0.1885 -0.0064
   133. (0.00038) RY*( 6) H   4           s(  2.96%)p29.49( 87.15%)d 3.35(  9.89%)
                                           -0.0011 -0.0207 -0.0037  0.1706  0.0436
                                           -0.8464  0.0897  0.0340  0.2985 -0.0506
                                           -0.0722  0.2052  0.0706 -0.0801 -0.1362
                                            0.0070  0.0577  0.1752 -0.0012 -0.1786
                                           -0.0399  0.0738 -0.0309
   134. (0.00030) RY*( 7) H   4           s( 11.53%)p 4.65( 53.63%)d 3.02( 34.84%)
                                            0.0005  0.0568  0.2871 -0.1721 -0.0093
                                           -0.0812  0.2258  0.0381 -0.2494  0.5924
                                            0.0042 -0.1828  0.1750  0.2372  0.1033
                                            0.1112 -0.0804  0.3222 -0.1518 -0.2351
                                           -0.2716 -0.0424 -0.0707
   135. (0.00025) RY*( 8) H   4           s(  2.96%)p 6.08( 17.98%)d26.71( 79.06%)
                                           -0.0025  0.0357 -0.1037  0.1325  0.0183
                                            0.2038 -0.1334  0.0048  0.2194  0.2569
                                            0.0354  0.0421 -0.0550 -0.4949  0.1637
                                           -0.3310 -0.1500 -0.0556  0.0028 -0.6105
                                           -0.0324 -0.0427 -0.0904
   136. (0.00020) RY*( 9) H   4           s(  2.26%)p14.04( 31.70%)d29.26( 66.05%)
                                            0.0086  0.0047  0.1396 -0.0547 -0.0527
                                           -0.0499 -0.1422  0.0357 -0.4187 -0.2430
                                            0.1047 -0.1858  0.1016 -0.4609 -0.0667
                                           -0.1737 -0.0642  0.5255  0.0575  0.0776
                                            0.0888  0.2993  0.1623
   137. (0.00016) RY*(10) H   4           s( 20.41%)p 0.81( 16.46%)d 3.09( 63.13%)
                                           -0.0034 -0.0772  0.3458 -0.2803 -0.0902
                                           -0.1879  0.0080  0.0458 -0.0094  0.1822
                                           -0.0525  0.0048 -0.2880 -0.2934 -0.1823
                                           -0.4016 -0.0272 -0.2551 -0.2224  0.3744
                                           -0.1110 -0.2836 -0.0506
   138. (0.00015) RY*(11) H   4           s( 10.49%)p 5.85( 61.32%)d 2.69( 28.19%)
                                           -0.0132 -0.0983  0.3059 -0.0386  0.0745
                                           -0.0138  0.0069  0.1659  0.3390 -0.1439
                                           -0.0075 -0.6121 -0.2636  0.1287 -0.0778
                                            0.0827 -0.0338 -0.0501 -0.1050 -0.2515
                                            0.2182  0.0555  0.3519
   139. (0.00011) RY*(12) H   4           s(  2.43%)p23.27( 56.62%)d16.83( 40.95%)
                                            0.0113  0.0013 -0.0391  0.1506  0.0009
                                           -0.0983  0.0308 -0.0311 -0.4277 -0.0621
                                            0.0094  0.2559 -0.5498 -0.0725  0.1665
                                            0.3248 -0.0284 -0.0520 -0.4487 -0.1971
                                            0.1200 -0.0189  0.1121
   140. (0.00009) RY*(13) H   4           s(  2.95%)p20.24( 59.72%)d12.65( 37.33%)
   141. (0.00009) RY*(14) H   4           s(  2.58%)p 6.42( 16.54%)d31.38( 80.88%)
   142. (0.00009) RY*(15) H   4           s(  0.63%)p 9.22(  5.81%)d99.99( 93.56%)
   143. (0.00007) RY*(16) H   4           s( 16.56%)p 0.12(  2.03%)d 4.92( 81.41%)
   144. (0.00007) RY*(17) H   4           s( 30.15%)p 0.79( 23.72%)d 1.53( 46.13%)
   145. (0.00005) RY*(18) H   4           s(  2.65%)p 8.11( 21.49%)d28.62( 75.86%)
   146. (0.00005) RY*(19) H   4           s( 41.42%)p 0.27( 11.17%)d 1.14( 47.41%)
   147. (0.00004) RY*(20) H   4           s(  8.71%)p 3.58( 31.14%)d 6.91( 60.15%)
   148. (0.00004) RY*(21) H   4           s(  6.43%)p 2.00( 12.88%)d12.56( 80.70%)
   149. (0.00002) RY*(22) H   4           s(  5.02%)p 8.22( 41.30%)d10.69( 53.68%)
   150. (0.02146) BD*( 1) O   1 - H   2  
                ( 27.12%)   0.5207* O   1 s( 20.96%)p 3.75( 78.58%)d 0.02(  0.45%)
                                                  f 0.00(  0.01%)
                                           -0.0002 -0.4577  0.0075 -0.0024  0.0047
                                           -0.8838  0.0329 -0.0083  0.0009 -0.0525
                                            0.0130 -0.0014  0.0032  0.0217 -0.0089
                                            0.0009 -0.0015  0.0153 -0.0007 -0.0021
                                           -0.0134  0.0023 -0.0001  0.0040  0.0005
                                           -0.0017 -0.0542  0.0035 -0.0032  0.0334
                                           -0.0016  0.0007 -0.0000 -0.0002  0.0070
                                            0.0013  0.0003 -0.0000  0.0004  0.0000
                                            0.0054 -0.0017 -0.0050 -0.0026 -0.0013
                                            0.0002
                ( 72.88%)  -0.8537* H   2 s( 99.89%)p 0.00(  0.10%)d 0.00(  0.01%)
                                           -0.9995 -0.0036  0.0002 -0.0001  0.0005
                                           -0.0308  0.0041 -0.0029 -0.0000  0.0009
                                           -0.0007 -0.0016  0.0001 -0.0022  0.0020
                                           -0.0010 -0.0009  0.0019  0.0007 -0.0077
                                            0.0016  0.0046 -0.0006
   151. (0.04284) BD*( 1) O   1 - H   4  
                ( 23.28%)   0.4825* O   1 s( 24.05%)p 3.14( 75.49%)d 0.02(  0.45%)
                                                  f 0.00(  0.01%)
                                            0.0003  0.4904 -0.0005 -0.0001 -0.0009
                                           -0.1978  0.0186  0.0000 -0.0020 -0.7173
                                            0.0145 -0.0070  0.0026  0.4478 -0.0069
                                            0.0053 -0.0044 -0.0078  0.0051 -0.0027
                                            0.0043 -0.0030  0.0017 -0.0538  0.0028
                                            0.0021 -0.0371  0.0024 -0.0002 -0.0066
                                           -0.0009  0.0021 -0.0088  0.0009  0.0006
                                           -0.0005  0.0000 -0.0008 -0.0050 -0.0020
                                            0.0028  0.0007  0.0016  0.0013 -0.0025
                                            0.0035
                ( 76.72%)  -0.8759* H   4 s( 99.87%)p 0.00(  0.12%)d 0.00(  0.01%)
                                            0.9992  0.0165  0.0005 -0.0002  0.0193
                                           -0.0005 -0.0002  0.0024  0.0198  0.0067
                                            0.0152 -0.0130 -0.0050  0.0004 -0.0025
                                           -0.0004  0.0017 -0.0017 -0.0001  0.0068
                                           -0.0008 -0.0027 -0.0009


 NHO Directionality and "Bond Bending" (deviations from line of nuclear centers)

         [Thresholds for printing:  angular deviation  >  1.0 degree]
                                    hybrid p-character > 25.0%
                                    orbital occupancy  >  0.10e

                                Line of Centers        Hybrid 1              Hybrid 2
                                ---------------  -------------------   ------------------
                NBO               Theta   Phi    Theta   Phi    Dev    Theta   Phi    Dev
 ========================================================================================
     1. BD (   1) O   1 - H   2    90.0    0.0    90.8    2.5   2.6      --     --    --
     2. BD (   1) O   1 - H   4    60.0  258.3    58.8  255.6   2.6      --     --    --
    18. LP (   1) O   1             --     --    113.7  132.3   --       --     --    --
    19. LP (   2) O   1             --     --    148.5  270.2   --       --     --    --
    21. LP (   2)Br   3             --     --    143.6   15.4   --       --     --    --
    22. LP (   3)Br   3             --     --    119.7  156.5   --       --     --    --
    23. LP (   4)Br   3             --     --     70.8   77.6   --       --     --    --


 Natural Bond Orbitals (Summary):

           NBO                  Occupancy  
 -----------------------------------------------
 Molecular unit  1  (H2O)
     1. BD (   1) O   1 - H   2          1.96618
     2. BD (   1) O   1 - H   4          1.96698
     3. CR (   1) O   1                  1.99968
    18. LP (   1) O   1                  1.97055
    19. LP (   2) O   1                  1.96098
    24. RY*(   1) O   1                  0.02037
    25. RY*(   2) O   1                  0.01534
    26. RY*(   3) O   1                  0.00720
    27. RY*(   4) O   1                  0.00631
    28. RY*(   5) O   1                  0.00624
    29. RY*(   6) O   1                  0.00594
    30. RY*(   7) O   1                  0.00565
    31. RY*(   8) O   1                  0.00300
    32. RY*(   9) O   1                  0.00227
    33. RY*(  10) O   1                  0.00068
    34. RY*(  11) O   1                  0.00056
    35. RY*(  12) O   1                  0.00056
    36. RY*(  13) O   1                  0.00053
    37. RY*(  14) O   1                  0.00045
    38. RY*(  15) O   1                  0.00046
    39. RY*(  16) O   1                  0.00044
    40. RY*(  17) O   1                  0.00044
    41. RY*(  18) O   1                  0.00044
    42. RY*(  19) O   1                  0.00042
    43. RY*(  20) O   1                  0.00041
    44. RY*(  21) O   1                  0.00036
    45. RY*(  22) O   1                  0.00035
    46. RY*(  23) O   1                  0.00030
    47. RY*(  24) O   1                  0.00028
    48. RY*(  25) O   1                  0.00021
    49. RY*(  26) O   1                  0.00013
    50. RY*(  27) O   1                  0.00008
    51. RY*(  28) O   1                  0.00007
    52. RY*(  29) O   1                  0.00008
    53. RY*(  30) O   1                  0.00007
    54. RY*(  31) O   1                  0.00008
    55. RY*(  32) O   1                  0.00008
    56. RY*(  33) O   1                  0.00007
    57. RY*(  34) O   1                  0.00007
    58. RY*(  35) O   1                  0.00004
    59. RY*(  36) O   1                  0.00004
    60. RY*(  37) O   1                  0.00004
    61. RY*(  38) O   1                  0.00004
    62. RY*(  39) O   1                  0.00001
    63. RY*(  40) O   1                  0.00001
    64. RY*(  41) O   1                 -0.00004
    65. RY*(   1) H   2                  0.00193
    66. RY*(   2) H   2                  0.00169
    67. RY*(   3) H   2                  0.00083
    68. RY*(   4) H   2                  0.00051
    69. RY*(   5) H   2                  0.00029
    70. RY*(   6) H   2                  0.00019
    71. RY*(   7) H   2                  0.00013
    72. RY*(   8) H   2                  0.00011
    73. RY*(   9) H   2                  0.00011
    74. RY*(  10) H   2                  0.00009
    75. RY*(  11) H   2                  0.00009
    76. RY*(  12) H   2                  0.00005
    77. RY*(  13) H   2                  0.00005
    78. RY*(  14) H   2                  0.00005
    79. RY*(  15) H   2                  0.00003
    80. RY*(  16) H   2                  0.00003
    81. RY*(  17) H   2                  0.00003
    82. RY*(  18) H   2                  0.00003
    83. RY*(  19) H   2                  0.00002
    84. RY*(  20) H   2                  0.00001
    85. RY*(  21) H   2                  0.00002
    86. RY*(  22) H   2                  0.00001
   128. RY*(   1) H   4                  0.00697
   129. RY*(   2) H   4                  0.00423
   130. RY*(   3) H   4                  0.00356
   131. RY*(   4) H   4                  0.00200
   132. RY*(   5) H   4                  0.00049
   133. RY*(   6) H   4                  0.00038
   134. RY*(   7) H   4                  0.00030
   135. RY*(   8) H   4                  0.00025
   136. RY*(   9) H   4                  0.00020
   137. RY*(  10) H   4                  0.00016
   138. RY*(  11) H   4                  0.00015
   139. RY*(  12) H   4                  0.00011
   140. RY*(  13) H   4                  0.00009
   141. RY*(  14) H   4                  0.00009
   142. RY*(  15) H   4                  0.00009
   143. RY*(  16) H   4                  0.00007
   144. RY*(  17) H   4                  0.00007
   145. RY*(  18) H   4                  0.00005
   146. RY*(  19) H   4                  0.00005
   147. RY*(  20) H   4                  0.00004
   148. RY*(  21) H   4                  0.00004
   149. RY*(  22) H   4                  0.00002
   150. BD*(   1) O   1 - H   2          0.02146
   151. BD*(   1) O   1 - H   4          0.04284
       -------------------------------
              Total Lewis    9.86436  ( 98.3054%)
        Valence non-Lewis    0.06430  (  0.6408%)
        Rydberg non-Lewis    0.10575  (  1.0539%)
       -------------------------------
            Total unit  1   10.03440  (100.0000%)
           Charge unit  1   -0.03440

 Molecular unit  2  (Br)
     4. CR (   1)Br   3                  2.00003
     5. CR (   2)Br   3                  2.00000
     6. CR (   3)Br   3                  2.00000
     7. CR (   4)Br   3                  2.00002
     8. CR (   5)Br   3                  2.00000
     9. CR (   6)Br   3                  2.00001
    10. CR (   7)Br   3                  2.00000
    11. CR (   8)Br   3                  2.00002
    12. CR (   9)Br   3                  2.00000
    13. CR (  10)Br   3                  1.99768
    14. CR (  11)Br   3                  1.99769
    15. CR (  12)Br   3                  1.99768
    16. CR (  13)Br   3                  1.99767
    17. CR (  14)Br   3                  1.99768
    20. LP (   1)Br   3                  1.98058
    21. LP (   2)Br   3                  1.95410
    22. LP (   3)Br   3                  1.95394
    23. LP (   4)Br   3                  1.93017
    87. RY*(   1)Br   3                  0.01881
    88. RY*(   2)Br   3                  0.01879
    89. RY*(   3)Br   3                  0.01869
    90. RY*(   4)Br   3                  0.01869
    91. RY*(   5)Br   3                  0.01844
    92. RY*(   6)Br   3                  0.01210
    93. RY*(   7)Br   3                  0.01201
    94. RY*(   8)Br   3                  0.01071
    95. RY*(   9)Br   3                  0.00370
    96. RY*(  10)Br   3                  0.00181
    97. RY*(  11)Br   3                  0.00181
    98. RY*(  12)Br   3                  0.00177
    99. RY*(  13)Br   3                  0.00177
   100. RY*(  14)Br   3                  0.00177
   101. RY*(  15)Br   3                  0.00176
   102. RY*(  16)Br   3                  0.00177
   103. RY*(  17)Br   3                  0.00176
   104. RY*(  18)Br   3                  0.00176
   105. RY*(  19)Br   3                  0.00157
   106. RY*(  20)Br   3                  0.00155
   107. RY*(  21)Br   3                  0.00142
   108. RY*(  22)Br   3                  0.00083
   109. RY*(  23)Br   3                  0.00083
   110. RY*(  24)Br   3                  0.00079
   111. RY*(  25)Br   3                  0.00054
   112. RY*(  26)Br   3                  0.00025
   113. RY*(  27)Br   3                  0.00025
   114. RY*(  28)Br   3                  0.00025
   115. RY*(  29)Br   3                  0.00025
   116. RY*(  30)Br   3                  0.00025
   117. RY*(  31)Br   3                  0.00024
   118. RY*(  32)Br   3                  0.00025
   119. RY*(  33)Br   3                  0.00021
   120. RY*(  34)Br   3                  0.00022
   121. RY*(  35)Br   3                  0.00019
   122. RY*(  36)Br   3                  0.00016
   123. RY*(  37)Br   3                  0.00016
   124. RY*(  38)Br   3                  0.00008
   125. RY*(  39)Br   3                  0.00004
   126. RY*(  40)Br   3                  0.00004
   127. RY*(  41)Br   3                  0.00004
       -------------------------------
              Total Lewis   35.80726  ( 99.5598%)
        Valence non-Lewis    0.00000  (  0.0000%)
        Rydberg non-Lewis    0.15834  (  0.4402%)
       -------------------------------
            Total unit  2   35.96560  (100.0000%)
           Charge unit  2   -0.96560
 Leave Link  607 at Wed Oct 20 14:55:35 2021, MaxMem= 16106127360 cpu:              68.3 elap:               2.5
 (Enter /sw/contrib/gaussian/g16/B01/g16/l9999.exe)
 1\1\GINC-N2183\SP\RMP2-FC\Aug-CC-pVTZ\Br1H2O1(1-)\CGAVINH\20-Oct-2021\
 0\\#p pop=NBO SP NoSymm mp2/aug-cc-pvtz density=current\\title\\-1,1\O
 \X,1,10.\H,1,0.96048156,2,90.\Br,1,3.25083182,2,90.,3,101.65547111,0\H
 ,1,0.98806,2,60.,3,101.65547111,0\\Version=ES64L-G16RevB.01\HF=-2648.6
 007165\MP2=-2649.1184868\RMSD=6.938e-09\Dipole=0.6291513,0.3724872,0.1
 827981\Quadrupole=11.2390015,-22.3717286,11.1327271,-6.4877842,-0.1160
 944,-0.2036931\PG=C01 [X(Br1H2O1)]\\@


 MAN IS A SINGULAR CREATURE.  HE HAS A SET OF GIFTS
 WHICH MAKE HIM UNIQUE AMONG THE ANIMALS: SO THAT, 
 UNLIKE THEM, HE IS NOT A FIGURE IN THE LANDSCAPE --
 HE IS A SHAPER OF THE LANDSCAPE.

                       -- JACOB BRONOWSKI
 Job cpu time:       0 days  0 hours  4 minutes 18.9 seconds.
 Elapsed time:       0 days  0 hours  0 minutes 12.0 seconds.
 File lengths (MBytes):  RWF=     11 Int=      0 D2E=      0 Chk=      8 Scr=      1
 Normal termination of Gaussian 16 at Wed Oct 20 14:55:36 2021.
