 Entering Gaussian System, Link 0=g16
 Input=brhod_pp_oop_35_sp.gjf
 Output=brhod_pp_oop_35_sp.log
 Initial command:
 /sw/contrib/gaussian/g16/B01/g16/l1.exe "/scr/Gau-4354.inp" -scrdir="/scr/"
 Entering Link 1 = /sw/contrib/gaussian/g16/B01/g16/l1.exe PID=      4355.
  
 Copyright (c) 1988-2017, Gaussian, Inc.  All Rights Reserved.
  
 This is part of the Gaussian(R) 16 program.  It is based on
 the Gaussian(R) 09 system (copyright 2009, Gaussian, Inc.),
 the Gaussian(R) 03 system (copyright 2003, Gaussian, Inc.),
 the Gaussian(R) 98 system (copyright 1998, Gaussian, Inc.),
 the Gaussian(R) 94 system (copyright 1995, Gaussian, Inc.),
 the Gaussian 92(TM) system (copyright 1992, Gaussian, Inc.),
 the Gaussian 90(TM) system (copyright 1990, Gaussian, Inc.),
 the Gaussian 88(TM) system (copyright 1988, Gaussian, Inc.),
 the Gaussian 86(TM) system (copyright 1986, Carnegie Mellon
 University), and the Gaussian 82(TM) system (copyright 1983,
 Carnegie Mellon University). Gaussian is a federally registered
 trademark of Gaussian, Inc.
  
 This software contains proprietary and confidential information,
 including trade secrets, belonging to Gaussian, Inc.
  
 This software is provided under written license and may be
 used, copied, transmitted, or stored only in accord with that
 written license.
  
 The following legend is applicable only to US Government
 contracts under FAR:
  
                    RESTRICTED RIGHTS LEGEND
  
 Use, reproduction and disclosure by the US Government is
 subject to restrictions as set forth in subparagraphs (a)
 and (c) of the Commercial Computer Software - Restricted
 Rights clause in FAR 52.227-19.
  
 Gaussian, Inc.
 340 Quinnipiac St., Bldg. 40, Wallingford CT 06492
  
  
 ---------------------------------------------------------------
 Warning -- This program may not be used in any manner that
 competes with the business of Gaussian, Inc. or will provide
 assistance to any competitor of Gaussian, Inc.  The licensee
 of this program is prohibited from giving any competitor of
 Gaussian, Inc. access to this program.  By using this program,
 the user acknowledges that Gaussian, Inc. is engaged in the
 business of creating and licensing software in the field of
 computational chemistry and represents and warrants to the
 licensee that it is not a competitor of Gaussian, Inc. and that
 it will not use this program in any manner prohibited above.
 ---------------------------------------------------------------
  

 Cite this work as:
 Gaussian 16, Revision B.01,
 M. J. Frisch, G. W. Trucks, H. B. Schlegel, G. E. Scuseria, 
 M. A. Robb, J. R. Cheeseman, G. Scalmani, V. Barone, 
 G. A. Petersson, H. Nakatsuji, X. Li, M. Caricato, A. V. Marenich, 
 J. Bloino, B. G. Janesko, R. Gomperts, B. Mennucci, H. P. Hratchian, 
 J. V. Ortiz, A. F. Izmaylov, J. L. Sonnenberg, D. Williams-Young, 
 F. Ding, F. Lipparini, F. Egidi, J. Goings, B. Peng, A. Petrone, 
 T. Henderson, D. Ranasinghe, V. G. Zakrzewski, J. Gao, N. Rega, 
 G. Zheng, W. Liang, M. Hada, M. Ehara, K. Toyota, R. Fukuda, 
 J. Hasegawa, M. Ishida, T. Nakajima, Y. Honda, O. Kitao, H. Nakai, 
 T. Vreven, K. Throssell, J. A. Montgomery, Jr., J. E. Peralta, 
 F. Ogliaro, M. J. Bearpark, J. J. Heyd, E. N. Brothers, K. N. Kudin, 
 V. N. Staroverov, T. A. Keith, R. Kobayashi, J. Normand, 
 K. Raghavachari, A. P. Rendell, J. C. Burant, S. S. Iyengar, 
 J. Tomasi, M. Cossi, J. M. Millam, M. Klene, C. Adamo, R. Cammi, 
 J. W. Ochterski, R. L. Martin, K. Morokuma, O. Farkas, 
 J. B. Foresman, and D. J. Fox, Gaussian, Inc., Wallingford CT, 2016.
 
 ******************************************
 Gaussian 16:  ES64L-G16RevB.01 20-Dec-2017
                20-Oct-2021 
 ******************************************
 %nproc=28
 Will use up to   28 processors via shared memory.
 %mem=120GB
 %chk=/gscratch/ilahie/mccoygrp/coire_hocl/oop_s_rOH_opt/brhod_pp/brhod_pp_oop_35
 _sp.chk
 ----------------------------------------------------
 #p pop=NBO SP NoSymm mp2/aug-cc-pvtz density=current
 ----------------------------------------------------
 1/30=1,38=1,172=1/1;
 2/12=2,15=1,17=6,18=5,40=1/2;
 3/5=16,6=1,7=10,11=9,25=1,30=1,71=1/1,2,3;
 4//1;
 5/5=2,38=5/2;
 8/6=4,10=1/1;
 9/15=1,16=-3/6;
 10/5=1,13=10,31=1/2;
 6/7=2,8=2,9=2,10=2,22=-1,40=1/1,7;
 99/5=1,9=1/99;
 Leave Link    1 at Wed Oct 20 14:55:36 2021, MaxMem= 16106127360 cpu:               2.5 elap:               0.1
 (Enter /sw/contrib/gaussian/g16/B01/g16/l101.exe)
 -----
 title
 -----
 Symbolic Z-matrix:
 Charge = -1 Multiplicity = 1
 O
 X                    1     10. 
 H(iso=2)             1    r1       2     90. 
 Br                   1    r2       2     90.      3    a1       0
 H                    1    r3       2    oop      3    a1       0
       Variables:
  r1                    0.96048                  
  r2                    3.25083                  
  r3                    0.98806                  
  a1                  101.65547                  
  OOP                  55.                       
 
 ITRead=  0  0  0  0
 MicOpt= -1 -1 -1 -1
 NAtoms=      4 NQM=        4 NQMF=       0 NMMI=      0 NMMIF=      0
                NMic=       0 NMicF=      0.
                    Isotopes and Nuclear Properties:
 (Nuclear quadrupole moments (NQMom) in fm**2, nuclear magnetic moments (NMagM)
  in nuclear magnetons)

  Atom         1           2           3           4
 IAtWgt=          16           2          79           1
 AtmWgt=  15.9949146   2.0141018  78.9183361   1.0078250
 NucSpn=           0           2           3           1
 AtZEff=  -0.0000000  -0.0000000  -0.0000000  -0.0000000
 NQMom=    0.0000000   0.2860000  31.3000000   0.0000000
 NMagM=    0.0000000   0.8574380   2.1063990   2.7928460
 AtZNuc=   8.0000000   1.0000000  35.0000000   1.0000000
 Leave Link  101 at Wed Oct 20 14:55:36 2021, MaxMem= 16106127360 cpu:               2.9 elap:               0.1
 (Enter /sw/contrib/gaussian/g16/B01/g16/l202.exe)
                          Input orientation:                          
 ---------------------------------------------------------------------
 Center     Atomic      Atomic             Coordinates (Angstroms)
 Number     Number       Type             X           Y           Z
 ---------------------------------------------------------------------
      1          8           0        0.000000    0.000000    0.000000
      2          1           0        0.960482    0.000000    0.000000
      3         35           0       -0.656753   -3.183800    0.000000
      4          1           0       -0.163514   -0.792682    0.566728
 ---------------------------------------------------------------------
                    Distance matrix (angstroms):
                    1          2          3          4
     1  O    0.000000
     2  H    0.960482   0.000000
     3  Br   3.250832   3.570999   0.000000
     4  H    0.988060   1.487579   2.506374   0.000000
 Symmetry turned off by external request.
 Stoichiometry    BrH2O(1-)
 Framework group  C1[X(BrH2O)]
 Deg. of freedom     6
 Full point group                 C1      NOp   1
 Rotational constants (GHZ):         268.8411572           3.1399578           3.1156474
 Leave Link  202 at Wed Oct 20 14:55:36 2021, MaxMem= 16106127360 cpu:               0.3 elap:               0.0
 (Enter /sw/contrib/gaussian/g16/B01/g16/l301.exe)
 Standard basis: Aug-CC-pVTZ (5D, 7F)
 Ernie: Thresh=  0.10000D-02 Tol=  0.10000D-05 Strict=F.
 Ernie:  35 primitive shells out of 175 were deleted.
   151 basis functions,   343 primitive gaussians,   174 cartesian basis functions
    23 alpha electrons       23 beta electrons
       nuclear repulsion energy        67.2030933452 Hartrees.
 IExCor=    0 DFT=F Ex=HF Corr=None ExCW=0 ScaHFX=  1.000000
 ScaDFX=  1.000000  1.000000  1.000000  1.000000 ScalE2=  1.000000  1.000000
 IRadAn=      5 IRanWt=     -1 IRanGd=            0 ICorTp=0 IEmpDi=  4
 NAtoms=    4 NActive=    4 NUniq=    4 SFac= 1.00D+00 NAtFMM=   60 NAOKFM=F Big=F
 Integral buffers will be    131072 words long.
 Raffenetti 1 integral format.
 Two-electron integral symmetry is turned off.
 Leave Link  301 at Wed Oct 20 14:55:36 2021, MaxMem= 16106127360 cpu:               1.6 elap:               0.1
 (Enter /sw/contrib/gaussian/g16/B01/g16/l302.exe)
 NPDir=0 NMtPBC=     1 NCelOv=     1 NCel=       1 NClECP=     1 NCelD=      1
         NCelK=      1 NCelE2=     1 NClLst=     1 CellRange=     0.0.
 One-electron integrals computed using PRISM.
 NBasis=   151 RedAO= T EigKep=  3.55D-04  NBF=   151
 NBsUse=   151 1.00D-06 EigRej= -1.00D+00 NBFU=   151
 Leave Link  302 at Wed Oct 20 14:55:37 2021, MaxMem= 16106127360 cpu:               4.6 elap:               0.2
 (Enter /sw/contrib/gaussian/g16/B01/g16/l303.exe)
 DipDrv:  MaxL=1.
 Leave Link  303 at Wed Oct 20 14:55:37 2021, MaxMem= 16106127360 cpu:               1.4 elap:               0.1
 (Enter /sw/contrib/gaussian/g16/B01/g16/l401.exe)
 ExpMin= 2.53D-02 ExpMax= 1.06D+07 ExpMxC= 1.21D+04 IAcc=3 IRadAn=         5 AccDes= 0.00D+00
 Harris functional with IExCor=  205 and IRadAn=       5 diagonalized for initial guess.
 HarFok:  IExCor=  205 AccDes= 0.00D+00 IRadAn=         5 IDoV= 1 UseB2=F ITyADJ=14
 ICtDFT=  3500011 ScaDFX=  1.000000  1.000000  1.000000  1.000000
 FoFCou: FMM=F IPFlag=           0 FMFlag=      100000 FMFlg1=           0
         NFxFlg=           0 DoJE=T BraDBF=F KetDBF=T FulRan=T
         wScrn=  0.000000 ICntrl=       500 IOpCl=  0 I1Cent=   200000004 NGrid=           0
         NMat0=    1 NMatS0=      1 NMatT0=    0 NMatD0=    1 NMtDS0=    0 NMtDT0=    0
 Symmetry not used in FoFCou.
 Harris En= -2648.01516502378    
 JPrj=0 DoOrth=F DoCkMO=F.
 Leave Link  401 at Wed Oct 20 14:55:37 2021, MaxMem= 16106127360 cpu:               6.2 elap:               0.3
 (Enter /sw/contrib/gaussian/g16/B01/g16/l502.exe)
 Keep R1 ints in memory in canonical form, NReq=88256757.
 FoFCou: FMM=F IPFlag=           0 FMFlag=           0 FMFlg1=           0
         NFxFlg=           0 DoJE=F BraDBF=F KetDBF=F FulRan=T
         wScrn=  0.000000 ICntrl=       600 IOpCl=  0 I1Cent=           0 NGrid=           0
         NMat0=    1 NMatS0=  11476 NMatT0=    0 NMatD0=    1 NMtDS0=    0 NMtDT0=    0
 Symmetry not used in FoFCou.
 Two-electron integral symmetry not used.
 Closed shell SCF:
 Using DIIS extrapolation, IDIIS=  1040.
 NGot= 16106127360 LenX= 16040205766 LenY= 16040175049
 Requested convergence on RMS density matrix=1.00D-08 within 128 cycles.
 Requested convergence on MAX density matrix=1.00D-06.
 Requested convergence on             energy=1.00D-06.
 No special actions if energy rises.

 Cycle   1  Pass 1  IDiag  1:
 E= -2648.42854097099    
 DIIS: error= 4.98D-02 at cycle   1 NSaved=   1.
 NSaved= 1 IEnMin= 1 EnMin= -2648.42854097099     IErMin= 1 ErrMin= 4.98D-02
 ErrMax= 4.98D-02  0.00D+00 EMaxC= 1.00D-01 BMatC= 5.30D-01 BMatP= 5.30D-01
 IDIUse=3 WtCom= 5.02D-01 WtEn= 4.98D-01
 Coeff-Com:  0.100D+01
 Coeff-En:   0.100D+01
 Coeff:      0.100D+01
 Gap=     0.363 Goal=   None    Shift=    0.000
 GapD=    0.363 DampG=1.000 DampE=0.500 DampFc=0.5000 IDamp=-1.
 Damping current iteration by 5.00D-01
 RMSDP=2.96D-03 MaxDP=8.98D-02              OVMax= 1.20D-01

 Cycle   2  Pass 1  IDiag  1:
 E= -2648.51765484519     Delta-E=       -0.089113874195 Rises=F Damp=T
 DIIS: error= 2.34D-02 at cycle   2 NSaved=   2.
 NSaved= 2 IEnMin= 2 EnMin= -2648.51765484519     IErMin= 2 ErrMin= 2.34D-02
 ErrMax= 2.34D-02  0.00D+00 EMaxC= 1.00D-01 BMatC= 9.97D-02 BMatP= 5.30D-01
 IDIUse=3 WtCom= 7.66D-01 WtEn= 2.34D-01
 Coeff-Com: -0.597D+00 0.160D+01
 Coeff-En:   0.000D+00 0.100D+01
 Coeff:     -0.457D+00 0.146D+01
 Gap=     0.270 Goal=   None    Shift=    0.000
 RMSDP=1.22D-03 MaxDP=3.54D-02 DE=-8.91D-02 OVMax= 6.36D-02

 Cycle   3  Pass 1  IDiag  1:
 E= -2648.59658528811     Delta-E=       -0.078930442924 Rises=F Damp=F
 DIIS: error= 4.27D-03 at cycle   3 NSaved=   3.
 NSaved= 3 IEnMin= 3 EnMin= -2648.59658528811     IErMin= 3 ErrMin= 4.27D-03
 ErrMax= 4.27D-03  0.00D+00 EMaxC= 1.00D-01 BMatC= 3.27D-03 BMatP= 9.97D-02
 IDIUse=3 WtCom= 9.57D-01 WtEn= 4.27D-02
 Coeff-Com: -0.176D+00 0.375D+00 0.801D+00
 Coeff-En:   0.000D+00 0.000D+00 0.100D+01
 Coeff:     -0.168D+00 0.359D+00 0.810D+00
 Gap=     0.287 Goal=   None    Shift=    0.000
 RMSDP=2.22D-04 MaxDP=5.65D-03 DE=-7.89D-02 OVMax= 1.32D-02

 Cycle   4  Pass 1  IDiag  1:
 E= -2648.59865247928     Delta-E=       -0.002067191167 Rises=F Damp=F
 DIIS: error= 4.04D-04 at cycle   4 NSaved=   4.
 NSaved= 4 IEnMin= 4 EnMin= -2648.59865247928     IErMin= 4 ErrMin= 4.04D-04
 ErrMax= 4.04D-04  0.00D+00 EMaxC= 1.00D-01 BMatC= 3.43D-05 BMatP= 3.27D-03
 IDIUse=3 WtCom= 9.96D-01 WtEn= 4.04D-03
 Coeff-Com:  0.199D-01-0.464D-01-0.309D-02 0.103D+01
 Coeff-En:   0.000D+00 0.000D+00 0.000D+00 0.100D+01
 Coeff:      0.198D-01-0.463D-01-0.307D-02 0.103D+01
 Gap=     0.286 Goal=   None    Shift=    0.000
 RMSDP=4.40D-05 MaxDP=1.30D-03 DE=-2.07D-03 OVMax= 2.39D-03

 Cycle   5  Pass 1  IDiag  1:
 E= -2648.59869715788     Delta-E=       -0.000044678598 Rises=F Damp=F
 DIIS: error= 9.85D-05 at cycle   5 NSaved=   5.
 NSaved= 5 IEnMin= 5 EnMin= -2648.59869715788     IErMin= 5 ErrMin= 9.85D-05
 ErrMax= 9.85D-05  0.00D+00 EMaxC= 1.00D-01 BMatC= 1.77D-06 BMatP= 3.43D-05
 IDIUse=1 WtCom= 1.00D+00 WtEn= 0.00D+00
 Coeff-Com: -0.247D-02 0.700D-02-0.210D-01-0.398D+00 0.141D+01
 Coeff:     -0.247D-02 0.700D-02-0.210D-01-0.398D+00 0.141D+01
 Gap=     0.287 Goal=   None    Shift=    0.000
 RMSDP=1.97D-05 MaxDP=4.97D-04 DE=-4.47D-05 OVMax= 1.06D-03

 Cycle   6  Pass 1  IDiag  1:
 E= -2648.59870248143     Delta-E=       -0.000005323553 Rises=F Damp=F
 DIIS: error= 1.79D-05 at cycle   6 NSaved=   6.
 NSaved= 6 IEnMin= 6 EnMin= -2648.59870248143     IErMin= 6 ErrMin= 1.79D-05
 ErrMax= 1.79D-05  0.00D+00 EMaxC= 1.00D-01 BMatC= 8.70D-08 BMatP= 1.77D-06
 IDIUse=1 WtCom= 1.00D+00 WtEn= 0.00D+00
 Coeff-Com: -0.440D-03 0.122D-02-0.155D-02-0.391D-01 0.152D-01 0.102D+01
 Coeff:     -0.440D-03 0.122D-02-0.155D-02-0.391D-01 0.152D-01 0.102D+01
 Gap=     0.287 Goal=   None    Shift=    0.000
 RMSDP=2.94D-06 MaxDP=8.21D-05 DE=-5.32D-06 OVMax= 1.92D-04

 Cycle   7  Pass 1  IDiag  1:
 E= -2648.59870267129     Delta-E=       -0.000000189862 Rises=F Damp=F
 DIIS: error= 5.17D-06 at cycle   7 NSaved=   7.
 NSaved= 7 IEnMin= 7 EnMin= -2648.59870267129     IErMin= 7 ErrMin= 5.17D-06
 ErrMax= 5.17D-06  0.00D+00 EMaxC= 1.00D-01 BMatC= 1.30D-08 BMatP= 8.70D-08
 IDIUse=1 WtCom= 1.00D+00 WtEn= 0.00D+00
 Coeff-Com: -0.244D-03 0.305D-03 0.312D-02 0.272D-01-0.145D+00 0.147D+00
 Coeff-Com:  0.968D+00
 Coeff:     -0.244D-03 0.305D-03 0.312D-02 0.272D-01-0.145D+00 0.147D+00
 Coeff:      0.968D+00
 Gap=     0.287 Goal=   None    Shift=    0.000
 RMSDP=1.13D-06 MaxDP=2.78D-05 DE=-1.90D-07 OVMax= 7.79D-05

 Cycle   8  Pass 1  IDiag  1:
 E= -2648.59870269423     Delta-E=       -0.000000022933 Rises=F Damp=F
 DIIS: error= 1.86D-06 at cycle   8 NSaved=   8.
 NSaved= 8 IEnMin= 8 EnMin= -2648.59870269423     IErMin= 8 ErrMin= 1.86D-06
 ErrMax= 1.86D-06  0.00D+00 EMaxC= 1.00D-01 BMatC= 5.47D-10 BMatP= 1.30D-08
 IDIUse=1 WtCom= 1.00D+00 WtEn= 0.00D+00
 Coeff-Com:  0.116D-03-0.231D-03-0.411D-03 0.116D-02 0.135D-01-0.805D-01
 Coeff-Com: -0.120D+00 0.119D+01
 Coeff:      0.116D-03-0.231D-03-0.411D-03 0.116D-02 0.135D-01-0.805D-01
 Coeff:     -0.120D+00 0.119D+01
 Gap=     0.287 Goal=   None    Shift=    0.000
 RMSDP=3.73D-07 MaxDP=1.04D-05 DE=-2.29D-08 OVMax= 1.93D-05

 Cycle   9  Pass 1  IDiag  1:
 E= -2648.59870269560     Delta-E=       -0.000000001378 Rises=F Damp=F
 DIIS: error= 4.74D-07 at cycle   9 NSaved=   9.
 NSaved= 9 IEnMin= 9 EnMin= -2648.59870269560     IErMin= 9 ErrMin= 4.74D-07
 ErrMax= 4.74D-07  0.00D+00 EMaxC= 1.00D-01 BMatC= 3.16D-11 BMatP= 5.47D-10
 IDIUse=1 WtCom= 1.00D+00 WtEn= 0.00D+00
 Coeff-Com:  0.103D-05 0.864D-05-0.151D-03-0.186D-02 0.824D-02-0.570D-02
 Coeff-Com: -0.535D-01-0.118D-01 0.106D+01
 Coeff:      0.103D-05 0.864D-05-0.151D-03-0.186D-02 0.824D-02-0.570D-02
 Coeff:     -0.535D-01-0.118D-01 0.106D+01
 Gap=     0.287 Goal=   None    Shift=    0.000
 RMSDP=7.11D-08 MaxDP=1.99D-06 DE=-1.38D-09 OVMax= 3.89D-06

 Cycle  10  Pass 1  IDiag  1:
 E= -2648.59870269569     Delta-E=       -0.000000000083 Rises=F Damp=F
 DIIS: error= 1.45D-07 at cycle  10 NSaved=  10.
 NSaved=10 IEnMin=10 EnMin= -2648.59870269569     IErMin=10 ErrMin= 1.45D-07
 ErrMax= 1.45D-07  0.00D+00 EMaxC= 1.00D-01 BMatC= 2.86D-12 BMatP= 3.16D-11
 IDIUse=1 WtCom= 1.00D+00 WtEn= 0.00D+00
 Coeff-Com: -0.925D-05 0.175D-04 0.457D-04 0.686D-04-0.177D-02 0.709D-02
 Coeff-Com:  0.160D-01-0.109D+00-0.612D-01 0.115D+01
 Coeff:     -0.925D-05 0.175D-04 0.457D-04 0.686D-04-0.177D-02 0.709D-02
 Coeff:      0.160D-01-0.109D+00-0.612D-01 0.115D+01
 Gap=     0.287 Goal=   None    Shift=    0.000
 RMSDP=1.96D-08 MaxDP=3.80D-07 DE=-8.32D-11 OVMax= 1.29D-06

 Cycle  11  Pass 1  IDiag  1:
 E= -2648.59870269569     Delta-E=       -0.000000000002 Rises=F Damp=F
 DIIS: error= 3.27D-08 at cycle  11 NSaved=  11.
 NSaved=11 IEnMin=11 EnMin= -2648.59870269569     IErMin=11 ErrMin= 3.27D-08
 ErrMax= 3.27D-08  0.00D+00 EMaxC= 1.00D-01 BMatC= 1.47D-13 BMatP= 2.86D-12
 IDIUse=1 WtCom= 1.00D+00 WtEn= 0.00D+00
 Coeff-Com:  0.213D-05-0.453D-05-0.324D-05 0.662D-04 0.376D-04-0.130D-02
 Coeff-Com: -0.117D-02 0.245D-01-0.470D-01-0.244D+00 0.127D+01
 Coeff:      0.213D-05-0.453D-05-0.324D-05 0.662D-04 0.376D-04-0.130D-02
 Coeff:     -0.117D-02 0.245D-01-0.470D-01-0.244D+00 0.127D+01
 Gap=     0.287 Goal=   None    Shift=    0.000
 RMSDP=6.90D-09 MaxDP=1.95D-07 DE=-2.27D-12 OVMax= 3.88D-07

 SCF Done:  E(RHF) =  -2648.59870270     A.U. after   11 cycles
            NFock= 11  Conv=0.69D-08     -V/T= 2.0000
 KE= 2.648503624331D+03 PE=-6.482515734720D+03 EE= 1.118210314348D+03
 Leave Link  502 at Wed Oct 20 14:55:39 2021, MaxMem= 16106127360 cpu:              35.2 elap:               2.3
 (Enter /sw/contrib/gaussian/g16/B01/g16/l801.exe)
 ExpMin= 2.53D-02 ExpMax= 1.06D+07 ExpMxC= 1.21D+04 IAcc=3 IRadAn=         5 AccDes= 0.00D+00
 HarFok:  IExCor=  205 AccDes= 0.00D+00 IRadAn=         5 IDoV=-2 UseB2=F ITyADJ=14
 ICtDFT= 12500011 ScaDFX=  1.000000  1.000000  1.000000  1.000000
 Largest valence mixing into a core orbital is  1.27D-04
 Largest core mixing into a valence orbital is  3.64D-05
 Range of M.O.s used for correlation:    11   151
 NBasis=   151 NAE=    23 NBE=    23 NFC=    10 NFV=     0
 NROrb=    141 NOA=    13 NOB=    13 NVA=   128 NVB=   128

 **** Warning!!: The largest alpha MO coefficient is  0.13886126D+02

 Leave Link  801 at Wed Oct 20 14:55:39 2021, MaxMem= 16106127360 cpu:               2.4 elap:               0.1
 (Enter /sw/contrib/gaussian/g16/B01/g16/l906.exe)
 Frozen-core derivative calculation, NFC=  10 NFV=   0.
 FulOut=F Deriv=T AODrv=F NAtomX=     4
   MMem=         214  MDisk=          13 MDiskD=          13
  W3Min=      604302 MinDsk=     1007783 NBas6D=         174
 NBas2D=       15618    NTT=       15225    LW2=     9911920
    MDV= 16105777505 MDiskM=      462752 NBas2p=       15367
 Fully in-core method, ICMem=   275550978.
 IMap=   1   2   3   4   5   6   7   8   9  10  11  12  13  14  15  16  17  18  19  20
 IMap=  21  22  23
 JobTyp=1 Pass  1 fully in-core, NPsUse= 28.
 Compute canonical integrals.
 FoFCou: FMM=F IPFlag=           0 FMFlag=           0 FMFlg1=           0
         NFxFlg=           0 DoJE=F BraDBF=F KetDBF=F FulRan=T
         wScrn=  0.000000 ICntrl=       600 IOpCl=  1 I1Cent=           0 NGrid=           0
         NMat0=    1 NMatS0=  15618 NMatT0=    0 NMatD0=    1 NMtDS0=    0 NMtDT0=    0
 Symmetry not used in FoFCou.
 Spin components of T(2) and E(2):
     alpha-alpha T2 =       0.2054209730D-01 E2=     -0.6960160506D-01
     alpha-beta  T2 =       0.1092571743D+00 E2=     -0.3782536492D+00
     beta-beta   T2 =       0.2054209730D-01 E2=     -0.6960160506D-01
 The integrals were generated   1 times.
 ANorm=    0.1072539682D+01
 E2 =    -0.5174568594D+00 EUMP2 =    -0.26491161595550D+04
 Leave Link  906 at Wed Oct 20 14:55:43 2021, MaxMem= 16106127360 cpu:              96.4 elap:               3.5
 (Enter /sw/contrib/gaussian/g16/B01/g16/l1002.exe)
 Minotr:  Closed shell wavefunction.
          Computing MP2/KS-MP2 derivatives.
          Using Z-Vector for PSCF gradient.
          Skipping F1 and S1 gradient terms here.
          Frozen-core window.
          Direct CPHF calculation.
          Differentiating once with respect to electric field.
                with respect to dipole field.
          Electric field/nuclear overlap derivatives assumed to be zero.
          Requested convergence is 1.0D-10 RMS, and 1.0D-09 maximum.
          NewPWx=F KeepS1=T KeepF1=T KeepIn=T MapXYZ=F SortEE=F KeepMc=T.
 Keep R1 ints in memory in canonical form, NReq=88259649.
 FoFCou: FMM=F IPFlag=           0 FMFlag=           0 FMFlg1=           0
         NFxFlg=           0 DoJE=F BraDBF=F KetDBF=F FulRan=T
         wScrn=  0.000000 ICntrl=       600 IOpCl=  0 I1Cent=           0 NGrid=           0
         NMat0=    1 NMatS0=  11476 NMatT0=    0 NMatD0=    1 NMtDS0=    0 NMtDT0=    0
 Symmetry not used in FoFCou.
 Two-electron integral symmetry not used.
          MDV=   16106127360 using IRadAn=       5.
          Solving linear equations separately, MaxMat=       0.
          There are     1 degrees of freedom in the 1st order CPHF.  IDoFFX=0 NUNeed=     1.
 LinEq1:  Iter=  0 NonCon=     1 RMS=2.40D-03 Max=2.69D-02 NDo=     1
 AX will form     1 AO Fock derivatives at one time.
 LinEq1:  Iter=  1 NonCon=     1 RMS=4.04D-04 Max=3.68D-03 NDo=     1
 LinEq1:  Iter=  2 NonCon=     1 RMS=1.95D-04 Max=1.88D-03 NDo=     1
 LinEq1:  Iter=  3 NonCon=     1 RMS=5.34D-05 Max=8.01D-04 NDo=     1
 LinEq1:  Iter=  4 NonCon=     1 RMS=1.06D-05 Max=1.17D-04 NDo=     1
 LinEq1:  Iter=  5 NonCon=     1 RMS=4.90D-06 Max=5.91D-05 NDo=     1
 LinEq1:  Iter=  6 NonCon=     1 RMS=1.09D-06 Max=1.11D-05 NDo=     1
 LinEq1:  Iter=  7 NonCon=     1 RMS=2.30D-07 Max=2.03D-06 NDo=     1
 LinEq1:  Iter=  8 NonCon=     1 RMS=6.67D-08 Max=7.07D-07 NDo=     1
 LinEq1:  Iter=  9 NonCon=     1 RMS=1.09D-08 Max=1.55D-07 NDo=     1
 LinEq1:  Iter= 10 NonCon=     1 RMS=1.71D-09 Max=1.49D-08 NDo=     1
 LinEq1:  Iter= 11 NonCon=     1 RMS=3.75D-10 Max=4.18D-09 NDo=     1
 LinEq1:  Iter= 12 NonCon=     1 RMS=8.88D-11 Max=1.09D-09 NDo=     1
 LinEq1:  Iter= 13 NonCon=     0 RMS=1.70D-11 Max=1.55D-10 NDo=     1
 Linear equations converged to 1.000D-10 1.000D-09 after    13 iterations.
 End of Minotr F.D. properties file   721 does not exist.
 End of Minotr F.D. properties file   722 does not exist.
 End of Minotr F.D. properties file   788 does not exist.
 Leave Link 1002 at Wed Oct 20 14:55:45 2021, MaxMem= 16106127360 cpu:              37.0 elap:               2.7
 (Enter /sw/contrib/gaussian/g16/B01/g16/l601.exe)
 Copying SCF densities to generalized density rwf, IOpCl= 0 IROHF=0.

 **********************************************************************

            Population analysis using the MP2 Density.

 **********************************************************************

 Alpha  occ. eigenvalues -- -489.73205 -64.87227 -58.22677 -58.22675 -58.22670
 Alpha  occ. eigenvalues --  -20.40002  -9.54472  -7.15229  -7.15211  -7.15192
 Alpha  occ. eigenvalues --   -2.89403  -2.89400  -2.89373  -2.89351  -2.89346
 Alpha  occ. eigenvalues --   -1.17996  -0.70147  -0.53084  -0.42680  -0.34308
 Alpha  occ. eigenvalues --   -0.15569  -0.15262  -0.15095
 Alpha virt. eigenvalues --    0.13575   0.16784   0.23652   0.24269   0.25409
 Alpha virt. eigenvalues --    0.27174   0.28156   0.30000   0.33642   0.36009
 Alpha virt. eigenvalues --    0.38497   0.39469   0.41942   0.45587   0.47933
 Alpha virt. eigenvalues --    0.48944   0.53795   0.54022   0.56546   0.58069
 Alpha virt. eigenvalues --    0.58542   0.60920   0.66456   0.74076   0.74668
 Alpha virt. eigenvalues --    0.75950   0.78235   0.83971   0.86791   0.88733
 Alpha virt. eigenvalues --    0.90139   0.97262   0.99941   1.00749   1.02220
 Alpha virt. eigenvalues --    1.02712   1.02977   1.05968   1.06729   1.07544
 Alpha virt. eigenvalues --    1.09285   1.10598   1.12729   1.17240   1.17448
 Alpha virt. eigenvalues --    1.18037   1.19450   1.20940   1.22423   1.24642
 Alpha virt. eigenvalues --    1.30339   1.34838   1.36256   1.38063   1.42693
 Alpha virt. eigenvalues --    1.49658   1.52737   1.58870   1.67873   1.70358
 Alpha virt. eigenvalues --    1.74460   1.80020   2.02121   2.05117   2.15423
 Alpha virt. eigenvalues --    2.31157   2.40964   2.41852   2.44618   2.47240
 Alpha virt. eigenvalues --    2.48417   2.54264   2.55678   2.56117   2.56471
 Alpha virt. eigenvalues --    2.57084   2.57622   2.58491   2.59345   2.62950
 Alpha virt. eigenvalues --    2.63721   2.64931   2.66986   2.67563   2.71712
 Alpha virt. eigenvalues --    2.75444   2.80665   2.85386   2.90262   2.94204
 Alpha virt. eigenvalues --    2.97232   3.03092   3.11822   3.87451   3.92189
 Alpha virt. eigenvalues --    4.20210   4.29110   4.30265   4.39481   4.43861
 Alpha virt. eigenvalues --    4.47664   4.54006   4.58451   4.64042   4.72840
 Alpha virt. eigenvalues --    4.92322   5.03502   5.28470   5.34965   5.40261
 Alpha virt. eigenvalues --    5.46049   5.67901   5.78302   6.39352   6.68699
 Alpha virt. eigenvalues --    6.91277   7.13296   7.28053   7.38643   7.45236
 Alpha virt. eigenvalues --    7.48284   7.55043   7.58568   7.70845   7.99524
 Alpha virt. eigenvalues --    8.11498   8.94222  15.63925
          Condensed to atoms (all electrons):
               1          2          3          4
     1  O    8.167329   0.204905  -0.061930   0.165337
     2  H    0.204905   0.588887   0.002849   0.022549
     3  Br  -0.061930   0.002849  35.965709   0.042620
     4  H    0.165337   0.022549   0.042620   0.525414
 Mulliken charges:
               1
     1  O   -0.475642
     2  H    0.180810
     3  Br  -0.949248
     4  H    0.244079
 Sum of Mulliken charges =  -1.00000
 Mulliken charges with hydrogens summed into heavy atoms:
               1
     1  O   -0.050752
     3  Br  -0.949248
 Electronic spatial extent (au):  <R**2>=           1431.2131
 Charge=             -1.0000 electrons
 Dipole moment (field-independent basis, Debye):
    X=              4.0032    Y=             13.1062    Z=              0.4922  Tot=             13.7128
 Quadrupole moment (field-independent basis, Debye-Ang):
   XX=            -31.1889   YY=            -77.0241   ZZ=            -31.1037
   XY=             -8.8625   XZ=             -0.1783   YZ=             -0.3062
 Traceless Quadrupole moment (field-independent basis, Debye-Ang):
   XX=             15.2500   YY=            -30.5852   ZZ=             15.3352
   XY=             -8.8625   XZ=             -0.1783   YZ=             -0.3062
 Octapole moment (field-independent basis, Debye-Ang**2):
  XXX=             48.0087  YYY=            375.7839  ZZZ=             -1.7634  XYY=             44.2916
  XXY=             82.1880  XXZ=             -0.8033  XZZ=             14.8698  YZZ=             75.7944
  YYZ=             -2.6830  XYZ=             -0.4136
 Hexadecapole moment (field-independent basis, Debye-Ang**3):
 XXXX=           -112.3815 YYYY=          -1970.4036 ZZZZ=            -52.1321 XXXY=           -152.4408
 XXXZ=              0.4207 YYYX=           -241.7610 YYYZ=             10.4755 ZZZX=              0.3296
 ZZZY=              2.3947 XXYY=           -288.4500 XXZZ=            -27.6565 YYZZ=           -259.1025
 XXYZ=              1.1890 YYXZ=              1.6927 ZZXY=            -49.4672
 N-N= 6.720309334519D+01 E-N=-6.480973987749D+03  KE= 2.648352403393D+03
 No NMR shielding tensors so no spin-rotation constants.
 Leave Link  601 at Wed Oct 20 14:55:46 2021, MaxMem= 16106127360 cpu:               4.1 elap:               0.2
 (Enter /sw/contrib/gaussian/g16/B01/g16/l607.exe)
 ******************************Gaussian NBO Version 3.1******************************
             N A T U R A L   A T O M I C   O R B I T A L   A N D
          N A T U R A L   B O N D   O R B I T A L   A N A L Y S I S
 ******************************Gaussian NBO Version 3.1******************************
       /RESON  / : Allow strongly delocalized NBO set

 Analyzing the MP2 density

 Job title: title                                                           

 Storage needed:     69217 in NPA,     91732 in NBO (********** available)
 GSVD:  LWork=         337 too small for GESVD, short by       43655 words or       43655 for optimal perf.


 NATURAL POPULATIONS:  Natural atomic orbital occupancies 
                                                          
   NAO  Atom  No  lang   Type(AO)    Occupancy
 --------------------------------------------
     1    O    1  S      Cor( 1S)     1.99968
     2    O    1  S      Val( 2S)     1.74916
     3    O    1  S      Ryd( 3S)     0.00621
     4    O    1  S      Ryd( 4S)     0.00062
     5    O    1  S      Ryd( 5S)     0.00020
     6    O    1  px     Val( 2p)     1.52660
     7    O    1  px     Ryd( 3p)     0.00999
     8    O    1  px     Ryd( 4p)     0.00058
     9    O    1  px     Ryd( 5p)     0.00010
    10    O    1  py     Val( 2p)     1.74412
    11    O    1  py     Ryd( 3p)     0.01497
    12    O    1  py     Ryd( 4p)     0.00062
    13    O    1  py     Ryd( 5p)     0.00013
    14    O    1  pz     Val( 2p)     1.83421
    15    O    1  pz     Ryd( 3p)     0.01825
    16    O    1  pz     Ryd( 4p)     0.00064
    17    O    1  pz     Ryd( 5p)     0.00008
    18    O    1  dxy    Ryd( 3d)     0.00899
    19    O    1  dxy    Ryd( 4d)     0.00066
    20    O    1  dxy    Ryd( 5d)     0.00014
    21    O    1  dxz    Ryd( 3d)     0.00969
    22    O    1  dxz    Ryd( 4d)     0.00079
    23    O    1  dxz    Ryd( 5d)     0.00014
    24    O    1  dyz    Ryd( 3d)     0.01029
    25    O    1  dyz    Ryd( 4d)     0.00045
    26    O    1  dyz    Ryd( 5d)     0.00013
    27    O    1  dx2y2  Ryd( 3d)     0.01036
    28    O    1  dx2y2  Ryd( 4d)     0.00033
    29    O    1  dx2y2  Ryd( 5d)     0.00013
    30    O    1  dz2    Ryd( 3d)     0.00859
    31    O    1  dz2    Ryd( 4d)     0.00047
    32    O    1  dz2    Ryd( 5d)     0.00012
    33    O    1  f(0)   Ryd( 4f)     0.00063
    34    O    1  f(0)   Ryd( 5f)     0.00010
    35    O    1  f(C1)  Ryd( 4f)     0.00046
    36    O    1  f(C1)  Ryd( 5f)     0.00009
    37    O    1  f(S1)  Ryd( 4f)     0.00065
    38    O    1  f(S1)  Ryd( 5f)     0.00011
    39    O    1  f(C2)  Ryd( 4f)     0.00065
    40    O    1  f(C2)  Ryd( 5f)     0.00014
    41    O    1  f(S2)  Ryd( 4f)     0.00052
    42    O    1  f(S2)  Ryd( 5f)     0.00009
    43    O    1  f(C3)  Ryd( 4f)     0.00043
    44    O    1  f(C3)  Ryd( 5f)     0.00010
    45    O    1  f(S3)  Ryd( 4f)     0.00058
    46    O    1  f(S3)  Ryd( 5f)     0.00014

    47    H    2  S      Val( 1S)     0.54801
    48    H    2  S      Ryd( 2S)     0.00172
    49    H    2  S      Ryd( 3S)     0.00040
    50    H    2  S      Ryd( 4S)     0.00013
    51    H    2  px     Ryd( 3p)     0.00024
    52    H    2  px     Ryd( 2p)     0.00069
    53    H    2  px     Ryd( 4p)     0.00017
    54    H    2  py     Ryd( 2p)     0.00083
    55    H    2  py     Ryd( 3p)     0.00016
    56    H    2  py     Ryd( 4p)     0.00006
    57    H    2  pz     Ryd( 2p)     0.00108
    58    H    2  pz     Ryd( 3p)     0.00016
    59    H    2  pz     Ryd( 4p)     0.00006
    60    H    2  dxy    Ryd( 3d)     0.00020
    61    H    2  dxy    Ryd( 4d)     0.00007
    62    H    2  dxz    Ryd( 3d)     0.00027
    63    H    2  dxz    Ryd( 4d)     0.00007
    64    H    2  dyz    Ryd( 3d)     0.00010
    65    H    2  dyz    Ryd( 4d)     0.00005
    66    H    2  dx2y2  Ryd( 3d)     0.00014
    67    H    2  dx2y2  Ryd( 4d)     0.00005
    68    H    2  dz2    Ryd( 3d)     0.00012
    69    H    2  dz2    Ryd( 4d)     0.00006

    70   Br    3  S      Cor( 1S)     2.00003
    71   Br    3  S      Cor( 2S)     2.00000
    72   Br    3  S      Cor( 3S)     2.00000
    73   Br    3  S      Val( 4S)     1.98039
    74   Br    3  S      Ryd( 5S)     0.00361
    75   Br    3  S      Ryd( 6S)     0.00063
    76   Br    3  S      Ryd( 7S)     0.00014
    77   Br    3  px     Cor( 2p)     2.00002
    78   Br    3  px     Cor( 3p)     2.00000
    79   Br    3  px     Val( 4p)     1.95310
    80   Br    3  px     Ryd( 5p)     0.01217
    81   Br    3  px     Ryd( 6p)     0.00084
    82   Br    3  px     Ryd( 7p)     0.00005
    83   Br    3  py     Cor( 2p)     2.00001
    84   Br    3  py     Cor( 3p)     2.00000
    85   Br    3  py     Val( 4p)     1.93850
    86   Br    3  py     Ryd( 5p)     0.01114
    87   Br    3  py     Ryd( 6p)     0.00082
    88   Br    3  py     Ryd( 7p)     0.00008
    89   Br    3  pz     Cor( 2p)     2.00002
    90   Br    3  pz     Cor( 3p)     2.00000
    91   Br    3  pz     Val( 4p)     1.95127
    92   Br    3  pz     Ryd( 5p)     0.01208
    93   Br    3  pz     Ryd( 6p)     0.00084
    94   Br    3  pz     Ryd( 7p)     0.00005
    95   Br    3  dxy    Cor( 3d)     1.99768
    96   Br    3  dxy    Ryd( 4d)     0.01883
    97   Br    3  dxy    Ryd( 5d)     0.00164
    98   Br    3  dxy    Ryd( 6d)     0.00022
    99   Br    3  dxz    Cor( 3d)     1.99769
   100   Br    3  dxz    Ryd( 4d)     0.01876
   101   Br    3  dxz    Ryd( 5d)     0.00179
   102   Br    3  dxz    Ryd( 6d)     0.00023
   103   Br    3  dyz    Cor( 3d)     1.99768
   104   Br    3  dyz    Ryd( 4d)     0.01897
   105   Br    3  dyz    Ryd( 5d)     0.00164
   106   Br    3  dyz    Ryd( 6d)     0.00025
   107   Br    3  dx2y2  Cor( 3d)     1.99767
   108   Br    3  dx2y2  Ryd( 4d)     0.01862
   109   Br    3  dx2y2  Ryd( 5d)     0.00170
   110   Br    3  dx2y2  Ryd( 6d)     0.00026
   111   Br    3  dz2    Cor( 3d)     1.99769
   112   Br    3  dz2    Ryd( 4d)     0.01871
   113   Br    3  dz2    Ryd( 5d)     0.00175
   114   Br    3  dz2    Ryd( 6d)     0.00023
   115   Br    3  f(0)   Ryd( 4f)     0.00176
   116   Br    3  f(0)   Ryd( 5f)     0.00025
   117   Br    3  f(C1)  Ryd( 4f)     0.00176
   118   Br    3  f(C1)  Ryd( 5f)     0.00025
   119   Br    3  f(S1)  Ryd( 4f)     0.00175
   120   Br    3  f(S1)  Ryd( 5f)     0.00026
   121   Br    3  f(C2)  Ryd( 4f)     0.00176
   122   Br    3  f(C2)  Ryd( 5f)     0.00026
   123   Br    3  f(S2)  Ryd( 4f)     0.00177
   124   Br    3  f(S2)  Ryd( 5f)     0.00025
   125   Br    3  f(C3)  Ryd( 4f)     0.00174
   126   Br    3  f(C3)  Ryd( 5f)     0.00026
   127   Br    3  f(S3)  Ryd( 4f)     0.00174
   128   Br    3  f(S3)  Ryd( 5f)     0.00026

   129    H    4  S      Val( 1S)     0.49204
   130    H    4  S      Ryd( 2S)     0.00465
   131    H    4  S      Ryd( 3S)     0.00044
   132    H    4  S      Ryd( 4S)     0.00010
   133    H    4  px     Ryd( 2p)     0.00322
   134    H    4  px     Ryd( 3p)     0.00035
   135    H    4  px     Ryd( 4p)     0.00009
   136    H    4  py     Ryd( 2p)     0.00454
   137    H    4  py     Ryd( 3p)     0.00046
   138    H    4  py     Ryd( 4p)     0.00019
   139    H    4  pz     Ryd( 2p)     0.00315
   140    H    4  pz     Ryd( 3p)     0.00043
   141    H    4  pz     Ryd( 4p)     0.00014
   142    H    4  dxy    Ryd( 3d)     0.00018
   143    H    4  dxy    Ryd( 4d)     0.00008
   144    H    4  dxz    Ryd( 3d)     0.00013
   145    H    4  dxz    Ryd( 4d)     0.00007
   146    H    4  dyz    Ryd( 3d)     0.00025
   147    H    4  dyz    Ryd( 4d)     0.00007
   148    H    4  dx2y2  Ryd( 3d)     0.00025
   149    H    4  dx2y2  Ryd( 4d)     0.00009
   150    H    4  dz2    Ryd( 3d)     0.00014
   151    H    4  dz2    Ryd( 4d)     0.00008

 WARNING:  5 low occupancy (<1.9990e) core orbitals found on Br    3


 Summary of Natural Population Analysis:                  
                                                          
                                       Natural Population 
                Natural  -----------------------------------------------
    Atom  No    Charge         Core      Valence    Rydberg      Total
 -----------------------------------------------------------------------
      O    1   -0.96213      1.99968     6.85409    0.10836     8.96213
      H    2    0.44516      0.00000     0.54801    0.00683     0.55484
     Br    3   -0.97188     27.98850     7.82325    0.16013    35.97188
      H    4    0.48886      0.00000     0.49204    0.01911     0.51114
 =======================================================================
   * Total *   -1.00000     29.98817    15.71739    0.29443    46.00000

                                 Natural Population      
 --------------------------------------------------------
   Core                      29.98817 ( 99.9606% of  30)
   Valence                   15.71739 ( 98.2337% of  16)
   Natural Minimal Basis     45.70557 ( 99.3599% of  46)
   Natural Rydberg Basis      0.29443 (  0.6401% of  46)
 --------------------------------------------------------

    Atom  No          Natural Electron Configuration
 ----------------------------------------------------------------------------
      O    1      [core]2S( 1.75)2p( 5.10)3S( 0.01)3p( 0.04)3d( 0.05)
      H    2            1S( 0.55)
     Br    3      [core]4S( 1.98)4p( 5.84)4d( 0.09)5p( 0.04)4f( 0.01)5d( 0.01)
      H    4            1S( 0.49)2p( 0.01)


 NATURAL BOND ORBITAL ANALYSIS:
 Warning:  a bond orbital has occupanc of -0.00003

                       Occupancies       Lewis Structure    Low   High
           Occ.    -------------------  -----------------   occ   occ
  Cycle   Thresh.   Lewis   Non-Lewis     CR  BD  3C  LP    (L)   (NL)   Dev
 =============================================================================
   1(1)    1.90    45.67679   0.32321     15   2   0   6     0      0    0.03
 -----------------------------------------------------------------------------

 Structure accepted: No low occupancy Lewis orbitals

 WARNING:  5 low occupancy (<1.9990e) core orbitals found on Br    3

 --------------------------------------------------------
   Core                     29.98818 ( 99.961% of  30)
   Valence Lewis            15.68861 ( 98.054% of  16)
  ==================       ============================
   Total Lewis              45.67679 ( 99.297% of  46)
  -----------------------------------------------------
   Valence non-Lewis         0.05919 (  0.129% of  46)
   Rydberg non-Lewis         0.26402 (  0.574% of  46)
  ==================       ============================
   Total non-Lewis           0.32321 (  0.703% of  46)
 --------------------------------------------------------


       (Occupancy)   Bond orbital/ Coefficients/ Hybrids
 ---------------------------------------------------------------------------------
     1. (1.96623) BD ( 1) O   1 - H   2  
                ( 72.89%)   0.8538* O   1 s( 20.91%)p 3.76( 78.63%)d 0.02(  0.45%)
                                                  f 0.00(  0.01%)
                                            0.0002  0.4571 -0.0068  0.0029 -0.0047
                                            0.8841 -0.0323  0.0082 -0.0007  0.0516
                                           -0.0122  0.0012 -0.0029 -0.0259  0.0102
                                           -0.0010  0.0016 -0.0140  0.0004  0.0021
                                            0.0153 -0.0026  0.0001 -0.0047 -0.0004
                                            0.0017  0.0545 -0.0034  0.0029 -0.0329
                                            0.0017 -0.0010  0.0000  0.0003 -0.0062
                                           -0.0015 -0.0003  0.0001 -0.0004 -0.0001
                                           -0.0058  0.0018  0.0057  0.0023  0.0012
                                           -0.0001
                ( 27.11%)   0.5206* H   2 s( 99.89%)p 0.00(  0.10%)d 0.00(  0.01%)
                                            0.9995  0.0036 -0.0002  0.0002 -0.0013
                                            0.0306 -0.0041  0.0030  0.0004 -0.0008
                                            0.0006  0.0017 -0.0002  0.0024 -0.0019
                                            0.0011  0.0010 -0.0022 -0.0008  0.0077
                                           -0.0014 -0.0043  0.0007
     2. (1.96674) BD ( 1) O   1 - H   4  
                ( 76.42%)   0.8742* O   1 s( 23.35%)p 3.26( 76.18%)d 0.02(  0.45%)
                                                  f 0.00(  0.01%)
                                           -0.0003 -0.4832 -0.0001 -0.0005  0.0009
                                            0.1927 -0.0186 -0.0001  0.0021  0.6790
                                           -0.0142  0.0067 -0.0021 -0.5128  0.0083
                                           -0.0060  0.0048  0.0085 -0.0049  0.0025
                                           -0.0057  0.0035 -0.0018  0.0576 -0.0029
                                           -0.0021  0.0321 -0.0020  0.0003 -0.0024
                                            0.0014 -0.0018  0.0087 -0.0011 -0.0003
                                            0.0006  0.0026  0.0009  0.0047  0.0022
                                           -0.0029 -0.0007 -0.0012 -0.0012  0.0030
                                           -0.0033
                ( 23.58%)   0.4856* H   4 s( 99.86%)p 0.00(  0.13%)d 0.00(  0.01%)
                                           -0.9992 -0.0139 -0.0004  0.0001 -0.0196
                                            0.0008  0.0004 -0.0038 -0.0184 -0.0064
                                           -0.0169  0.0148  0.0060 -0.0003  0.0023
                                            0.0006 -0.0019  0.0020  0.0002 -0.0071
                                            0.0004  0.0027  0.0008
     3. (1.99968) CR ( 1) O   1           s(100.00%)
                                            1.0000 -0.0004  0.0000 -0.0000  0.0000
                                           -0.0001  0.0000 -0.0000  0.0000  0.0001
                                           -0.0000  0.0000  0.0000 -0.0000  0.0000
                                           -0.0000  0.0000  0.0000 -0.0000  0.0000
                                            0.0000  0.0000 -0.0000  0.0000 -0.0000
                                           -0.0000 -0.0000  0.0000  0.0000  0.0000
                                            0.0000 -0.0000  0.0000  0.0000  0.0000
                                            0.0000  0.0000  0.0000  0.0000  0.0000
                                            0.0000 -0.0000 -0.0000 -0.0000 -0.0000
                                           -0.0000
     4. (2.00003) CR ( 1)Br   3           s(100.00%)
                                            1.0000  0.0000  0.0000 -0.0000  0.0000
                                            0.0000  0.0000 -0.0000 -0.0000  0.0000
                                            0.0000 -0.0000 -0.0000 -0.0000 -0.0000
                                            0.0000 -0.0000 -0.0000 -0.0000 -0.0000
                                           -0.0000  0.0000  0.0000 -0.0000  0.0000
                                           -0.0000  0.0000 -0.0000  0.0000 -0.0000
                                            0.0000 -0.0000  0.0000 -0.0000  0.0000
                                           -0.0000  0.0000  0.0000 -0.0000  0.0000
                                            0.0000  0.0000 -0.0000  0.0000 -0.0000
                                           -0.0000 -0.0000 -0.0000 -0.0000 -0.0000
                                           -0.0000 -0.0000 -0.0000  0.0000  0.0000
                                           -0.0000 -0.0000 -0.0000 -0.0000
     5. (2.00000) CR ( 2)Br   3           s(100.00%)
                                            0.0000  1.0000 -0.0000 -0.0000 -0.0000
                                           -0.0000  0.0000  0.0000  0.0000 -0.0000
                                           -0.0000  0.0000  0.0000  0.0000  0.0000
                                           -0.0000 -0.0000  0.0000  0.0000  0.0000
                                            0.0000 -0.0000 -0.0000  0.0000 -0.0000
                                            0.0000 -0.0000  0.0000 -0.0000  0.0000
                                           -0.0000  0.0000 -0.0000  0.0000 -0.0000
                                            0.0000 -0.0000 -0.0000  0.0000 -0.0000
                                           -0.0000 -0.0000  0.0000 -0.0000 -0.0000
                                            0.0000  0.0000  0.0000  0.0000  0.0000
                                            0.0000  0.0000  0.0000 -0.0000 -0.0000
                                            0.0000  0.0000  0.0000  0.0000
     6. (2.00000) CR ( 3)Br   3           s(100.00%)
                                            0.0000 -0.0000  1.0000 -0.0000 -0.0000
                                           -0.0000  0.0000  0.0000  0.0000 -0.0000
                                           -0.0000  0.0000  0.0000  0.0000  0.0000
                                           -0.0000 -0.0000  0.0000  0.0000  0.0000
                                            0.0000 -0.0000 -0.0000  0.0000 -0.0000
                                            0.0000 -0.0000  0.0000 -0.0000  0.0000
                                           -0.0000  0.0000 -0.0000  0.0000 -0.0000
                                            0.0000 -0.0000 -0.0000  0.0000 -0.0000
                                           -0.0000 -0.0000  0.0000 -0.0000 -0.0000
                                            0.0000  0.0000  0.0000  0.0000  0.0000
                                            0.0000  0.0000  0.0000 -0.0000 -0.0000
                                            0.0000  0.0000  0.0000  0.0000
     7. (2.00002) CR ( 4)Br   3           s(  0.00%)p 1.00(100.00%)
                                           -0.0000  0.0000  0.0000  0.0000 -0.0000
                                           -0.0000  0.0000  1.0000 -0.0000 -0.0000
                                           -0.0000 -0.0000  0.0000 -0.0000 -0.0000
                                            0.0000 -0.0000 -0.0000  0.0000 -0.0000
                                           -0.0000  0.0000  0.0000 -0.0000  0.0000
                                           -0.0000 -0.0000  0.0000  0.0000  0.0000
                                           -0.0000  0.0000 -0.0000 -0.0000  0.0000
                                           -0.0000  0.0000  0.0000 -0.0000  0.0000
                                           -0.0000  0.0000  0.0000 -0.0000  0.0000
                                           -0.0000 -0.0000  0.0000  0.0000 -0.0000
                                           -0.0000 -0.0000 -0.0000 -0.0000 -0.0000
                                            0.0000  0.0000 -0.0000 -0.0000
     8. (2.00000) CR ( 5)Br   3           s(  0.00%)p 1.00(100.00%)
                                           -0.0000  0.0000  0.0000  0.0000  0.0000
                                           -0.0000  0.0000 -0.0000  1.0000 -0.0000
                                           -0.0000 -0.0000  0.0000 -0.0000 -0.0000
                                            0.0000 -0.0000 -0.0000  0.0000 -0.0000
                                           -0.0000  0.0000  0.0000 -0.0000  0.0000
                                           -0.0000 -0.0000  0.0000  0.0000 -0.0000
                                           -0.0000  0.0000 -0.0000 -0.0000  0.0000
                                           -0.0000  0.0000  0.0000 -0.0000  0.0000
                                           -0.0000  0.0000  0.0000 -0.0000  0.0000
                                           -0.0000 -0.0000  0.0000  0.0000  0.0000
                                            0.0000 -0.0000 -0.0000 -0.0000 -0.0000
                                            0.0000 -0.0000 -0.0000 -0.0000
     9. (2.00001) CR ( 6)Br   3           s(  0.00%)p 1.00(100.00%)
                                           -0.0000  0.0000  0.0000  0.0000  0.0000
                                            0.0000 -0.0000 -0.0000 -0.0000  0.0000
                                            0.0000  0.0000 -0.0000  1.0000 -0.0000
                                            0.0001  0.0000 -0.0000 -0.0000 -0.0000
                                           -0.0000  0.0000  0.0000 -0.0000  0.0000
                                           -0.0000  0.0000 -0.0000  0.0000 -0.0000
                                            0.0000 -0.0000  0.0000 -0.0000  0.0000
                                           -0.0000  0.0000  0.0000 -0.0000  0.0000
                                            0.0000  0.0000 -0.0000  0.0000  0.0000
                                           -0.0000 -0.0000 -0.0000 -0.0000 -0.0000
                                           -0.0000 -0.0000 -0.0000  0.0000  0.0000
                                           -0.0000 -0.0000 -0.0000 -0.0000
    10. (2.00000) CR ( 7)Br   3           s(  0.00%)p 1.00(100.00%)
                                           -0.0000  0.0000  0.0000  0.0000  0.0000
                                            0.0000 -0.0000 -0.0000 -0.0000  0.0000
                                            0.0000  0.0000 -0.0000 -0.0000  1.0000
                                            0.0000  0.0000 -0.0000 -0.0000 -0.0000
                                           -0.0000  0.0000  0.0000 -0.0000  0.0000
                                           -0.0000  0.0000 -0.0000  0.0000 -0.0000
                                            0.0000 -0.0000  0.0000 -0.0000  0.0000
                                           -0.0000  0.0000  0.0000 -0.0000  0.0000
                                            0.0000  0.0000 -0.0000 -0.0000  0.0000
                                           -0.0000 -0.0000 -0.0000 -0.0000  0.0000
                                            0.0000 -0.0000 -0.0000  0.0000  0.0000
                                           -0.0000 -0.0000 -0.0000 -0.0000
    11. (2.00002) CR ( 8)Br   3           s(  0.00%)p 1.00(100.00%)
                                           -0.0000  0.0000  0.0000  0.0000  0.0000
                                           -0.0000  0.0000 -0.0000 -0.0000  0.0000
                                            0.0000 -0.0000 -0.0000 -0.0000 -0.0000
                                            0.0000 -0.0000 -0.0000  0.0000  1.0000
                                           -0.0000 -0.0000  0.0000 -0.0000  0.0000
                                           -0.0000  0.0000 -0.0000  0.0000 -0.0000
                                            0.0000  0.0000 -0.0000 -0.0000  0.0000
                                           -0.0000  0.0000  0.0000 -0.0000  0.0000
                                            0.0000  0.0000 -0.0000  0.0000 -0.0000
                                           -0.0000 -0.0000 -0.0000 -0.0000 -0.0000
                                           -0.0000 -0.0000 -0.0000  0.0000  0.0000
                                           -0.0000 -0.0000 -0.0000 -0.0000
    12. (2.00000) CR ( 9)Br   3           s(  0.00%)p 1.00(100.00%)
                                           -0.0000  0.0000  0.0000  0.0000  0.0000
                                           -0.0000  0.0000 -0.0000 -0.0000  0.0000
                                            0.0000 -0.0000 -0.0000 -0.0000 -0.0000
                                            0.0000 -0.0000 -0.0000  0.0000 -0.0000
                                            1.0000 -0.0000  0.0000 -0.0000  0.0000
                                           -0.0000  0.0000 -0.0000  0.0000 -0.0000
                                            0.0000 -0.0000 -0.0000 -0.0000  0.0000
                                           -0.0000  0.0000  0.0000 -0.0000  0.0000
                                            0.0000  0.0000 -0.0000  0.0000 -0.0000
                                           -0.0000 -0.0000 -0.0000 -0.0000 -0.0000
                                           -0.0000 -0.0000 -0.0000  0.0000  0.0000
                                           -0.0000 -0.0000 -0.0000 -0.0000
    13. (1.99768) CR (10)Br   3           s(  0.00%)p 0.00(  0.00%)d 1.00(100.00%)
                                           -0.0000  0.0000  0.0000  0.0000  0.0000
                                            0.0000 -0.0000 -0.0000 -0.0000  0.0000
                                            0.0000  0.0000 -0.0000 -0.0000 -0.0000
                                            0.0000  0.0000 -0.0000 -0.0000 -0.0000
                                           -0.0000  0.0000  0.0000 -0.0000  0.0000
                                            1.0000  0.0000 -0.0000  0.0000 -0.0000
                                            0.0000 -0.0000  0.0000 -0.0000  0.0000
                                           -0.0000  0.0000  0.0000 -0.0000  0.0000
                                            0.0000  0.0000 -0.0000  0.0000 -0.0000
                                           -0.0000 -0.0000 -0.0000 -0.0000 -0.0000
                                           -0.0000 -0.0000 -0.0000  0.0000  0.0000
                                           -0.0000 -0.0000 -0.0000 -0.0000
    14. (1.99769) CR (11)Br   3           s(  0.00%)p 0.00(  0.00%)d 1.00(100.00%)
                                           -0.0000  0.0000  0.0000  0.0000  0.0000
                                            0.0000 -0.0000  0.0000 -0.0000  0.0000
                                            0.0000  0.0000 -0.0000 -0.0000 -0.0000
                                            0.0000  0.0000 -0.0000 -0.0000 -0.0000
                                           -0.0000  0.0000  0.0000 -0.0000  0.0000
                                           -0.0000  0.0000 -0.0000  0.0000  1.0000
                                            0.0000 -0.0000  0.0000 -0.0000  0.0000
                                           -0.0000  0.0000  0.0000 -0.0000  0.0000
                                            0.0000  0.0000 -0.0000  0.0000  0.0000
                                           -0.0000 -0.0000 -0.0000 -0.0000 -0.0000
                                           -0.0000 -0.0000 -0.0000  0.0000  0.0000
                                           -0.0000 -0.0000 -0.0000 -0.0000
    15. (1.99768) CR (12)Br   3           s(  0.00%)p 0.00(  0.00%)d 1.00(100.00%)
                                           -0.0000  0.0000  0.0000  0.0000  0.0000
                                            0.0000 -0.0000 -0.0000 -0.0000  0.0000
                                            0.0000 -0.0000 -0.0000 -0.0000 -0.0000
                                            0.0000  0.0000 -0.0000 -0.0000 -0.0000
                                           -0.0000  0.0000  0.0000 -0.0000  0.0000
                                           -0.0000  0.0000 -0.0000  0.0000 -0.0000
                                            0.0000 -0.0000  0.0000  1.0000  0.0000
                                           -0.0000  0.0000  0.0000 -0.0000  0.0000
                                            0.0000  0.0000 -0.0000  0.0000  0.0000
                                           -0.0000 -0.0000 -0.0000 -0.0000 -0.0000
                                           -0.0000 -0.0000 -0.0000  0.0000  0.0000
                                           -0.0000 -0.0000 -0.0000 -0.0000
    16. (1.99767) CR (13)Br   3           s(  0.00%)p 0.00(  0.00%)d 1.00(100.00%)
                                            0.0000 -0.0000 -0.0000 -0.0000 -0.0000
                                           -0.0000 -0.0000  0.0000  0.0000 -0.0000
                                           -0.0000  0.0000  0.0000  0.0000  0.0000
                                           -0.0000 -0.0000  0.0000  0.0000  0.0000
                                            0.0000 -0.0000 -0.0000  0.0000 -0.0000
                                            0.0000 -0.0000  0.0000 -0.0000  0.0000
                                           -0.0000  0.0000 -0.0000  0.0000 -0.0000
                                            0.0000 -0.0000  1.0000  0.0000 -0.0000
                                           -0.0000 -0.0000  0.0000 -0.0000 -0.0000
                                            0.0000  0.0000  0.0000  0.0000  0.0000
                                            0.0000  0.0000  0.0000 -0.0000 -0.0000
                                            0.0000  0.0000  0.0000  0.0000
    17. (1.99769) CR (14)Br   3           s(  0.00%)p 0.00(  0.00%)d 1.00(100.00%)
                                            0.0000 -0.0000 -0.0000 -0.0000 -0.0000
                                           -0.0000 -0.0000  0.0000  0.0000 -0.0000
                                           -0.0000  0.0000  0.0000  0.0000  0.0000
                                           -0.0000  0.0000  0.0000  0.0000  0.0000
                                            0.0000 -0.0000 -0.0000  0.0000 -0.0000
                                            0.0000 -0.0000  0.0000 -0.0000  0.0000
                                           -0.0000  0.0000 -0.0000  0.0000 -0.0000
                                            0.0000 -0.0000 -0.0000  0.0000 -0.0000
                                           -0.0000  1.0000  0.0000 -0.0000  0.0000
                                            0.0000  0.0000  0.0000  0.0000  0.0000
                                            0.0000  0.0000  0.0000 -0.0000 -0.0000
                                            0.0000  0.0000  0.0000  0.0000
    18. (1.97068) LP ( 1) O   1           s( 55.62%)p 0.80( 44.25%)d 0.00(  0.12%)
                                                  f 0.00(  0.00%)
                                            0.0003  0.7458  0.0032 -0.0012  0.0024
                                           -0.4180 -0.0024  0.0036 -0.0013  0.4239
                                            0.0089 -0.0040  0.0006 -0.2965 -0.0056
                                            0.0024  0.0008  0.0243 -0.0025 -0.0023
                                           -0.0204  0.0033  0.0005  0.0137 -0.0022
                                            0.0004 -0.0003  0.0011 -0.0031  0.0031
                                           -0.0005  0.0011  0.0037 -0.0015  0.0007
                                           -0.0001  0.0003  0.0000 -0.0002  0.0006
                                            0.0026 -0.0005 -0.0000  0.0002  0.0036
                                           -0.0020
    19. (1.96095) LP ( 2) O   1           s(  0.05%)p99.99( 99.63%)d 5.87(  0.29%)
                                                  f 0.52(  0.03%)
                                            0.0000  0.0187 -0.0099 -0.0073 -0.0002
                                            0.0014 -0.0007  0.0005 -0.0015 -0.5928
                                           -0.0178  0.0034 -0.0010 -0.8024 -0.0266
                                            0.0064 -0.0026 -0.0248  0.0080 -0.0042
                                           -0.0341  0.0105 -0.0055  0.0023  0.0023
                                           -0.0037 -0.0122 -0.0003  0.0027 -0.0272
                                            0.0011  0.0039  0.0035 -0.0021  0.0013
                                           -0.0004  0.0092 -0.0027 -0.0097  0.0041
                                           -0.0007  0.0002  0.0006  0.0005 -0.0054
                                            0.0031
    20. (1.98076) LP ( 1)Br   3           s( 99.25%)p 0.01(  0.75%)d 0.00(  0.00%)
                                                  f 0.00(  0.00%)
                                            0.0000 -0.0000 -0.0000  0.9962 -0.0001
                                           -0.0000 -0.0000 -0.0000 -0.0000 -0.0152
                                            0.0003 -0.0001  0.0001 -0.0000 -0.0000
                                           -0.0818  0.0005 -0.0004  0.0000 -0.0000
                                           -0.0000 -0.0244  0.0006 -0.0001  0.0002
                                           -0.0000  0.0007 -0.0002 -0.0000 -0.0000
                                            0.0002 -0.0001 -0.0000 -0.0000  0.0013
                                           -0.0005 -0.0001  0.0000 -0.0010  0.0002
                                            0.0002  0.0000 -0.0007  0.0002  0.0000
                                           -0.0004 -0.0003 -0.0001 -0.0001 -0.0002
                                           -0.0002 -0.0005 -0.0004  0.0002  0.0001
                                           -0.0003 -0.0002 -0.0003 -0.0002
    21. (1.95406) LP ( 2)Br   3           s(  0.00%)p 1.00( 99.99%)d 0.00(  0.00%)
                                                  f 0.00(  0.00%)
                                           -0.0000 -0.0000  0.0000  0.0048 -0.0002
                                           -0.0008  0.0016  0.0000  0.0000  0.6738
                                            0.0006  0.0006 -0.0002  0.0000  0.0000
                                            0.1492 -0.0011 -0.0002  0.0000 -0.0000
                                           -0.0000 -0.7237  0.0009 -0.0003 -0.0001
                                           -0.0000  0.0032 -0.0010  0.0001 -0.0000
                                            0.0008 -0.0004  0.0004  0.0000 -0.0013
                                           -0.0001  0.0011  0.0000  0.0020 -0.0010
                                            0.0014  0.0000 -0.0035  0.0018 -0.0016
                                            0.0000 -0.0001 -0.0005 -0.0004 -0.0015
                                           -0.0013  0.0003  0.0001  0.0006  0.0005
                                           -0.0007 -0.0005  0.0005  0.0005
    22. (1.95389) LP ( 3)Br   3           s(  0.01%)p 1.00( 99.99%)d 0.00(  0.00%)
                                                  f 0.00(  0.00%)
                                           -0.0000 -0.0000 -0.0000  0.0074 -0.0012
                                           -0.0028  0.0040 -0.0000 -0.0000 -0.7114
                                           -0.0006 -0.0007  0.0002  0.0000  0.0000
                                            0.3956 -0.0021 -0.0005  0.0011 -0.0000
                                           -0.0000 -0.5808  0.0010 -0.0002 -0.0000
                                            0.0000 -0.0025  0.0005  0.0003  0.0000
                                           -0.0034  0.0017 -0.0017  0.0000  0.0003
                                           -0.0007  0.0015  0.0000 -0.0026  0.0011
                                           -0.0003  0.0000 -0.0017  0.0007 -0.0003
                                           -0.0001 -0.0002 -0.0001 -0.0001 -0.0012
                                           -0.0009 -0.0005 -0.0006 -0.0012 -0.0010
                                            0.0004  0.0002 -0.0010 -0.0008
    23. (1.93530) LP ( 4)Br   3           s(  0.74%)p99.99( 99.23%)d 0.03(  0.02%)
                                                  f 0.00(  0.00%)
                                           -0.0000  0.0000  0.0000  0.0862  0.0016
                                            0.0007  0.0001 -0.0000 -0.0000  0.1990
                                            0.0010 -0.0001 -0.0004 -0.0001 -0.0000
                                            0.9024  0.0001 -0.0011 -0.0002 -0.0000
                                           -0.0000  0.3720  0.0029 -0.0002  0.0003
                                           -0.0000  0.0047 -0.0014  0.0006 -0.0000
                                            0.0027 -0.0008  0.0004 -0.0000  0.0111
                                           -0.0033  0.0017  0.0000 -0.0066  0.0016
                                            0.0004  0.0000 -0.0026  0.0007  0.0001
                                           -0.0019 -0.0012 -0.0002 -0.0002 -0.0005
                                           -0.0006 -0.0023 -0.0015  0.0010  0.0005
                                           -0.0013 -0.0008 -0.0013 -0.0009
    24. (0.02036) RY*( 1) O   1           s(  0.09%)p99.99( 97.19%)d29.75(  2.64%)
                                                  f 0.92(  0.08%)
                                           -0.0000 -0.0006  0.0253  0.0157  0.0010
                                            0.0001  0.0012 -0.0020  0.0033 -0.0238
                                            0.5870  0.0229 -0.0105 -0.0331  0.7901
                                            0.0262 -0.0110  0.0856 -0.0217  0.0097
                                            0.1109 -0.0285  0.0135 -0.0013 -0.0030
                                            0.0056  0.0256 -0.0040 -0.0009  0.0663
                                           -0.0103 -0.0010 -0.0068  0.0049  0.0027
                                            0.0004 -0.0101  0.0095  0.0145 -0.0116
                                            0.0003 -0.0009  0.0028 -0.0013  0.0108
                                           -0.0083
    25. (0.01523) RY*( 2) O   1           s( 21.31%)p 3.51( 74.89%)d 0.17(  3.66%)
                                                  f 0.01(  0.14%)
                                            0.0000 -0.0102  0.4612 -0.0179  0.0016
                                            0.0097 -0.4898 -0.0133  0.0022 -0.0090
                                            0.5671  0.0090 -0.0105  0.0043 -0.4320
                                           -0.0100  0.0084  0.1376 -0.0118 -0.0039
                                           -0.1247  0.0160 -0.0023  0.0366 -0.0094
                                           -0.0037 -0.0085  0.0055 -0.0078  0.0016
                                           -0.0073  0.0042  0.0074 -0.0071 -0.0092
                                            0.0036 -0.0085  0.0037 -0.0161  0.0066
                                            0.0131 -0.0057  0.0141 -0.0041  0.0182
                                           -0.0103
    26. (0.00718) RY*( 3) O   1           s(  4.10%)p14.56( 59.74%)d 8.64( 35.44%)
                                                  f 0.17(  0.71%)
                                           -0.0000  0.0029  0.1981 -0.0390  0.0156
                                           -0.0560 -0.6150 -0.0185 -0.0147 -0.0225
                                           -0.3685 -0.0112 -0.0094  0.0138  0.2790
                                            0.0214 -0.0233 -0.3934 -0.0009 -0.0070
                                            0.0727 -0.0068  0.0071  0.1261  0.0288
                                           -0.0129  0.4018  0.0511 -0.0247  0.1121
                                           -0.0070  0.0093  0.0118 -0.0023 -0.0203
                                            0.0088 -0.0012  0.0046  0.0310 -0.0102
                                           -0.0194  0.0061  0.0132 -0.0055 -0.0633
                                            0.0276
    27. (0.00630) RY*( 4) O   1           s(  0.52%)p18.69(  9.81%)d99.99( 88.44%)
                                                  f 2.34(  1.23%)
                                            0.0000  0.0025  0.0708  0.0151 -0.0010
                                            0.0257  0.2599  0.0191 -0.0054  0.0228
                                            0.1583  0.0164 -0.0132 -0.0079 -0.0584
                                            0.0010  0.0002 -0.4846 -0.0428  0.0163
                                           -0.4537 -0.0392  0.0105 -0.2720 -0.0224
                                            0.0057  0.0802 -0.0001  0.0048  0.5967
                                            0.0522 -0.0129  0.0439 -0.0185  0.0076
                                            0.0000 -0.0505  0.0230 -0.0508  0.0210
                                           -0.0083  0.0039 -0.0318  0.0112 -0.0481
                                            0.0178
    28. (0.00624) RY*( 5) O   1           s( 11.81%)p 0.41(  4.86%)d 6.97( 82.30%)
                                                  f 0.09(  1.03%)
                                           -0.0000  0.0132  0.3432  0.0102 -0.0012
                                            0.0072  0.1851  0.0136 -0.0071  0.0219
                                            0.0755  0.0006 -0.0060 -0.0229 -0.0850
                                           -0.0068 -0.0028 -0.5198 -0.0278  0.0139
                                            0.6271  0.0411 -0.0158  0.0650  0.0170
                                           -0.0087 -0.3878 -0.0372  0.0114 -0.0141
                                            0.0010 -0.0023 -0.0413  0.0167  0.0275
                                           -0.0049  0.0128 -0.0014  0.0156 -0.0004
                                           -0.0531  0.0214 -0.0590  0.0154 -0.0117
                                           -0.0001
    29. (0.00593) RY*( 6) O   1           s(  0.12%)p21.53(  2.57%)d99.99( 96.43%)
                                                  f 7.34(  0.88%)
                                           -0.0000  0.0007  0.0345 -0.0013  0.0005
                                            0.0026  0.0380  0.0021 -0.0023 -0.0226
                                           -0.0668 -0.0021 -0.0155 -0.0389 -0.1319
                                           -0.0096 -0.0079  0.4256  0.0483 -0.0136
                                            0.5306  0.0622 -0.0187 -0.2200 -0.0184
                                            0.0015  0.2951  0.0287 -0.0015  0.5955
                                            0.0593 -0.0073 -0.0073  0.0011  0.0343
                                           -0.0122 -0.0642  0.0272  0.0378 -0.0142
                                           -0.0082  0.0028  0.0216 -0.0074  0.0168
                                           -0.0049
    30. (0.00565) RY*( 7) O   1           s(  6.18%)p 0.89(  5.48%)d14.18( 87.66%)
                                                  f 0.11(  0.68%)
                                           -0.0000  0.0221  0.2476 -0.0011 -0.0049
                                            0.0335  0.1405  0.0129 -0.0047 -0.0374
                                           -0.1554 -0.0176 -0.0048  0.0197  0.0865
                                            0.0050  0.0009  0.2102  0.0227 -0.0047
                                           -0.1757 -0.0207  0.0061  0.7732  0.0948
                                           -0.0097 -0.2183 -0.0276  0.0042  0.3785
                                            0.0438 -0.0043  0.0469 -0.0185  0.0266
                                           -0.0094  0.0164 -0.0065  0.0221 -0.0098
                                            0.0425 -0.0159 -0.0154  0.0053  0.0134
                                           -0.0034
    31. (0.00294) RY*( 8) O   1           s(  9.46%)p 2.46( 23.23%)d 7.01( 66.31%)
                                                  f 0.11(  1.01%)
                                            0.0000 -0.0039  0.3064  0.0262 -0.0036
                                            0.0303 -0.2307  0.0166 -0.0472  0.0232
                                           -0.3331 -0.0286 -0.0557 -0.0179  0.2421
                                            0.0327 -0.0139  0.2275  0.0607  0.0006
                                           -0.1517 -0.0380  0.0009 -0.4599 -0.0644
                                           -0.0369 -0.5869 -0.0768 -0.0579  0.1057
                                           -0.0195  0.0299 -0.0162  0.0145  0.0142
                                           -0.0060 -0.0403  0.0273 -0.0599  0.0316
                                            0.0088 -0.0113 -0.0247  0.0080  0.0373
                                           -0.0118
    32. (0.00226) RY*( 9) O   1           s( 44.53%)p 0.51( 22.64%)d 0.72( 32.14%)
                                                  f 0.02(  0.69%)
                                           -0.0000 -0.0064  0.6646  0.0266 -0.0527
                                           -0.0120  0.4373  0.0577 -0.0064 -0.0054
                                           -0.1334 -0.0327 -0.0693 -0.0012  0.0867
                                            0.0202  0.0042  0.1208  0.0514 -0.0091
                                           -0.0966 -0.0453  0.0113 -0.1102 -0.0451
                                           -0.0178  0.4007  0.1010  0.0606 -0.2998
                                           -0.1147 -0.0255 -0.0121  0.0083 -0.0287
                                            0.0396 -0.0242  0.0217 -0.0018  0.0090
                                            0.0136 -0.0027  0.0304 -0.0429 -0.0156
                                            0.0023
    33. (0.00065) RY*(10) O   1           s( 55.77%)p 0.54( 30.04%)d 0.12(  6.45%)
                                                  f 0.14(  7.74%)
                                           -0.0000 -0.0036 -0.0553  0.7429  0.0521
                                           -0.0015 -0.0341 -0.0408 -0.0419 -0.0042
                                            0.0212 -0.5044 -0.1703 -0.0058 -0.0217
                                            0.0947  0.0493 -0.0248 -0.0137 -0.0282
                                            0.0166  0.0816  0.0173  0.0482 -0.0114
                                            0.1268  0.0105  0.0053 -0.0156  0.0062
                                           -0.1777  0.0719  0.0696 -0.0452 -0.0544
                                            0.0136 -0.2425  0.0404 -0.0657 -0.0314
                                            0.0164  0.0110 -0.0196  0.0194  0.0116
                                            0.0179
    34. (0.00056) RY*(11) O   1           s(  0.08%)p87.16(  7.13%)d99.99( 73.30%)
                                                  f99.99( 19.48%)
                                            0.0000 -0.0025 -0.0118 -0.0037  0.0257
                                           -0.0000 -0.0018  0.2468 -0.0346  0.0115
                                            0.0403  0.0109  0.0258  0.0133  0.0295
                                            0.0632  0.0403 -0.0182  0.6335  0.0223
                                           -0.0219  0.5498  0.0286  0.0022  0.0541
                                            0.0083 -0.0010  0.0507 -0.0009 -0.0265
                                            0.1450 -0.0091  0.1250 -0.0200 -0.0587
                                           -0.0031  0.1162 -0.0106 -0.2673  0.0291
                                            0.0055  0.0069 -0.1232  0.0010 -0.2705
                                            0.0314
    35. (0.00057) RY*(12) O   1           s(  0.98%)p58.72( 57.49%)d37.60( 36.81%)
                                                  f 4.82(  4.72%)
                                            0.0000 -0.0029 -0.0416  0.0648  0.0621
                                           -0.0035 -0.0158  0.2984 -0.0569  0.0039
                                            0.0097  0.3710 -0.0508 -0.0009 -0.0574
                                            0.5818  0.0166  0.0136  0.0715  0.0145
                                            0.0264 -0.2310  0.0312 -0.0005  0.3195
                                            0.0553  0.0290 -0.2624 -0.0081  0.0158
                                           -0.3639 -0.0054 -0.0567 -0.0014  0.0497
                                            0.0041 -0.1412  0.0245 -0.0026 -0.0242
                                           -0.0399  0.0093 -0.0641  0.0197 -0.1185
                                            0.0127
    36. (0.00053) RY*(13) O   1           s(  0.42%)p99.99( 48.80%)d88.13( 36.91%)
                                                  f33.13( 13.88%)
                                           -0.0000 -0.0053 -0.0319 -0.0333  0.0451
                                           -0.0051 -0.0311  0.5309 -0.0491  0.0016
                                            0.0405 -0.3627 -0.0579 -0.0078 -0.0174
                                           -0.2480 -0.0655 -0.0045  0.2218 -0.0030
                                           -0.0021 -0.4474 -0.0435 -0.0200  0.2153
                                            0.0078  0.0120  0.0418  0.0079 -0.0183
                                            0.2602  0.0321 -0.2940  0.0060  0.0797
                                            0.0014  0.0302 -0.0083  0.1514 -0.0103
                                           -0.0930  0.0079 -0.1103  0.0036 -0.0321
                                            0.0042
    37. (0.00046) RY*(14) O   1           s(  1.35%)p13.16( 17.82%)d 2.82(  3.82%)
                                                  f56.89( 77.01%)
                                           -0.0000  0.0042 -0.0037  0.1155 -0.0124
                                            0.0042  0.0077 -0.3216 -0.0023  0.0047
                                            0.0054  0.1682  0.0003 -0.0071 -0.0080
                                           -0.2094 -0.0488  0.0236  0.1234  0.0336
                                           -0.0073 -0.0926 -0.0147  0.0260 -0.0549
                                            0.0305 -0.0326 -0.0069 -0.0186  0.0220
                                           -0.0763  0.0039 -0.5363 -0.0481 -0.1516
                                           -0.0186 -0.1382 -0.0125  0.0421 -0.0222
                                            0.2341  0.0148  0.0127  0.0021 -0.6161
                                           -0.0244
    38. (0.00045) RY*(15) O   1           s(  0.07%)p99.99( 13.50%)d99.99( 10.18%)
                                                  f99.99( 76.25%)
                                           -0.0000 -0.0013  0.0074  0.0221 -0.0123
                                            0.0012  0.0027 -0.0303  0.0083 -0.0007
                                           -0.0059 -0.0122  0.0417 -0.0020 -0.0090
                                            0.3491  0.1005  0.0112 -0.0751 -0.0095
                                            0.0089 -0.0406 -0.0183 -0.0108 -0.0608
                                           -0.0377  0.0070  0.1433  0.0370  0.0135
                                            0.2485  0.0688 -0.1547 -0.0083 -0.6238
                                           -0.0611  0.1525  0.0221  0.1217  0.0038
                                            0.1986  0.0163 -0.4815 -0.0507  0.1816
                                            0.0047
    39. (0.00044) RY*(16) O   1           s(  0.72%)p 5.06(  3.63%)d 6.70(  4.80%)
                                                  f99.99( 90.85%)
                                           -0.0000 -0.0001 -0.0071  0.0577  0.0616
                                            0.0023 -0.0100  0.1263  0.0101  0.0000
                                            0.0076  0.0292 -0.0107 -0.0018 -0.0079
                                           -0.1279 -0.0518 -0.0526  0.0834 -0.0481
                                            0.0464 -0.0816  0.0319 -0.0400 -0.0105
                                           -0.0154  0.0164 -0.1123 -0.0353 -0.0013
                                           -0.1000 -0.0089  0.2568  0.0332  0.1618
                                            0.0288  0.1612  0.0219  0.1479  0.0163
                                            0.8653  0.1067 -0.0230 -0.0055  0.0709
                                            0.0150
    40. (0.00044) RY*(17) O   1           s(  2.82%)p15.51( 43.72%)d 7.47( 21.07%)
                                                  f11.49( 32.39%)
                                           -0.0000  0.0015 -0.0278  0.0746  0.1478
                                           -0.0067 -0.0252  0.3475 -0.0615 -0.0109
                                           -0.0205  0.3198 -0.0388  0.0016  0.0071
                                           -0.4417 -0.1120 -0.0028 -0.0539 -0.0296
                                            0.0195  0.0149  0.0384  0.0880 -0.3358
                                            0.0338  0.0304 -0.0589 -0.0187  0.0285
                                           -0.2775 -0.0236 -0.0738 -0.0344 -0.2327
                                           -0.0224 -0.1963 -0.0165 -0.3116 -0.0439
                                           -0.0581  0.0152 -0.2387 -0.0184  0.2519
                                            0.0207
    41. (0.00042) RY*(18) O   1           s(  2.67%)p 5.02( 13.42%)d11.07( 29.61%)
[...]
                                           -0.0153  0.7159 -0.0667 -0.0145  0.1270
                                           -0.0227 -0.0016  0.6702 -0.0248 -0.0124
                                           -0.0024 -0.0002 -0.0378 -0.0200  0.0012
                                           -0.0048  0.0025 -0.0847  0.0001  0.0745
                                           -0.0194  0.0264 -0.0215
   129. (0.00420) RY*( 2) H   4           s( 21.23%)p 3.66( 77.60%)d 0.06(  1.17%)
                                            0.0091  0.4601  0.0081  0.0205 -0.1620
                                            0.0116 -0.0161 -0.4592 -0.0075 -0.0161
                                           -0.7217 -0.1287 -0.0278 -0.0359 -0.0013
                                           -0.0327  0.0209  0.0291 -0.0220 -0.0107
                                            0.0533  0.0502  0.0461
   130. (0.00343) RY*( 3) H   4           s(  7.68%)p11.87( 91.12%)d 0.16(  1.20%)
                                           -0.0226  0.2263  0.1560 -0.0262  0.8445
                                           -0.0019  0.0160 -0.3934  0.0093 -0.0107
                                            0.2059  0.0079 -0.0181 -0.0388  0.0096
                                           -0.0335 -0.0001  0.0154 -0.0142  0.0798
                                            0.0075 -0.0482  0.0104
   131. (0.00181) RY*( 4) H   4           s( 26.11%)p 2.78( 72.55%)d 0.05(  1.34%)
                                           -0.0088  0.4312  0.2665  0.0633 -0.4593
                                            0.0084 -0.0006 -0.3298  0.2288 -0.0211
                                            0.5791  0.0918 -0.0955  0.0544 -0.0300
                                            0.0615 -0.0056  0.0677 -0.0093  0.0015
                                            0.0272  0.0146  0.0091
   132. (0.00051) RY*( 5) H   4           s( 24.02%)p 2.47( 59.41%)d 0.69( 16.57%)
                                            0.0050 -0.1042  0.4787  0.0139  0.0913
                                            0.2690 -0.0313  0.1915  0.3449 -0.0029
                                           -0.2689  0.5131 -0.1457  0.0323 -0.0016
                                            0.1087 -0.0550  0.3456 -0.0260  0.0189
                                            0.0077  0.1710 -0.0078
   133. (0.00038) RY*( 6) H   4           s(  3.11%)p27.70( 86.26%)d 3.41( 10.63%)
                                           -0.0012 -0.0153 -0.0131  0.1753  0.0511
                                           -0.8602  0.0990  0.0290  0.2789 -0.0317
                                           -0.0652  0.1457  0.0708 -0.1050 -0.1266
                                           -0.0181  0.0683  0.1507 -0.0161 -0.2143
                                           -0.0434  0.0517 -0.0280
   134. (0.00029) RY*( 7) H   4           s( 12.94%)p 4.18( 54.09%)d 2.55( 32.97%)
                                            0.0005  0.0538  0.2864 -0.2109 -0.0130
                                           -0.0788  0.2185  0.0458 -0.2697  0.5905
                                           -0.0023 -0.2103  0.1378  0.2465  0.0819
                                            0.1038 -0.0775  0.3079 -0.1527 -0.2500
                                           -0.2416 -0.0776 -0.0223
   135. (0.00024) RY*( 8) H   4           s(  3.62%)p 5.28( 19.15%)d21.30( 77.22%)
                                           -0.0031  0.0386 -0.1188  0.1437  0.0310
                                            0.2463 -0.0889  0.0034  0.2359  0.2504
                                            0.0418  0.0057 -0.0433 -0.4587  0.1697
                                           -0.3222 -0.1772 -0.0879 -0.0016 -0.6145
                                           -0.0406 -0.0602 -0.0855
   136. (0.00019) RY*( 9) H   4           s(  3.58%)p 8.33( 29.82%)d18.60( 66.60%)
                                            0.0091  0.0009  0.1662 -0.0899 -0.0690
                                           -0.0546 -0.1369  0.0404 -0.4554 -0.2052
                                            0.0977 -0.0959  0.0429 -0.5254 -0.0826
                                           -0.2294 -0.0740  0.4884  0.0644  0.0803
                                            0.0691  0.2252  0.1429
   137. (0.00015) RY*(10) H   4           s( 17.19%)p 1.10( 18.85%)d 3.72( 63.96%)
                                           -0.0052 -0.0837  0.2984 -0.2753 -0.0890
                                           -0.1576 -0.0008  0.0281  0.0643  0.2211
                                           -0.0692  0.0175 -0.3112 -0.2609 -0.1837
                                           -0.3598 -0.0153 -0.3265 -0.2522  0.3668
                                           -0.0999 -0.2986 -0.0655
   138. (0.00015) RY*(11) H   4           s(  9.78%)p 5.77( 56.37%)d 3.46( 33.85%)
                                           -0.0114 -0.0970  0.2970  0.0027  0.0660
                                           -0.0156 -0.0132  0.1538  0.2108 -0.2207
                                           -0.0133 -0.5836 -0.3184  0.1263 -0.0965
                                            0.0626 -0.0411 -0.0477 -0.0724 -0.2638
                                            0.2559 -0.0021  0.4062
   139. (0.00010) RY*(12) H   4           s(  5.28%)p11.57( 61.04%)d 6.38( 33.68%)
                                           -0.0115 -0.0272  0.1835 -0.1350 -0.0060
                                            0.0724  0.0857  0.0484  0.4355  0.0400
                                           -0.0212 -0.3689  0.5174 -0.0582 -0.0504
                                           -0.1825 -0.0055 -0.0174  0.4256  0.2308
                                           -0.1006  0.1649 -0.1598
   140. (0.00009) RY*(13) H   4           s(  6.23%)p 6.20( 38.60%)d 8.86( 55.17%)
   141. (0.00009) RY*(14) H   4           s(  0.86%)p14.27( 12.30%)d99.99( 86.84%)
   142. (0.00007) RY*(15) H   4           s( 31.36%)p 0.68( 21.44%)d 1.51( 47.20%)
   143. (0.00008) RY*(16) H   4           s(  2.99%)p11.99( 35.86%)d20.46( 61.16%)
   144. (0.00007) RY*(17) H   4           s( 15.36%)p 0.15(  2.29%)d 5.36( 82.35%)
   145. (0.00004) RY*(18) H   4           s(  2.51%)p11.04( 27.68%)d27.85( 69.81%)
   146. (0.00005) RY*(19) H   4           s(  2.50%)p 8.61( 21.55%)d30.33( 75.95%)
   147. (0.00004) RY*(20) H   4           s( 43.01%)p 0.20(  8.70%)d 1.12( 48.29%)
   148. (0.00004) RY*(21) H   4           s(  5.72%)p 3.08( 17.60%)d13.41( 76.68%)
   149. (0.00002) RY*(22) H   4           s(  3.34%)p12.23( 40.78%)d16.75( 55.88%)
   150. (0.02147) BD*( 1) O   1 - H   2  
                ( 27.11%)   0.5206* O   1 s( 20.91%)p 3.76( 78.63%)d 0.02(  0.45%)
                                                  f 0.00(  0.01%)
                                           -0.0002 -0.4571  0.0068 -0.0029  0.0047
                                           -0.8841  0.0323 -0.0082  0.0007 -0.0516
                                            0.0122 -0.0012  0.0029  0.0259 -0.0102
                                            0.0010 -0.0016  0.0140 -0.0004 -0.0021
                                           -0.0153  0.0026 -0.0001  0.0047  0.0004
                                           -0.0017 -0.0545  0.0034 -0.0029  0.0329
                                           -0.0017  0.0010 -0.0000 -0.0003  0.0062
                                            0.0015  0.0003 -0.0001  0.0004  0.0001
                                            0.0058 -0.0018 -0.0057 -0.0023 -0.0012
                                            0.0001
                ( 72.89%)  -0.8538* H   2 s( 99.89%)p 0.00(  0.10%)d 0.00(  0.01%)
                                           -0.9995 -0.0036  0.0002 -0.0002  0.0013
                                           -0.0306  0.0041 -0.0030 -0.0004  0.0008
                                           -0.0006 -0.0017  0.0002 -0.0024  0.0019
                                           -0.0011 -0.0010  0.0022  0.0008 -0.0077
                                            0.0014  0.0043 -0.0007
   151. (0.03773) BD*( 1) O   1 - H   4  
                ( 23.58%)   0.4856* O   1 s( 23.35%)p 3.26( 76.18%)d 0.02(  0.45%)
                                                  f 0.00(  0.01%)
                                            0.0003  0.4832  0.0001  0.0005 -0.0009
                                           -0.1927  0.0186  0.0001 -0.0021 -0.6790
                                            0.0142 -0.0067  0.0021  0.5128 -0.0083
                                            0.0060 -0.0048 -0.0085  0.0049 -0.0025
                                            0.0057 -0.0035  0.0018 -0.0576  0.0029
                                            0.0021 -0.0321  0.0020 -0.0003  0.0024
                                           -0.0014  0.0018 -0.0087  0.0011  0.0003
                                           -0.0006 -0.0026 -0.0009 -0.0047 -0.0022
                                            0.0029  0.0007  0.0012  0.0012 -0.0030
                                            0.0033
                ( 76.42%)  -0.8742* H   4 s( 99.86%)p 0.00(  0.13%)d 0.00(  0.01%)
                                            0.9992  0.0139  0.0004 -0.0001  0.0196
                                           -0.0008 -0.0004  0.0038  0.0184  0.0064
                                            0.0169 -0.0148 -0.0060  0.0003 -0.0023
                                           -0.0006  0.0019 -0.0020 -0.0002  0.0071
                                           -0.0004 -0.0027 -0.0008


 NHO Directionality and "Bond Bending" (deviations from line of nuclear centers)

         [Thresholds for printing:  angular deviation  >  1.0 degree]
                                    hybrid p-character > 25.0%
                                    orbital occupancy  >  0.10e

                                Line of Centers        Hybrid 1              Hybrid 2
                                ---------------  -------------------   ------------------
                NBO               Theta   Phi    Theta   Phi    Dev    Theta   Phi    Dev
 ========================================================================================
     1. BD (   1) O   1 - H   2    90.0    0.0    91.0    2.5   2.7      --     --    --
     2. BD (   1) O   1 - H   4    55.0  258.3    53.8  255.3   2.8      --     --    --
    18. LP (   1) O   1             --     --    116.5  134.2   --       --     --    --
    19. LP (   2) O   1             --     --    143.6  270.0   --       --     --    --
    21. LP (   2)Br   3             --     --    136.3   12.4   --       --     --    --
    22. LP (   3)Br   3             --     --    125.5  151.1   --       --     --    --
    23. LP (   4)Br   3             --     --     67.9   77.5   --       --     --    --


 Natural Bond Orbitals (Summary):

           NBO                  Occupancy  
 -----------------------------------------------
 Molecular unit  1  (H2O)
     1. BD (   1) O   1 - H   2          1.96623
     2. BD (   1) O   1 - H   4          1.96674
     3. CR (   1) O   1                  1.99968
    18. LP (   1) O   1                  1.97068
    19. LP (   2) O   1                  1.96095
    24. RY*(   1) O   1                  0.02036
    25. RY*(   2) O   1                  0.01523
    26. RY*(   3) O   1                  0.00718
    27. RY*(   4) O   1                  0.00630
    28. RY*(   5) O   1                  0.00624
    29. RY*(   6) O   1                  0.00593
    30. RY*(   7) O   1                  0.00565
    31. RY*(   8) O   1                  0.00294
    32. RY*(   9) O   1                  0.00226
    33. RY*(  10) O   1                  0.00065
    34. RY*(  11) O   1                  0.00056
    35. RY*(  12) O   1                  0.00057
    36. RY*(  13) O   1                  0.00053
    37. RY*(  14) O   1                  0.00046
    38. RY*(  15) O   1                  0.00045
    39. RY*(  16) O   1                  0.00044
    40. RY*(  17) O   1                  0.00044
    41. RY*(  18) O   1                  0.00042
    42. RY*(  19) O   1                  0.00043
    43. RY*(  20) O   1                  0.00041
    44. RY*(  21) O   1                  0.00037
    45. RY*(  22) O   1                  0.00035
    46. RY*(  23) O   1                  0.00030
    47. RY*(  24) O   1                  0.00029
    48. RY*(  25) O   1                  0.00020
    49. RY*(  26) O   1                  0.00013
    50. RY*(  27) O   1                  0.00010
    51. RY*(  28) O   1                  0.00008
    52. RY*(  29) O   1                  0.00008
    53. RY*(  30) O   1                  0.00008
    54. RY*(  31) O   1                  0.00007
    55. RY*(  32) O   1                  0.00007
    56. RY*(  33) O   1                  0.00008
    57. RY*(  34) O   1                  0.00007
    58. RY*(  35) O   1                  0.00004
    59. RY*(  36) O   1                  0.00005
    60. RY*(  37) O   1                  0.00004
    61. RY*(  38) O   1                  0.00004
    62. RY*(  39) O   1                  0.00002
    63. RY*(  40) O   1                  0.00001
    64. RY*(  41) O   1                 -0.00003
    65. RY*(   1) H   2                  0.00195
    66. RY*(   2) H   2                  0.00166
    67. RY*(   3) H   2                  0.00082
    68. RY*(   4) H   2                  0.00050
    69. RY*(   5) H   2                  0.00029
    70. RY*(   6) H   2                  0.00018
    71. RY*(   7) H   2                  0.00012
    72. RY*(   8) H   2                  0.00011
    73. RY*(   9) H   2                  0.00010
    74. RY*(  10) H   2                  0.00010
    75. RY*(  11) H   2                  0.00008
    76. RY*(  12) H   2                  0.00005
    77. RY*(  13) H   2                  0.00006
    78. RY*(  14) H   2                  0.00004
    79. RY*(  15) H   2                  0.00003
    80. RY*(  16) H   2                  0.00003
    81. RY*(  17) H   2                  0.00003
    82. RY*(  18) H   2                  0.00003
    83. RY*(  19) H   2                  0.00002
    84. RY*(  20) H   2                  0.00002
    85. RY*(  21) H   2                  0.00001
    86. RY*(  22) H   2                  0.00001
   128. RY*(   1) H   4                  0.00651
   129. RY*(   2) H   4                  0.00420
   130. RY*(   3) H   4                  0.00343
   131. RY*(   4) H   4                  0.00181
   132. RY*(   5) H   4                  0.00051
   133. RY*(   6) H   4                  0.00038
   134. RY*(   7) H   4                  0.00029
   135. RY*(   8) H   4                  0.00024
   136. RY*(   9) H   4                  0.00019
   137. RY*(  10) H   4                  0.00015
   138. RY*(  11) H   4                  0.00015
   139. RY*(  12) H   4                  0.00010
   140. RY*(  13) H   4                  0.00009
   141. RY*(  14) H   4                  0.00009
   142. RY*(  15) H   4                  0.00007
   143. RY*(  16) H   4                  0.00008
   144. RY*(  17) H   4                  0.00007
   145. RY*(  18) H   4                  0.00004
   146. RY*(  19) H   4                  0.00005
   147. RY*(  20) H   4                  0.00004
   148. RY*(  21) H   4                  0.00004
   149. RY*(  22) H   4                  0.00002
   150. BD*(   1) O   1 - H   2          0.02147
   151. BD*(   1) O   1 - H   4          0.03773
       -------------------------------
              Total Lewis    9.86428  ( 98.3662%)
        Valence non-Lewis    0.05919  (  0.5903%)
        Rydberg non-Lewis    0.10465  (  1.0435%)
       -------------------------------
            Total unit  1   10.02812  (100.0000%)
           Charge unit  1   -0.02812

 Molecular unit  2  (Br)
     4. CR (   1)Br   3                  2.00003
     5. CR (   2)Br   3                  2.00000
     6. CR (   3)Br   3                  2.00000
     7. CR (   4)Br   3                  2.00002
     8. CR (   5)Br   3                  2.00000
     9. CR (   6)Br   3                  2.00001
    10. CR (   7)Br   3                  2.00000
    11. CR (   8)Br   3                  2.00002
    12. CR (   9)Br   3                  2.00000
    13. CR (  10)Br   3                  1.99768
    14. CR (  11)Br   3                  1.99769
    15. CR (  12)Br   3                  1.99768
    16. CR (  13)Br   3                  1.99767
    17. CR (  14)Br   3                  1.99769
    20. LP (   1)Br   3                  1.98076
    21. LP (   2)Br   3                  1.95406
    22. LP (   3)Br   3                  1.95389
    23. LP (   4)Br   3                  1.93530
    87. RY*(   1)Br   3                  0.01883
    88. RY*(   2)Br   3                  0.01880
    89. RY*(   3)Br   3                  0.01870
    90. RY*(   4)Br   3                  0.01870
    91. RY*(   5)Br   3                  0.01854
    92. RY*(   6)Br   3                  0.01221
    93. RY*(   7)Br   3                  0.01210
    94. RY*(   8)Br   3                  0.01095
    95. RY*(   9)Br   3                  0.00397
    96. RY*(  10)Br   3                  0.00181
    97. RY*(  11)Br   3                  0.00181
    98. RY*(  12)Br   3                  0.00178
    99. RY*(  13)Br   3                  0.00177
   100. RY*(  14)Br   3                  0.00177
   101. RY*(  15)Br   3                  0.00177
   102. RY*(  16)Br   3                  0.00178
   103. RY*(  17)Br   3                  0.00176
   104. RY*(  18)Br   3                  0.00176
   105. RY*(  19)Br   3                  0.00159
   106. RY*(  20)Br   3                  0.00157
   107. RY*(  21)Br   3                  0.00145
   108. RY*(  22)Br   3                  0.00083
   109. RY*(  23)Br   3                  0.00084
   110. RY*(  24)Br   3                  0.00080
   111. RY*(  25)Br   3                  0.00056
   112. RY*(  26)Br   3                  0.00025
   113. RY*(  27)Br   3                  0.00025
   114. RY*(  28)Br   3                  0.00025
   115. RY*(  29)Br   3                  0.00025
   116. RY*(  30)Br   3                  0.00025
   117. RY*(  31)Br   3                  0.00025
   118. RY*(  32)Br   3                  0.00025
   119. RY*(  33)Br   3                  0.00022
   120. RY*(  34)Br   3                  0.00022
   121. RY*(  35)Br   3                  0.00020
   122. RY*(  36)Br   3                  0.00017
   123. RY*(  37)Br   3                  0.00016
   124. RY*(  38)Br   3                  0.00009
   125. RY*(  39)Br   3                  0.00004
   126. RY*(  40)Br   3                  0.00004
   127. RY*(  41)Br   3                  0.00004
       -------------------------------
              Total Lewis   35.81251  ( 99.5570%)
        Valence non-Lewis    0.00000  (  0.0000%)
        Rydberg non-Lewis    0.15937  (  0.4430%)
       -------------------------------
            Total unit  2   35.97188  (100.0000%)
           Charge unit  2   -0.97188
 Leave Link  607 at Wed Oct 20 14:55:48 2021, MaxMem= 16106127360 cpu:              68.2 elap:               2.5
 (Enter /sw/contrib/gaussian/g16/B01/g16/l9999.exe)
 1\1\GINC-N2183\SP\RMP2-FC\Aug-CC-pVTZ\Br1H2O1(1-)\CGAVINH\20-Oct-2021\
 0\\#p pop=NBO SP NoSymm mp2/aug-cc-pvtz density=current\\title\\-1,1\O
 \X,1,10.\H,1,0.96048156,2,90.\Br,1,3.25083182,2,90.,3,101.65547111,0\H
 ,1,0.98806,2,55.,3,101.65547111,0\\Version=ES64L-G16RevB.01\HF=-2648.5
 987027\MP2=-2649.1161596\RMSD=6.904e-09\Dipole=0.6431682,0.443581,0.21
 74362\Quadrupole=11.3380286,-22.7393774,11.4013488,-6.5890296,-0.13256
 34,-0.2276498\PG=C01 [X(Br1H2O1)]\\@


 IBM COMPATIBILITY IS LIKE PREGNANCY. YOU ARE OR
 OR YOU ARE NOT. -- ADAM OSBORNE
 Job cpu time:       0 days  0 hours  4 minutes 24.3 seconds.
 Elapsed time:       0 days  0 hours  0 minutes 12.2 seconds.
 File lengths (MBytes):  RWF=     11 Int=      0 D2E=      0 Chk=      8 Scr=      1
 Normal termination of Gaussian 16 at Wed Oct 20 14:55:49 2021.
