 Entering Gaussian System, Link 0=g16
 Input=brhod_pp_oop_00_sp.gjf
 Output=brhod_pp_oop_00_sp.log
 Initial command:
 /sw/contrib/gaussian/g16/B01/g16/l1.exe "/scr/Gau-1142.inp" -scrdir="/scr/"
 Entering Link 1 = /sw/contrib/gaussian/g16/B01/g16/l1.exe PID=      1143.
  
 Copyright (c) 1988-2017, Gaussian, Inc.  All Rights Reserved.
  
 This is part of the Gaussian(R) 16 program.  It is based on
 the Gaussian(R) 09 system (copyright 2009, Gaussian, Inc.),
 the Gaussian(R) 03 system (copyright 2003, Gaussian, Inc.),
 the Gaussian(R) 98 system (copyright 1998, Gaussian, Inc.),
 the Gaussian(R) 94 system (copyright 1995, Gaussian, Inc.),
 the Gaussian 92(TM) system (copyright 1992, Gaussian, Inc.),
 the Gaussian 90(TM) system (copyright 1990, Gaussian, Inc.),
 the Gaussian 88(TM) system (copyright 1988, Gaussian, Inc.),
 the Gaussian 86(TM) system (copyright 1986, Carnegie Mellon
 University), and the Gaussian 82(TM) system (copyright 1983,
 Carnegie Mellon University). Gaussian is a federally registered
 trademark of Gaussian, Inc.
  
 This software contains proprietary and confidential information,
 including trade secrets, belonging to Gaussian, Inc.
  
 This software is provided under written license and may be
 used, copied, transmitted, or stored only in accord with that
 written license.
  
 The following legend is applicable only to US Government
 contracts under FAR:
  
                    RESTRICTED RIGHTS LEGEND
  
 Use, reproduction and disclosure by the US Government is
 subject to restrictions as set forth in subparagraphs (a)
 and (c) of the Commercial Computer Software - Restricted
 Rights clause in FAR 52.227-19.
  
 Gaussian, Inc.
 340 Quinnipiac St., Bldg. 40, Wallingford CT 06492
  
  
 ---------------------------------------------------------------
 Warning -- This program may not be used in any manner that
 competes with the business of Gaussian, Inc. or will provide
 assistance to any competitor of Gaussian, Inc.  The licensee
 of this program is prohibited from giving any competitor of
 Gaussian, Inc. access to this program.  By using this program,
 the user acknowledges that Gaussian, Inc. is engaged in the
 business of creating and licensing software in the field of
 computational chemistry and represents and warrants to the
 licensee that it is not a competitor of Gaussian, Inc. and that
 it will not use this program in any manner prohibited above.
 ---------------------------------------------------------------
  

 Cite this work as:
 Gaussian 16, Revision B.01,
 M. J. Frisch, G. W. Trucks, H. B. Schlegel, G. E. Scuseria, 
 M. A. Robb, J. R. Cheeseman, G. Scalmani, V. Barone, 
 G. A. Petersson, H. Nakatsuji, X. Li, M. Caricato, A. V. Marenich, 
 J. Bloino, B. G. Janesko, R. Gomperts, B. Mennucci, H. P. Hratchian, 
 J. V. Ortiz, A. F. Izmaylov, J. L. Sonnenberg, D. Williams-Young, 
 F. Ding, F. Lipparini, F. Egidi, J. Goings, B. Peng, A. Petrone, 
 T. Henderson, D. Ranasinghe, V. G. Zakrzewski, J. Gao, N. Rega, 
 G. Zheng, W. Liang, M. Hada, M. Ehara, K. Toyota, R. Fukuda, 
 J. Hasegawa, M. Ishida, T. Nakajima, Y. Honda, O. Kitao, H. Nakai, 
 T. Vreven, K. Throssell, J. A. Montgomery, Jr., J. E. Peralta, 
 F. Ogliaro, M. J. Bearpark, J. J. Heyd, E. N. Brothers, K. N. Kudin, 
 V. N. Staroverov, T. A. Keith, R. Kobayashi, J. Normand, 
 K. Raghavachari, A. P. Rendell, J. C. Burant, S. S. Iyengar, 
 J. Tomasi, M. Cossi, J. M. Millam, M. Klene, C. Adamo, R. Cammi, 
 J. W. Ochterski, R. L. Martin, K. Morokuma, O. Farkas, 
 J. B. Foresman, and D. J. Fox, Gaussian, Inc., Wallingford CT, 2016.
 
 ******************************************
 Gaussian 16:  ES64L-G16RevB.01 20-Dec-2017
                20-Oct-2021 
 ******************************************
 %nproc=28
 Will use up to   28 processors via shared memory.
 %mem=120GB
 %chk=/gscratch/ilahie/mccoygrp/coire_hocl/oop_s_rOH_opt/brhod_pp/brhod_pp_oop_00
 _sp.chk
 ----------------------------------------------------
 #p pop=NBO SP NoSymm mp2/aug-cc-pvtz density=current
 ----------------------------------------------------
 1/30=1,38=1,172=1/1;
 2/12=2,15=1,17=6,18=5,40=1/2;
 3/5=16,6=1,7=10,11=9,25=1,30=1,71=1/1,2,3;
 4//1;
 5/5=2,38=5/2;
 8/6=4,10=1/1;
 9/15=1,16=-3/6;
 10/5=1,13=10,31=1/2;
 6/7=2,8=2,9=2,10=2,22=-1,40=1/1,7;
 99/5=1,9=1/99;
 Leave Link    1 at Wed Oct 20 14:54:06 2021, MaxMem= 16106127360 cpu:               2.7 elap:               0.1
 (Enter /sw/contrib/gaussian/g16/B01/g16/l101.exe)
 -----
 title
 -----
 Symbolic Z-matrix:
 Charge = -1 Multiplicity = 1
 O
 X                    1     10. 
 H(iso=2)             1    r1       2     90. 
 Br                   1    r2       2     90.      3    a1       0
 H                    1    r3       2    oop      3    a1       0
       Variables:
  r1                    0.96048                  
  r2                    3.25083                  
  r3                    0.98806                  
  a1                  101.65547                  
  OOP                  90.                       
 
 ITRead=  0  0  0  0
 MicOpt= -1 -1 -1 -1
 NAtoms=      4 NQM=        4 NQMF=       0 NMMI=      0 NMMIF=      0
                NMic=       0 NMicF=      0.
                    Isotopes and Nuclear Properties:
 (Nuclear quadrupole moments (NQMom) in fm**2, nuclear magnetic moments (NMagM)
  in nuclear magnetons)

  Atom         1           2           3           4
 IAtWgt=          16           2          79           1
 AtmWgt=  15.9949146   2.0141018  78.9183361   1.0078250
 NucSpn=           0           2           3           1
 AtZEff=  -0.0000000  -0.0000000  -0.0000000  -0.0000000
 NQMom=    0.0000000   0.2860000  31.3000000   0.0000000
 NMagM=    0.0000000   0.8574380   2.1063990   2.7928460
 AtZNuc=   8.0000000   1.0000000  35.0000000   1.0000000
 Leave Link  101 at Wed Oct 20 14:54:06 2021, MaxMem= 16106127360 cpu:               3.2 elap:               0.1
 (Enter /sw/contrib/gaussian/g16/B01/g16/l202.exe)
                          Input orientation:                          
 ---------------------------------------------------------------------
 Center     Atomic      Atomic             Coordinates (Angstroms)
 Number     Number       Type             X           Y           Z
 ---------------------------------------------------------------------
      1          8           0        0.000000    0.000000    0.000000
      2          1           0        0.960482    0.000000    0.000000
      3         35           0       -0.656753   -3.183800    0.000000
      4          1           0       -0.199614   -0.967686    0.000000
 ---------------------------------------------------------------------
                    Distance matrix (angstroms):
                    1          2          3          4
     1  O    0.000000
     2  H    0.960482   0.000000
     3  Br   3.250832   3.570999   0.000000
     4  H    0.988060   1.510708   2.262772   0.000000
 Symmetry turned off by external request.
 Stoichiometry    BrH2O(1-)
 Framework group  CS[SG(BrH2O)]
 Deg. of freedom     5
 Full point group                 CS      NOp   2
 Rotational constants (GHZ):         322.8787311           3.1583930           3.1277970
 Leave Link  202 at Wed Oct 20 14:54:06 2021, MaxMem= 16106127360 cpu:               0.4 elap:               0.0
 (Enter /sw/contrib/gaussian/g16/B01/g16/l301.exe)
 Standard basis: Aug-CC-pVTZ (5D, 7F)
 Ernie: Thresh=  0.10000D-02 Tol=  0.10000D-05 Strict=F.
 Ernie:  35 primitive shells out of 175 were deleted.
   151 basis functions,   343 primitive gaussians,   174 cartesian basis functions
    23 alpha electrons       23 beta electrons
       nuclear repulsion energy        67.9931897176 Hartrees.
 IExCor=    0 DFT=F Ex=HF Corr=None ExCW=0 ScaHFX=  1.000000
 ScaDFX=  1.000000  1.000000  1.000000  1.000000 ScalE2=  1.000000  1.000000
 IRadAn=      5 IRanWt=     -1 IRanGd=            0 ICorTp=0 IEmpDi=  4
 NAtoms=    4 NActive=    4 NUniq=    4 SFac= 1.00D+00 NAtFMM=   60 NAOKFM=F Big=F
 Integral buffers will be    131072 words long.
 Raffenetti 1 integral format.
 Two-electron integral symmetry is turned off.
 Leave Link  301 at Wed Oct 20 14:54:06 2021, MaxMem= 16106127360 cpu:               2.0 elap:               0.1
 (Enter /sw/contrib/gaussian/g16/B01/g16/l302.exe)
 NPDir=0 NMtPBC=     1 NCelOv=     1 NCel=       1 NClECP=     1 NCelD=      1
         NCelK=      1 NCelE2=     1 NClLst=     1 CellRange=     0.0.
 One-electron integrals computed using PRISM.
 NBasis=   151 RedAO= T EigKep=  2.92D-04  NBF=   151
 NBsUse=   151 1.00D-06 EigRej= -1.00D+00 NBFU=   151
 Leave Link  302 at Wed Oct 20 14:54:07 2021, MaxMem= 16106127360 cpu:               4.6 elap:               0.2
 (Enter /sw/contrib/gaussian/g16/B01/g16/l303.exe)
 DipDrv:  MaxL=1.
 Leave Link  303 at Wed Oct 20 14:54:07 2021, MaxMem= 16106127360 cpu:               1.0 elap:               0.1
 (Enter /sw/contrib/gaussian/g16/B01/g16/l401.exe)
 ExpMin= 2.53D-02 ExpMax= 1.06D+07 ExpMxC= 1.21D+04 IAcc=3 IRadAn=         5 AccDes= 0.00D+00
 Harris functional with IExCor=  205 and IRadAn=       5 diagonalized for initial guess.
 HarFok:  IExCor=  205 AccDes= 0.00D+00 IRadAn=         5 IDoV= 1 UseB2=F ITyADJ=14
 ICtDFT=  3500011 ScaDFX=  1.000000  1.000000  1.000000  1.000000
 FoFCou: FMM=F IPFlag=           0 FMFlag=      100000 FMFlg1=           0
         NFxFlg=           0 DoJE=T BraDBF=F KetDBF=T FulRan=T
         wScrn=  0.000000 ICntrl=       500 IOpCl=  0 I1Cent=   200000004 NGrid=           0
         NMat0=    1 NMatS0=      1 NMatT0=    0 NMatD0=    1 NMtDS0=    0 NMtDT0=    0
 Symmetry not used in FoFCou.
 Harris En= -2648.01667445109    
 JPrj=0 DoOrth=F DoCkMO=F.
 Leave Link  401 at Wed Oct 20 14:54:07 2021, MaxMem= 16106127360 cpu:               7.6 elap:               0.4
 (Enter /sw/contrib/gaussian/g16/B01/g16/l502.exe)
 Keep R1 ints in memory in canonical form, NReq=88257241.
 FoFCou: FMM=F IPFlag=           0 FMFlag=           0 FMFlg1=           0
         NFxFlg=           0 DoJE=F BraDBF=F KetDBF=F FulRan=T
         wScrn=  0.000000 ICntrl=       600 IOpCl=  0 I1Cent=           0 NGrid=           0
         NMat0=    1 NMatS0=  11476 NMatT0=    0 NMatD0=    1 NMtDS0=    0 NMtDT0=    0
 Symmetry not used in FoFCou.
 Two-electron integral symmetry not used.
 Closed shell SCF:
 Using DIIS extrapolation, IDIIS=  1040.
 NGot= 16106127360 LenX= 16040205766 LenY= 16040175049
 Requested convergence on RMS density matrix=1.00D-08 within 128 cycles.
 Requested convergence on MAX density matrix=1.00D-06.
 Requested convergence on             energy=1.00D-06.
 No special actions if energy rises.

 Cycle   1  Pass 1  IDiag  1:
 E= -2648.44092770176    
 DIIS: error= 7.50D-02 at cycle   1 NSaved=   1.
 NSaved= 1 IEnMin= 1 EnMin= -2648.44092770176     IErMin= 1 ErrMin= 7.50D-02
 ErrMax= 7.50D-02  0.00D+00 EMaxC= 1.00D-01 BMatC= 5.45D-01 BMatP= 5.45D-01
 IDIUse=3 WtCom= 2.50D-01 WtEn= 7.50D-01
 Coeff-Com:  0.100D+01
 Coeff-En:   0.100D+01
 Coeff:      0.100D+01
 Gap=     0.388 Goal=   None    Shift=    0.000
 GapD=    0.388 DampG=1.000 DampE=0.500 DampFc=0.5000 IDamp=-1.
 Damping current iteration by 5.00D-01
 RMSDP=3.21D-03 MaxDP=9.63D-02              OVMax= 1.25D-01

 Cycle   2  Pass 1  IDiag  1:
 E= -2648.52802286614     Delta-E=       -0.087095164376 Rises=F Damp=T
 DIIS: error= 3.51D-02 at cycle   2 NSaved=   2.
 NSaved= 2 IEnMin= 2 EnMin= -2648.52802286614     IErMin= 2 ErrMin= 3.51D-02
 ErrMax= 3.51D-02  0.00D+00 EMaxC= 1.00D-01 BMatC= 1.02D-01 BMatP= 5.45D-01
 IDIUse=3 WtCom= 6.49D-01 WtEn= 3.51D-01
 Coeff-Com: -0.599D+00 0.160D+01
 Coeff-En:   0.000D+00 0.100D+01
 Coeff:     -0.389D+00 0.139D+01
 Gap=     0.282 Goal=   None    Shift=    0.000
 RMSDP=1.30D-03 MaxDP=3.46D-02 DE=-8.71D-02 OVMax= 6.09D-02

 Cycle   3  Pass 1  IDiag  1:
 E= -2648.60578297640     Delta-E=       -0.077760110261 Rises=F Damp=F
 DIIS: error= 3.44D-03 at cycle   3 NSaved=   3.
 NSaved= 3 IEnMin= 3 EnMin= -2648.60578297640     IErMin= 3 ErrMin= 3.44D-03
 ErrMax= 3.44D-03  0.00D+00 EMaxC= 1.00D-01 BMatC= 1.97D-03 BMatP= 1.02D-01
 IDIUse=3 WtCom= 9.66D-01 WtEn= 3.44D-02
 Coeff-Com: -0.136D+00 0.293D+00 0.842D+00
 Coeff-En:   0.000D+00 0.000D+00 0.100D+01
 Coeff:     -0.131D+00 0.283D+00 0.848D+00
 Gap=     0.298 Goal=   None    Shift=    0.000
 RMSDP=2.64D-04 MaxDP=7.75D-03 DE=-7.78D-02 OVMax= 1.04D-02

 Cycle   4  Pass 1  IDiag  1:
 E= -2648.60707430334     Delta-E=       -0.001291326940 Rises=F Damp=F
 DIIS: error= 4.22D-04 at cycle   4 NSaved=   4.
 NSaved= 4 IEnMin= 4 EnMin= -2648.60707430334     IErMin= 4 ErrMin= 4.22D-04
 ErrMax= 4.22D-04  0.00D+00 EMaxC= 1.00D-01 BMatC= 3.11D-05 BMatP= 1.97D-03
 IDIUse=3 WtCom= 9.96D-01 WtEn= 4.22D-03
 Coeff-Com:  0.171D-01-0.406D-01 0.566D-02 0.102D+01
 Coeff-En:   0.000D+00 0.000D+00 0.000D+00 0.100D+01
 Coeff:      0.170D-01-0.404D-01 0.564D-02 0.102D+01
 Gap=     0.296 Goal=   None    Shift=    0.000
 RMSDP=4.29D-05 MaxDP=1.25D-03 DE=-1.29D-03 OVMax= 1.83D-03

 Cycle   5  Pass 1  IDiag  1:
 E= -2648.60711440146     Delta-E=       -0.000040098119 Rises=F Damp=F
 DIIS: error= 1.45D-04 at cycle   5 NSaved=   5.
 NSaved= 5 IEnMin= 5 EnMin= -2648.60711440146     IErMin= 5 ErrMin= 1.45D-04
 ErrMax= 1.45D-04  0.00D+00 EMaxC= 1.00D-01 BMatC= 1.56D-06 BMatP= 3.11D-05
 IDIUse=3 WtCom= 9.99D-01 WtEn= 1.45D-03
 Coeff-Com: -0.222D-02 0.641D-02-0.258D-01-0.371D+00 0.139D+01
 Coeff-En:   0.000D+00 0.000D+00 0.000D+00 0.000D+00 0.100D+01
 Coeff:     -0.222D-02 0.640D-02-0.258D-01-0.370D+00 0.139D+01
 Gap=     0.297 Goal=   None    Shift=    0.000
 RMSDP=1.88D-05 MaxDP=5.06D-04 DE=-4.01D-05 OVMax= 8.91D-04

 Cycle   6  Pass 1  IDiag  1:
 E= -2648.60711915349     Delta-E=       -0.000004752034 Rises=F Damp=F
 DIIS: error= 3.03D-05 at cycle   6 NSaved=   6.
 NSaved= 6 IEnMin= 6 EnMin= -2648.60711915349     IErMin= 6 ErrMin= 3.03D-05
 ErrMax= 3.03D-05  0.00D+00 EMaxC= 1.00D-01 BMatC= 6.15D-08 BMatP= 1.56D-06
 IDIUse=1 WtCom= 1.00D+00 WtEn= 0.00D+00
 Coeff-Com: -0.399D-03 0.735D-03 0.384D-02 0.190D-01-0.225D+00 0.120D+01
 Coeff:     -0.399D-03 0.735D-03 0.384D-02 0.190D-01-0.225D+00 0.120D+01
 Gap=     0.297 Goal=   None    Shift=    0.000
 RMSDP=3.19D-06 MaxDP=8.66D-05 DE=-4.75D-06 OVMax= 1.95D-04

 Cycle   7  Pass 1  IDiag  1:
 E= -2648.60711934091     Delta-E=       -0.000000187419 Rises=F Damp=F
 DIIS: error= 6.98D-06 at cycle   7 NSaved=   7.
 NSaved= 7 IEnMin= 7 EnMin= -2648.60711934091     IErMin= 7 ErrMin= 6.98D-06
 ErrMax= 6.98D-06  0.00D+00 EMaxC= 1.00D-01 BMatC= 5.99D-09 BMatP= 6.15D-08
 IDIUse=1 WtCom= 1.00D+00 WtEn= 0.00D+00
 Coeff-Com: -0.399D-04-0.745D-04 0.267D-02 0.247D-01-0.123D+00 0.137D+00
 Coeff-Com:  0.959D+00
 Coeff:     -0.399D-04-0.745D-04 0.267D-02 0.247D-01-0.123D+00 0.137D+00
 Coeff:      0.959D+00
 Gap=     0.297 Goal=   None    Shift=    0.000
 RMSDP=7.25D-07 MaxDP=1.89D-05 DE=-1.87D-07 OVMax= 5.01D-05

 Cycle   8  Pass 1  IDiag  1:
 E= -2648.60711935312     Delta-E=       -0.000000012216 Rises=F Damp=F
 DIIS: error= 1.61D-06 at cycle   8 NSaved=   8.
 NSaved= 8 IEnMin= 8 EnMin= -2648.60711935312     IErMin= 8 ErrMin= 1.61D-06
 ErrMax= 1.61D-06  0.00D+00 EMaxC= 1.00D-01 BMatC= 4.07D-10 BMatP= 5.99D-09
 IDIUse=1 WtCom= 1.00D+00 WtEn= 0.00D+00
 Coeff-Com:  0.848D-04-0.159D-03-0.535D-03-0.356D-03 0.194D-01-0.100D+00
 Coeff-Com: -0.691D-01 0.115D+01
 Coeff:      0.848D-04-0.159D-03-0.535D-03-0.356D-03 0.194D-01-0.100D+00
 Coeff:     -0.691D-01 0.115D+01
 Gap=     0.297 Goal=   None    Shift=    0.000
 RMSDP=2.90D-07 MaxDP=7.87D-06 DE=-1.22D-08 OVMax= 1.62D-05

 Cycle   9  Pass 1  IDiag  1:
 E= -2648.60711935408     Delta-E=       -0.000000000960 Rises=F Damp=F
 DIIS: error= 3.97D-07 at cycle   9 NSaved=   9.
 NSaved= 9 IEnMin= 9 EnMin= -2648.60711935408     IErMin= 9 ErrMin= 3.97D-07
 ErrMax= 3.97D-07  0.00D+00 EMaxC= 1.00D-01 BMatC= 2.45D-11 BMatP= 4.07D-10
 IDIUse=1 WtCom= 1.00D+00 WtEn= 0.00D+00
 Coeff-Com: -0.136D-04 0.357D-04-0.109D-03-0.178D-02 0.681D-02-0.329D-02
 Coeff-Com: -0.510D-01-0.910D-02 0.106D+01
 Coeff:     -0.136D-04 0.357D-04-0.109D-03-0.178D-02 0.681D-02-0.329D-02
 Coeff:     -0.510D-01-0.910D-02 0.106D+01
 Gap=     0.297 Goal=   None    Shift=    0.000
 RMSDP=5.20D-08 MaxDP=9.68D-07 DE=-9.60D-10 OVMax= 2.98D-06

 Cycle  10  Pass 1  IDiag  1:
 E= -2648.60711935413     Delta-E=       -0.000000000041 Rises=F Damp=F
 DIIS: error= 1.08D-07 at cycle  10 NSaved=  10.
 NSaved=10 IEnMin=10 EnMin= -2648.60711935413     IErMin=10 ErrMin= 1.08D-07
 ErrMax= 1.08D-07  0.00D+00 EMaxC= 1.00D-01 BMatC= 2.75D-12 BMatP= 2.45D-11
 IDIUse=1 WtCom= 1.00D+00 WtEn= 0.00D+00
 Coeff-Com: -0.597D-05 0.108D-04 0.463D-04 0.116D-03-0.198D-02 0.984D-02
 Coeff-Com:  0.680D-02-0.125D+00 0.660D-01 0.104D+01
 Coeff:     -0.597D-05 0.108D-04 0.463D-04 0.116D-03-0.198D-02 0.984D-02
 Coeff:      0.680D-02-0.125D+00 0.660D-01 0.104D+01
 Gap=     0.297 Goal=   None    Shift=    0.000
 RMSDP=1.47D-08 MaxDP=2.52D-07 DE=-4.14D-11 OVMax= 1.15D-06

 Cycle  11  Pass 1  IDiag  1:
 E= -2648.60711935413     Delta-E=       -0.000000000008 Rises=F Damp=F
 DIIS: error= 2.26D-08 at cycle  11 NSaved=  11.
 NSaved=11 IEnMin=11 EnMin= -2648.60711935413     IErMin=11 ErrMin= 2.26D-08
 ErrMax= 2.26D-08  0.00D+00 EMaxC= 1.00D-01 BMatC= 1.14D-13 BMatP= 2.75D-12
 IDIUse=1 WtCom= 1.00D+00 WtEn= 0.00D+00
 Coeff-Com:  0.136D-05-0.299D-05-0.357D-06 0.612D-04-0.306D-04-0.128D-02
 Coeff-Com:  0.149D-02 0.183D-01-0.758D-01-0.145D+00 0.120D+01
 Coeff:      0.136D-05-0.299D-05-0.357D-06 0.612D-04-0.306D-04-0.128D-02
 Coeff:      0.149D-02 0.183D-01-0.758D-01-0.145D+00 0.120D+01
 Gap=     0.297 Goal=   None    Shift=    0.000
 RMSDP=6.82D-09 MaxDP=2.38D-07 DE=-7.73D-12 OVMax= 3.06D-07

 SCF Done:  E(RHF) =  -2648.60711935     A.U. after   11 cycles
            NFock= 11  Conv=0.68D-08     -V/T= 2.0000
 KE= 2.648517263540D+03 PE=-6.483899248515D+03 EE= 1.118781675903D+03
 Leave Link  502 at Wed Oct 20 14:54:09 2021, MaxMem= 16106127360 cpu:              35.0 elap:               2.3
 (Enter /sw/contrib/gaussian/g16/B01/g16/l801.exe)
 ExpMin= 2.53D-02 ExpMax= 1.06D+07 ExpMxC= 1.21D+04 IAcc=3 IRadAn=         5 AccDes= 0.00D+00
 HarFok:  IExCor=  205 AccDes= 0.00D+00 IRadAn=         5 IDoV=-2 UseB2=F ITyADJ=14
 ICtDFT= 12500011 ScaDFX=  1.000000  1.000000  1.000000  1.000000
 Largest valence mixing into a core orbital is  1.27D-04
 Largest core mixing into a valence orbital is  3.62D-05
 Range of M.O.s used for correlation:    11   151
 NBasis=   151 NAE=    23 NBE=    23 NFC=    10 NFV=     0
 NROrb=    141 NOA=    13 NOB=    13 NVA=   128 NVB=   128

 **** Warning!!: The largest alpha MO coefficient is  0.14740979D+02

 Leave Link  801 at Wed Oct 20 14:54:09 2021, MaxMem= 16106127360 cpu:               2.3 elap:               0.1
 (Enter /sw/contrib/gaussian/g16/B01/g16/l906.exe)
 Frozen-core derivative calculation, NFC=  10 NFV=   0.
 FulOut=F Deriv=T AODrv=F NAtomX=     4
   MMem=         214  MDisk=          13 MDiskD=          13
  W3Min=      604302 MinDsk=     1007783 NBas6D=         174
 NBas2D=       15618    NTT=       15225    LW2=     9911920
    MDV= 16105777001 MDiskM=      462752 NBas2p=       15367
 Fully in-core method, ICMem=   275550978.
 IMap=   1   2   3   4   5   6   7   8   9  10  11  12  13  14  15  16  17  18  19  20
 IMap=  21  22  23
 JobTyp=1 Pass  1 fully in-core, NPsUse= 28.
 Compute canonical integrals.
 FoFCou: FMM=F IPFlag=           0 FMFlag=           0 FMFlg1=           0
         NFxFlg=           0 DoJE=F BraDBF=F KetDBF=F FulRan=T
         wScrn=  0.000000 ICntrl=       600 IOpCl=  1 I1Cent=           0 NGrid=           0
         NMat0=    1 NMatS0=  15618 NMatT0=    0 NMatD0=    1 NMtDS0=    0 NMtDT0=    0
 Symmetry not used in FoFCou.
 Spin components of T(2) and E(2):
     alpha-alpha T2 =       0.2057418221D-01 E2=     -0.6997288737D-01
     alpha-beta  T2 =       0.1089752621D+00 E2=     -0.3791185874D+00
     beta-beta   T2 =       0.2057418221D-01 E2=     -0.6997288737D-01
 The integrals were generated   1 times.
 ANorm=    0.1072438169D+01
 E2 =    -0.5190643621D+00 EUMP2 =    -0.26491261837162D+04
 Leave Link  906 at Wed Oct 20 14:54:13 2021, MaxMem= 16106127360 cpu:             107.1 elap:               3.9
 (Enter /sw/contrib/gaussian/g16/B01/g16/l1002.exe)
 Minotr:  Closed shell wavefunction.
          Computing MP2/KS-MP2 derivatives.
          Using Z-Vector for PSCF gradient.
          Skipping F1 and S1 gradient terms here.
          Frozen-core window.
          Direct CPHF calculation.
          Differentiating once with respect to electric field.
                with respect to dipole field.
          Electric field/nuclear overlap derivatives assumed to be zero.
          Requested convergence is 1.0D-10 RMS, and 1.0D-09 maximum.
          NewPWx=F KeepS1=T KeepF1=T KeepIn=T MapXYZ=F SortEE=F KeepMc=T.
 Keep R1 ints in memory in canonical form, NReq=88260045.
 FoFCou: FMM=F IPFlag=           0 FMFlag=           0 FMFlg1=           0
         NFxFlg=           0 DoJE=F BraDBF=F KetDBF=F FulRan=T
         wScrn=  0.000000 ICntrl=       600 IOpCl=  0 I1Cent=           0 NGrid=           0
         NMat0=    1 NMatS0=  11476 NMatT0=    0 NMatD0=    1 NMtDS0=    0 NMtDT0=    0
 Symmetry not used in FoFCou.
 Two-electron integral symmetry not used.
          MDV=   16106127360 using IRadAn=       5.
          Solving linear equations separately, MaxMat=       0.
          There are     1 degrees of freedom in the 1st order CPHF.  IDoFFX=0 NUNeed=     1.
 LinEq1:  Iter=  0 NonCon=     1 RMS=2.40D-03 Max=4.90D-02 NDo=     1
 AX will form     1 AO Fock derivatives at one time.
 LinEq1:  Iter=  1 NonCon=     1 RMS=3.98D-04 Max=5.16D-03 NDo=     1
 LinEq1:  Iter=  2 NonCon=     1 RMS=1.87D-04 Max=2.33D-03 NDo=     1
 LinEq1:  Iter=  3 NonCon=     1 RMS=5.22D-05 Max=1.01D-03 NDo=     1
 LinEq1:  Iter=  4 NonCon=     1 RMS=1.04D-05 Max=1.30D-04 NDo=     1
 LinEq1:  Iter=  5 NonCon=     1 RMS=4.56D-06 Max=6.57D-05 NDo=     1
 LinEq1:  Iter=  6 NonCon=     1 RMS=9.01D-07 Max=1.96D-05 NDo=     1
 LinEq1:  Iter=  7 NonCon=     1 RMS=2.03D-07 Max=3.34D-06 NDo=     1
 LinEq1:  Iter=  8 NonCon=     1 RMS=5.75D-08 Max=9.19D-07 NDo=     1
 LinEq1:  Iter=  9 NonCon=     1 RMS=7.33D-09 Max=1.38D-07 NDo=     1
 LinEq1:  Iter= 10 NonCon=     1 RMS=9.15D-10 Max=1.18D-08 NDo=     1
 LinEq1:  Iter= 11 NonCon=     1 RMS=2.65D-10 Max=5.26D-09 NDo=     1
 LinEq1:  Iter= 12 NonCon=     0 RMS=5.20D-11 Max=7.04D-10 NDo=     1
 Linear equations converged to 1.000D-10 1.000D-09 after    12 iterations.
 End of Minotr F.D. properties file   721 does not exist.
 End of Minotr F.D. properties file   722 does not exist.
 End of Minotr F.D. properties file   788 does not exist.
 Leave Link 1002 at Wed Oct 20 14:54:16 2021, MaxMem= 16106127360 cpu:              42.5 elap:               2.8
 (Enter /sw/contrib/gaussian/g16/B01/g16/l601.exe)
 Copying SCF densities to generalized density rwf, IOpCl= 0 IROHF=0.

 **********************************************************************

            Population analysis using the MP2 Density.

 **********************************************************************

 Alpha  occ. eigenvalues -- -489.74069 -64.88095 -58.23543 -58.23542 -58.23542
 Alpha  occ. eigenvalues --  -20.38804  -9.55341  -7.16098  -7.16075  -7.16072
 Alpha  occ. eigenvalues --   -2.90263  -2.90255  -2.90250  -2.90228  -2.90227
 Alpha  occ. eigenvalues --   -1.16933  -0.71240  -0.52646  -0.41547  -0.33283
 Alpha  occ. eigenvalues --   -0.16662  -0.16131  -0.16088
 Alpha virt. eigenvalues --    0.13598   0.17396   0.23364   0.24171   0.24847
 Alpha virt. eigenvalues --    0.27538   0.29621   0.29921   0.33887   0.34909
 Alpha virt. eigenvalues --    0.39894   0.41088   0.41678   0.46423   0.48136
 Alpha virt. eigenvalues --    0.48555   0.51857   0.53520   0.57437   0.59861
 Alpha virt. eigenvalues --    0.61604   0.63491   0.70792   0.73775   0.75178
 Alpha virt. eigenvalues --    0.75680   0.82443   0.87639   0.88574   0.88578
 Alpha virt. eigenvalues --    0.90351   0.96163   0.99260   1.01136   1.01559
 Alpha virt. eigenvalues --    1.02017   1.03561   1.04683   1.07632   1.09541
 Alpha virt. eigenvalues --    1.09632   1.10997   1.16655   1.17713   1.17965
 Alpha virt. eigenvalues --    1.19316   1.19321   1.22976   1.22985   1.25591
 Alpha virt. eigenvalues --    1.33360   1.36854   1.41935   1.45134   1.46998
 Alpha virt. eigenvalues --    1.52581   1.63620   1.64281   1.69010   1.69876
 Alpha virt. eigenvalues --    1.77817   1.81991   2.05739   2.07287   2.18872
 Alpha virt. eigenvalues --    2.41191   2.41208   2.42784   2.44656   2.49849
 Alpha virt. eigenvalues --    2.53083   2.54624   2.55422   2.55829   2.56295
 Alpha virt. eigenvalues --    2.56386   2.57335   2.59150   2.62125   2.62788
 Alpha virt. eigenvalues --    2.66049   2.66558   2.67734   2.70308   2.74581
 Alpha virt. eigenvalues --    2.76500   2.81510   2.91891   2.92915   2.99784
 Alpha virt. eigenvalues --    3.11663   3.13514   3.14416   3.87132   4.12818
 Alpha virt. eigenvalues --    4.22568   4.33425   4.35270   4.44155   4.44793
 Alpha virt. eigenvalues --    4.55697   4.57241   4.62959   4.71853   4.79859
 Alpha virt. eigenvalues --    4.98197   5.14387   5.29075   5.37641   5.46242
 Alpha virt. eigenvalues --    5.51357   5.67796   5.83785   6.39444   6.70496
 Alpha virt. eigenvalues --    6.89822   7.10726   7.28776   7.43619   7.44519
 Alpha virt. eigenvalues --    7.47510   7.55061   7.61299   7.81381   8.07839
 Alpha virt. eigenvalues --    8.12658   8.96201  16.27029
          Condensed to atoms (all electrons):
               1          2          3          4
     1  O    8.264629   0.212476  -0.064337   0.125092
     2  H    0.212476   0.607712   0.004353   0.008301
     3  Br  -0.064337   0.004353  35.950994   0.029988
     4  H    0.125092   0.008301   0.029988   0.544918
 Mulliken charges:
               1
     1  O   -0.537859
     2  H    0.167157
     3  Br  -0.920998
     4  H    0.291700
 Sum of Mulliken charges =  -1.00000
 Mulliken charges with hydrogens summed into heavy atoms:
               1
     1  O   -0.079002
     3  Br  -0.920998
 Electronic spatial extent (au):  <R**2>=           1429.0628
 Charge=             -1.0000 electrons
 Dipole moment (field-independent basis, Debye):
    X=              3.8534    Y=             12.3538    Z=             -0.0000  Tot=             12.9408
 Quadrupole moment (field-independent basis, Debye-Ang):
   XX=            -30.8268   YY=            -73.9116   ZZ=            -31.6860
   XY=             -8.2694   XZ=              0.0000   YZ=              0.0000
 Traceless Quadrupole moment (field-independent basis, Debye-Ang):
   XX=             14.6480   YY=            -28.4368   ZZ=             13.7888
   XY=             -8.2694   XZ=              0.0000   YZ=              0.0000
 Octapole moment (field-independent basis, Debye-Ang**2):
  XXX=             47.3834  YYY=            363.9236  ZZZ=             -0.0000  XYY=             42.3056
  XXY=             80.9216  XXZ=             -0.0000  XZZ=             14.7767  YZZ=             75.3445
  YYZ=             -0.0000  XYZ=             -0.0000
 Hexadecapole moment (field-independent basis, Debye-Ang**3):
 XXXX=           -109.9171 YYYY=          -1913.5927 ZZZZ=            -50.1928 XXXY=           -150.0492
 XXXZ=              0.0000 YYYX=           -232.7009 YYYZ=              0.0000 ZZZX=              0.0000
 ZZZY=              0.0000 XXYY=           -282.9230 XXZZ=            -26.9296 YYZZ=           -255.4761
 XXYZ=              0.0000 YYXZ=              0.0000 ZZXY=            -48.8763
 N-N= 6.799318971755D+01 E-N=-6.482369838582D+03  KE= 2.648365152871D+03
 No NMR shielding tensors so no spin-rotation constants.
 Leave Link  601 at Wed Oct 20 14:54:17 2021, MaxMem= 16106127360 cpu:               4.1 elap:               0.2
 (Enter /sw/contrib/gaussian/g16/B01/g16/l607.exe)
 ******************************Gaussian NBO Version 3.1******************************
             N A T U R A L   A T O M I C   O R B I T A L   A N D
          N A T U R A L   B O N D   O R B I T A L   A N A L Y S I S
 ******************************Gaussian NBO Version 3.1******************************
       /RESON  / : Allow strongly delocalized NBO set

 Analyzing the MP2 density

 Job title: title                                                           

 Storage needed:     69217 in NPA,     91732 in NBO (********** available)
 GSVD:  LWork=        1591 too small for GESVD, short by       39920 words or       39920 for optimal perf.


 NATURAL POPULATIONS:  Natural atomic orbital occupancies 
                                                          
   NAO  Atom  No  lang   Type(AO)    Occupancy
 --------------------------------------------
     1    O    1  S      Cor( 1S)     1.99967
     2    O    1  S      Val( 2S)     1.74152
     3    O    1  S      Ryd( 3S)     0.00603
     4    O    1  S      Ryd( 4S)     0.00047
     5    O    1  S      Ryd( 5S)     0.00019
     6    O    1  px     Val( 2p)     1.52303
     7    O    1  px     Ryd( 3p)     0.00984
     8    O    1  px     Ryd( 4p)     0.00052
     9    O    1  px     Ryd( 5p)     0.00007
    10    O    1  py     Val( 2p)     1.66753
    11    O    1  py     Ryd( 3p)     0.01129
    12    O    1  py     Ryd( 4p)     0.00061
    13    O    1  py     Ryd( 5p)     0.00009
    14    O    1  pz     Val( 2p)     1.95395
    15    O    1  pz     Ryd( 3p)     0.02083
    16    O    1  pz     Ryd( 4p)     0.00060
    17    O    1  pz     Ryd( 5p)     0.00001
    18    O    1  dxy    Ryd( 3d)     0.00820
    19    O    1  dxy    Ryd( 4d)     0.00042
    20    O    1  dxy    Ryd( 5d)     0.00007
    21    O    1  dxz    Ryd( 3d)     0.00818
    22    O    1  dxz    Ryd( 4d)     0.00045
    23    O    1  dxz    Ryd( 5d)     0.00006
    24    O    1  dyz    Ryd( 3d)     0.00766
    25    O    1  dyz    Ryd( 4d)     0.00048
    26    O    1  dyz    Ryd( 5d)     0.00009
    27    O    1  dx2y2  Ryd( 3d)     0.01244
    28    O    1  dx2y2  Ryd( 4d)     0.00031
    29    O    1  dx2y2  Ryd( 5d)     0.00009
    30    O    1  dz2    Ryd( 3d)     0.00905
    31    O    1  dz2    Ryd( 4d)     0.00045
    32    O    1  dz2    Ryd( 5d)     0.00010
    33    O    1  f(0)   Ryd( 4f)     0.00064
    34    O    1  f(0)   Ryd( 5f)     0.00010
    35    O    1  f(C1)  Ryd( 4f)     0.00056
    36    O    1  f(C1)  Ryd( 5f)     0.00008
    37    O    1  f(S1)  Ryd( 4f)     0.00056
    38    O    1  f(S1)  Ryd( 5f)     0.00008
    39    O    1  f(C2)  Ryd( 4f)     0.00046
    40    O    1  f(C2)  Ryd( 5f)     0.00009
    41    O    1  f(S2)  Ryd( 4f)     0.00046
    42    O    1  f(S2)  Ryd( 5f)     0.00007
    43    O    1  f(C3)  Ryd( 4f)     0.00041
    44    O    1  f(C3)  Ryd( 5f)     0.00012
    45    O    1  f(S3)  Ryd( 4f)     0.00040
    46    O    1  f(S3)  Ryd( 5f)     0.00009

    47    H    2  S      Val( 1S)     0.54921
    48    H    2  S      Ryd( 2S)     0.00165
    49    H    2  S      Ryd( 3S)     0.00017
    50    H    2  S      Ryd( 4S)     0.00007
    51    H    2  px     Ryd( 2p)     0.00154
    52    H    2  px     Ryd( 3p)     0.00053
    53    H    2  px     Ryd( 4p)     0.00014
    54    H    2  py     Ryd( 2p)     0.00182
    55    H    2  py     Ryd( 3p)     0.00023
    56    H    2  py     Ryd( 4p)     0.00009
    57    H    2  pz     Ryd( 2p)     0.00493
    58    H    2  pz     Ryd( 3p)     0.00018
    59    H    2  pz     Ryd( 4p)     0.00005
    60    H    2  dxy    Ryd( 3d)     0.00006
    61    H    2  dxy    Ryd( 4d)     0.00005
    62    H    2  dxz    Ryd( 3d)     0.00008
    63    H    2  dxz    Ryd( 4d)     0.00006
    64    H    2  dyz    Ryd( 3d)     0.00011
    65    H    2  dyz    Ryd( 4d)     0.00004
    66    H    2  dx2y2  Ryd( 3d)     0.00009
    67    H    2  dx2y2  Ryd( 4d)     0.00004
    68    H    2  dz2    Ryd( 3d)     0.00011
    69    H    2  dz2    Ryd( 4d)     0.00006

    70   Br    3  S      Cor( 1S)     2.00000
    71   Br    3  S      Cor( 2S)     2.00000
    72   Br    3  S      Cor( 3S)     2.00000
    73   Br    3  S      Val( 4S)     1.97704
    74   Br    3  S      Ryd( 5S)     0.00247
    75   Br    3  S      Ryd( 6S)     0.00051
    76   Br    3  S      Ryd( 7S)     0.00009
    77   Br    3  px     Cor( 2p)     2.00002
    78   Br    3  px     Cor( 3p)     2.00000
    79   Br    3  px     Val( 4p)     1.95195
    80   Br    3  px     Ryd( 5p)     0.01165
    81   Br    3  px     Ryd( 6p)     0.00083
    82   Br    3  px     Ryd( 7p)     0.00005
    83   Br    3  py     Cor( 3p)     1.99998
    84   Br    3  py     Cor( 2p)     2.00000
    85   Br    3  py     Val( 4p)     1.91112
    86   Br    3  py     Ryd( 5p)     0.01018
    87   Br    3  py     Ryd( 6p)     0.00079
    88   Br    3  py     Ryd( 7p)     0.00013
    89   Br    3  pz     Cor( 2p)     2.00002
    90   Br    3  pz     Cor( 3p)     2.00000
    91   Br    3  pz     Val( 4p)     1.95419
    92   Br    3  pz     Ryd( 5p)     0.01168
    93   Br    3  pz     Ryd( 6p)     0.00083
    94   Br    3  pz     Ryd( 7p)     0.00004
    95   Br    3  dxy    Cor( 3d)     1.99767
    96   Br    3  dxy    Ryd( 4d)     0.01875
    97   Br    3  dxy    Ryd( 5d)     0.00149
    98   Br    3  dxy    Ryd( 6d)     0.00020
    99   Br    3  dxz    Cor( 3d)     1.99769
   100   Br    3  dxz    Ryd( 4d)     0.01866
   101   Br    3  dxz    Ryd( 5d)     0.00177
   102   Br    3  dxz    Ryd( 6d)     0.00022
   103   Br    3  dyz    Cor( 3d)     1.99767
   104   Br    3  dyz    Ryd( 4d)     0.01878
   105   Br    3  dyz    Ryd( 5d)     0.00150
   106   Br    3  dyz    Ryd( 6d)     0.00020
   107   Br    3  dx2y2  Cor( 3d)     1.99765
   108   Br    3  dx2y2  Ryd( 4d)     0.01838
   109   Br    3  dx2y2  Ryd( 5d)     0.00162
   110   Br    3  dx2y2  Ryd( 6d)     0.00023
   111   Br    3  dz2    Cor( 3d)     1.99768
   112   Br    3  dz2    Ryd( 4d)     0.01856
   113   Br    3  dz2    Ryd( 5d)     0.00173
   114   Br    3  dz2    Ryd( 6d)     0.00022
   115   Br    3  f(0)   Ryd( 4f)     0.00174
   116   Br    3  f(0)   Ryd( 5f)     0.00025
   117   Br    3  f(C1)  Ryd( 4f)     0.00175
   118   Br    3  f(C1)  Ryd( 5f)     0.00024
   119   Br    3  f(S1)  Ryd( 4f)     0.00174
   120   Br    3  f(S1)  Ryd( 5f)     0.00026
   121   Br    3  f(C2)  Ryd( 4f)     0.00173
   122   Br    3  f(C2)  Ryd( 5f)     0.00025
   123   Br    3  f(S2)  Ryd( 4f)     0.00176
   124   Br    3  f(S2)  Ryd( 5f)     0.00025
   125   Br    3  f(C3)  Ryd( 4f)     0.00170
   126   Br    3  f(C3)  Ryd( 5f)     0.00025
   127   Br    3  f(S3)  Ryd( 4f)     0.00172
   128   Br    3  f(S3)  Ryd( 5f)     0.00026

   129    H    4  S      Val( 1S)     0.49070
   130    H    4  S      Ryd( 2S)     0.00681
   131    H    4  S      Ryd( 3S)     0.00033
   132    H    4  S      Ryd( 4S)     0.00011
   133    H    4  px     Ryd( 2p)     0.00341
   134    H    4  px     Ryd( 3p)     0.00041
   135    H    4  px     Ryd( 4p)     0.00009
   136    H    4  py     Ryd( 2p)     0.00394
   137    H    4  py     Ryd( 3p)     0.00055
   138    H    4  py     Ryd( 4p)     0.00021
   139    H    4  pz     Ryd( 2p)     0.00376
   140    H    4  pz     Ryd( 3p)     0.00045
   141    H    4  pz     Ryd( 4p)     0.00008
   142    H    4  dxy    Ryd( 3d)     0.00020
   143    H    4  dxy    Ryd( 4d)     0.00009
   144    H    4  dxz    Ryd( 3d)     0.00015
   145    H    4  dxz    Ryd( 4d)     0.00005
   146    H    4  dyz    Ryd( 3d)     0.00021
   147    H    4  dyz    Ryd( 4d)     0.00009
   148    H    4  dx2y2  Ryd( 3d)     0.00016
   149    H    4  dx2y2  Ryd( 4d)     0.00009
   150    H    4  dz2    Ryd( 3d)     0.00017
   151    H    4  dz2    Ryd( 4d)     0.00007

 WARNING:  5 low occupancy (<1.9990e) core orbitals found on Br    3


 Summary of Natural Population Analysis:                  
                                                          
                                       Natural Population 
                Natural  -----------------------------------------------
    Atom  No    Charge         Core      Valence    Rydberg      Total
 -----------------------------------------------------------------------
      O    1   -0.98843      1.99967     6.88602    0.10273     8.98843
      H    2    0.43869      0.00000     0.54921    0.01210     0.56131
     Br    3   -0.93815     27.98837     7.79429    0.15548    35.93815
      H    4    0.48788      0.00000     0.49070    0.02142     0.51212
 =======================================================================
   * Total *   -1.00000     29.98805    15.72022    0.29173    46.00000

                                 Natural Population      
 --------------------------------------------------------
   Core                      29.98805 ( 99.9602% of  30)
   Valence                   15.72022 ( 98.2514% of  16)
   Natural Minimal Basis     45.70827 ( 99.3658% of  46)
   Natural Rydberg Basis      0.29173 (  0.6342% of  46)
 --------------------------------------------------------

    Atom  No          Natural Electron Configuration
 ----------------------------------------------------------------------------
      O    1      [core]2S( 1.74)2p( 5.14)3S( 0.01)3p( 0.04)3d( 0.05)
      H    2            1S( 0.55)2p( 0.01)
     Br    3      [core]4S( 1.98)4p( 5.82)4d( 0.09)5p( 0.03)4f( 0.01)5d( 0.01)
      H    4            1S( 0.49)2S( 0.01)2p( 0.01)


 NATURAL BOND ORBITAL ANALYSIS:
 Warning:  a bond orbital has occupanc of -0.00003

                       Occupancies       Lewis Structure    Low   High
           Occ.    -------------------  -----------------   occ   occ
  Cycle   Thresh.   Lewis   Non-Lewis     CR  BD  3C  LP    (L)   (NL)   Dev
 =============================================================================
   1(1)    1.90    45.64645   0.35355     15   2   0   6     0      0    0.07
 -----------------------------------------------------------------------------

 Structure accepted: No low occupancy Lewis orbitals

 WARNING:  5 low occupancy (<1.9990e) core orbitals found on Br    3

 --------------------------------------------------------
   Core                     29.98805 ( 99.960% of  30)
   Valence Lewis            15.65841 ( 97.865% of  16)
  ==================       ============================
   Total Lewis              45.64645 ( 99.231% of  46)
  -----------------------------------------------------
   Valence non-Lewis         0.08773 (  0.191% of  46)
   Rydberg non-Lewis         0.26581 (  0.578% of  46)
  ==================       ============================
   Total non-Lewis           0.35355 (  0.769% of  46)
 --------------------------------------------------------


       (Occupancy)   Bond orbital/ Coefficients/ Hybrids
 ---------------------------------------------------------------------------------
     1. (1.96579) BD ( 1) O   1 - H   2  
                ( 72.82%)   0.8534* O   1 s( 21.00%)p 3.74( 78.53%)d 0.02(  0.46%)
                                                  f 0.00(  0.01%)
                                            0.0002  0.4582 -0.0051 -0.0020 -0.0022
                                            0.8837 -0.0317  0.0092 -0.0031  0.0550
                                           -0.0142  0.0009 -0.0033  0.0000  0.0000
                                            0.0000  0.0000 -0.0195  0.0033  0.0008
                                            0.0000  0.0000  0.0000  0.0000  0.0000
                                            0.0000  0.0543 -0.0040 -0.0042 -0.0349
                                            0.0018 -0.0004  0.0000  0.0000 -0.0099
                                            0.0003 -0.0002  0.0000  0.0000  0.0000
                                            0.0000  0.0000  0.0035  0.0039  0.0021
                                           -0.0008
                ( 27.18%)   0.5213* H   2 s( 99.88%)p 0.00(  0.12%)d 0.00(  0.00%)
                                            0.9994  0.0035 -0.0001  0.0002  0.0177
                                            0.0273 -0.0049 -0.0100 -0.0041 -0.0023
                                            0.0000  0.0000  0.0000 -0.0003  0.0026
                                            0.0000  0.0000  0.0000  0.0000 -0.0013
                                            0.0014 -0.0012 -0.0011
     2. (1.96798) BD ( 1) O   1 - H   4  
                ( 77.68%)   0.8814* O   1 s( 26.65%)p 2.74( 72.93%)d 0.02(  0.41%)
                                                  f 0.00(  0.01%)
                                           -0.0003 -0.5162  0.0028  0.0018  0.0012
                                            0.2135 -0.0185  0.0020 -0.0013  0.8265
                                           -0.0140  0.0065 -0.0022  0.0000  0.0000
                                            0.0000  0.0000  0.0033 -0.0026 -0.0013
                                            0.0000  0.0000  0.0000  0.0000  0.0000
                                            0.0000  0.0527 -0.0037 -0.0008  0.0356
                                           -0.0023  0.0014  0.0000  0.0000 -0.0018
                                           -0.0001 -0.0087  0.0004  0.0000  0.0000
                                            0.0000  0.0000 -0.0028 -0.0016 -0.0017
                                           -0.0019
                ( 22.32%)   0.4724* H   4 s( 99.91%)p 0.00(  0.09%)d 0.00(  0.00%)
                                           -0.9992 -0.0263 -0.0009  0.0004 -0.0162
                                           -0.0025 -0.0011 -0.0004 -0.0235 -0.0094
                                            0.0000  0.0000  0.0000  0.0018  0.0019
                                            0.0000  0.0000  0.0000  0.0000 -0.0027
                                            0.0009  0.0004  0.0013
     3. (1.99967) CR ( 1) O   1           s(100.00%)
                                            1.0000 -0.0004  0.0000  0.0000  0.0000
                                           -0.0001  0.0000 -0.0000  0.0000  0.0001
                                           -0.0000  0.0000 -0.0000  0.0000  0.0000
                                            0.0000  0.0000 -0.0000 -0.0000 -0.0000
                                            0.0000  0.0000  0.0000  0.0000  0.0000
                                            0.0000  0.0000 -0.0000  0.0000  0.0000
                                           -0.0000  0.0000  0.0000  0.0000  0.0000
                                            0.0000 -0.0000 -0.0000  0.0000  0.0000
                                            0.0000  0.0000 -0.0000 -0.0000 -0.0000
                                           -0.0000
     4. (2.00000) CR ( 1)Br   3           s(100.00%)p 0.00(  0.00%)
                                            1.0000  0.0000 -0.0000  0.0000  0.0000
                                           -0.0000  0.0000 -0.0000 -0.0000  0.0001
                                            0.0000 -0.0000  0.0000 -0.0000 -0.0000
                                            0.0002 -0.0000 -0.0000  0.0000  0.0000
                                            0.0000  0.0000  0.0000  0.0000  0.0000
                                           -0.0000  0.0000 -0.0000  0.0000  0.0000
                                            0.0000  0.0000  0.0000  0.0000  0.0000
                                            0.0000  0.0000  0.0000 -0.0000  0.0000
                                            0.0000  0.0000 -0.0000  0.0000 -0.0000
                                            0.0000  0.0000 -0.0000 -0.0000 -0.0000
                                           -0.0000  0.0000  0.0000  0.0000  0.0000
                                           -0.0000 -0.0000 -0.0000 -0.0000
     5. (2.00000) CR ( 2)Br   3           s(100.00%)
                                            0.0000  1.0000  0.0000 -0.0000 -0.0000
                                            0.0000 -0.0000  0.0000  0.0000 -0.0000
                                           -0.0000  0.0000 -0.0000  0.0000  0.0000
                                           -0.0000  0.0000  0.0000 -0.0000  0.0000
                                            0.0000  0.0000  0.0000  0.0000  0.0000
                                            0.0000 -0.0000  0.0000 -0.0000  0.0000
                                            0.0000  0.0000  0.0000  0.0000  0.0000
                                            0.0000  0.0000 -0.0000  0.0000 -0.0000
                                           -0.0000 -0.0000  0.0000 -0.0000  0.0000
                                            0.0000  0.0000  0.0000  0.0000  0.0000
                                            0.0000  0.0000  0.0000  0.0000  0.0000
                                            0.0000  0.0000  0.0000  0.0000
     6. (2.00000) CR ( 3)Br   3           s(100.00%)
                                           -0.0000  0.0000  1.0000  0.0000  0.0000
                                           -0.0000  0.0000 -0.0000 -0.0000  0.0000
                                            0.0000 -0.0000  0.0000 -0.0000 -0.0000
                                            0.0000 -0.0000 -0.0000  0.0000  0.0000
                                            0.0000  0.0000  0.0000  0.0000  0.0000
                                           -0.0000  0.0000 -0.0000  0.0000  0.0000
                                            0.0000  0.0000  0.0000  0.0000  0.0000
                                            0.0000  0.0000  0.0000 -0.0000  0.0000
                                            0.0000  0.0000 -0.0000  0.0000 -0.0000
                                            0.0000  0.0000 -0.0000 -0.0000 -0.0000
                                           -0.0000  0.0000  0.0000  0.0000  0.0000
                                           -0.0000 -0.0000 -0.0000 -0.0000
     7. (2.00002) CR ( 4)Br   3           s(  0.00%)p 1.00(100.00%)
                                           -0.0000  0.0000 -0.0000  0.0000  0.0000
                                           -0.0000  0.0000  1.0000 -0.0000 -0.0001
                                           -0.0000 -0.0000  0.0000 -0.0000 -0.0000
                                            0.0001 -0.0000 -0.0000  0.0000  0.0000
                                            0.0000  0.0000  0.0000  0.0000  0.0000
                                           -0.0000 -0.0000  0.0000  0.0000  0.0000
                                            0.0000  0.0000  0.0000  0.0000  0.0000
                                            0.0000  0.0000  0.0000 -0.0000  0.0000
                                           -0.0000  0.0000 -0.0000  0.0000  0.0000
                                            0.0000  0.0000  0.0000  0.0000 -0.0000
                                           -0.0000  0.0000  0.0000  0.0000  0.0000
                                            0.0000  0.0000 -0.0000 -0.0000
     8. (2.00000) CR ( 5)Br   3           s(  0.00%)p 1.00(100.00%)
                                           -0.0000  0.0000 -0.0000  0.0000  0.0000
                                           -0.0000  0.0000 -0.0000  1.0000 -0.0000
                                           -0.0000 -0.0000  0.0000 -0.0000 -0.0000
                                            0.0000 -0.0000 -0.0000  0.0000  0.0000
                                            0.0000  0.0000  0.0000  0.0000  0.0000
                                           -0.0000 -0.0000  0.0000  0.0000  0.0000
                                            0.0000  0.0000  0.0000  0.0000  0.0000
                                            0.0000  0.0000  0.0000 -0.0000  0.0000
                                           -0.0000  0.0000 -0.0000  0.0000  0.0000
                                            0.0000  0.0000  0.0000  0.0000 -0.0000
                                           -0.0000  0.0000  0.0000  0.0000  0.0000
                                            0.0000  0.0000 -0.0000 -0.0000
     9. (1.99998) CR ( 6)Br   3           s(  0.00%)p 1.00(100.00%)
                                           -0.0000  0.0000 -0.0000  0.0001  0.0000
                                           -0.0000  0.0000 -0.0000 -0.0000  0.0001
                                            0.0000 -0.0000  0.0000  1.0000 -0.0000
                                            0.0002 -0.0000 -0.0000  0.0000  0.0000
                                            0.0000  0.0000  0.0000  0.0000  0.0000
                                           -0.0000  0.0000 -0.0000  0.0000  0.0000
                                            0.0000  0.0000  0.0000  0.0000  0.0000
                                            0.0000  0.0000  0.0000 -0.0000  0.0000
                                            0.0000  0.0000 -0.0000  0.0000 -0.0000
                                            0.0000  0.0000 -0.0000 -0.0000 -0.0000
                                           -0.0000  0.0000  0.0000  0.0000  0.0000
                                           -0.0000 -0.0000 -0.0000 -0.0000
    10. (2.00000) CR ( 7)Br   3           s(  0.00%)p 1.00(100.00%)
                                           -0.0000  0.0000 -0.0000  0.0000  0.0000
                                           -0.0000  0.0000 -0.0000 -0.0000  0.0000
                                            0.0000 -0.0000  0.0000 -0.0000  1.0000
                                            0.0000 -0.0000 -0.0000  0.0000  0.0000
                                            0.0000  0.0000  0.0000  0.0000  0.0000
                                           -0.0000  0.0000 -0.0000  0.0000  0.0000
                                            0.0000  0.0000  0.0000  0.0000  0.0000
                                            0.0000  0.0000  0.0000 -0.0000  0.0000
                                            0.0000  0.0000 -0.0000  0.0000 -0.0000
                                            0.0000  0.0000 -0.0000 -0.0000 -0.0000
                                           -0.0000  0.0000  0.0000  0.0000  0.0000
                                           -0.0000 -0.0000 -0.0000 -0.0000
    11. (2.00002) CR ( 8)Br   3           s(  0.00%)p 1.00(100.00%)
                                            0.0000  0.0000  0.0000  0.0000  0.0000
                                            0.0000  0.0000  0.0000  0.0000  0.0000
                                            0.0000  0.0000  0.0000  0.0000  0.0000
                                            0.0000  0.0000  0.0000  0.0000  1.0000
                                           -0.0000 -0.0001 -0.0000 -0.0000 -0.0000
                                            0.0000  0.0000  0.0000  0.0000  0.0000
                                           -0.0000  0.0000 -0.0000  0.0000 -0.0000
                                            0.0000  0.0000  0.0000  0.0000  0.0000
                                            0.0000  0.0000  0.0000  0.0000  0.0000
                                            0.0000  0.0000  0.0000  0.0000  0.0000
                                            0.0000  0.0000  0.0000 -0.0000 -0.0000
                                            0.0000  0.0000  0.0000  0.0000
    12. (2.00000) CR ( 9)Br   3           s(  0.00%)p 1.00(100.00%)
                                            0.0000  0.0000  0.0000  0.0000  0.0000
                                            0.0000  0.0000  0.0000  0.0000  0.0000
                                            0.0000  0.0000  0.0000  0.0000  0.0000
                                            0.0000  0.0000  0.0000  0.0000 -0.0000
                                            1.0000 -0.0000 -0.0000 -0.0000 -0.0000
                                            0.0000  0.0000  0.0000  0.0000  0.0000
                                           -0.0000  0.0000 -0.0000  0.0000 -0.0000
                                            0.0000  0.0000  0.0000  0.0000  0.0000
                                            0.0000  0.0000  0.0000  0.0000  0.0000
                                            0.0000  0.0000  0.0000  0.0000  0.0000
                                            0.0000  0.0000  0.0000 -0.0000 -0.0000
                                            0.0000  0.0000  0.0000  0.0000
    13. (1.99767) CR (10)Br   3           s(  0.00%)p 0.00(  0.00%)d 1.00(100.00%)
                                           -0.0000  0.0000 -0.0000  0.0000  0.0000
                                           -0.0000  0.0000 -0.0000 -0.0000  0.0000
                                            0.0000 -0.0000  0.0000 -0.0000 -0.0000
                                            0.0001 -0.0000 -0.0000  0.0000  0.0000
                                            0.0000  0.0000  0.0000  0.0000  0.0000
                                            1.0000  0.0000 -0.0000  0.0000  0.0000
                                            0.0000  0.0000  0.0000  0.0000  0.0000
                                            0.0000  0.0000  0.0000 -0.0000  0.0000
                                            0.0000  0.0000 -0.0000  0.0000 -0.0000
                                            0.0000  0.0000 -0.0000 -0.0000 -0.0000
                                           -0.0000  0.0000  0.0000  0.0000  0.0000
                                           -0.0000 -0.0000 -0.0000 -0.0000
    14. (1.99769) CR (11)Br   3           s(  0.00%)p 0.00(  0.00%)d 1.00(100.00%)
                                            0.0000  0.0000  0.0000  0.0000  0.0000
                                            0.0000  0.0000  0.0000  0.0000  0.0000
                                            0.0000  0.0000  0.0000  0.0000  0.0000
                                            0.0000  0.0000  0.0000  0.0000  0.0000
                                            0.0000  0.0000  0.0000  0.0000  0.0000
                                            0.0000  0.0000  0.0000  0.0000  1.0000
                                            0.0000 -0.0000  0.0000 -0.0000  0.0000
                                           -0.0000 -0.0000  0.0000  0.0000  0.0000
                                            0.0000  0.0000  0.0000  0.0000  0.0000
                                           -0.0000 -0.0000  0.0000  0.0000  0.0000
                                            0.0000 -0.0000 -0.0000  0.0000  0.0000
                                            0.0000  0.0000  0.0000  0.0000
    15. (1.99767) CR (12)Br   3           s(  0.00%)p 0.00(  0.00%)d 1.00(100.00%)
                                            0.0000  0.0000  0.0000  0.0000  0.0000
                                            0.0000  0.0000  0.0000  0.0000  0.0000
                                            0.0000  0.0000  0.0000  0.0000  0.0000
                                            0.0000  0.0000  0.0000  0.0000  0.0000
                                            0.0000  0.0000  0.0000  0.0000  0.0000
                                            0.0000  0.0000  0.0000  0.0000 -0.0000
                                            0.0000 -0.0000  0.0000  1.0000  0.0000
                                           -0.0000 -0.0000  0.0000  0.0000  0.0000
                                            0.0000  0.0000  0.0000  0.0000  0.0000
                                           -0.0000 -0.0000  0.0000  0.0000  0.0000
                                            0.0000 -0.0000 -0.0000  0.0000  0.0000
                                            0.0000  0.0000  0.0000  0.0000
    16. (1.99765) CR (13)Br   3           s(  0.00%)p 0.00(  0.00%)d 1.00(100.00%)
                                            0.0000 -0.0000  0.0000 -0.0001 -0.0000
                                            0.0000 -0.0000  0.0000  0.0000 -0.0000
                                           -0.0000  0.0000 -0.0000  0.0000  0.0000
                                           -0.0002  0.0000  0.0000 -0.0000  0.0000
                                            0.0000  0.0000  0.0000  0.0000  0.0000
                                            0.0000 -0.0000  0.0000 -0.0000  0.0000
                                            0.0000  0.0000  0.0000  0.0000  0.0000
                                            0.0000  0.0000  1.0000  0.0000 -0.0000
                                           -0.0000 -0.0000  0.0000 -0.0000  0.0000
                                            0.0000  0.0000  0.0000  0.0000  0.0000
                                            0.0000  0.0000  0.0000  0.0000  0.0000
                                            0.0000  0.0000  0.0000  0.0000
    17. (1.99768) CR (14)Br   3           s(  0.00%)p 0.00(  0.00%)d 1.00(100.00%)
                                            0.0000 -0.0000  0.0000 -0.0000 -0.0000
                                            0.0000 -0.0000  0.0000  0.0000 -0.0000
                                           -0.0000  0.0000 -0.0000  0.0000  0.0000
                                           -0.0001  0.0000  0.0000 -0.0000  0.0000
                                            0.0000  0.0000  0.0000  0.0000  0.0000
                                            0.0000 -0.0000  0.0000 -0.0000  0.0000
                                            0.0000  0.0000  0.0000  0.0000  0.0000
                                            0.0000  0.0000 -0.0000  0.0000 -0.0000
                                           -0.0000  1.0000  0.0000 -0.0000  0.0000
                                            0.0000  0.0000  0.0000  0.0000  0.0000
                                            0.0000  0.0000  0.0000  0.0000  0.0000
                                            0.0000  0.0000  0.0000  0.0000
    18. (1.96976) LP ( 1) O   1           s( 52.27%)p 0.91( 47.62%)d 0.00(  0.11%)
                                                  f 0.00(  0.00%)
                                            0.0002  0.7230  0.0033  0.0019  0.0013
                                           -0.4086 -0.0048  0.0022  0.0000  0.5560
                                            0.0085 -0.0046  0.0008  0.0000  0.0000
                                            0.0000  0.0000  0.0292 -0.0040  0.0014
                                            0.0000  0.0000  0.0000  0.0000  0.0000
                                            0.0000  0.0055 -0.0002  0.0013  0.0142
                                           -0.0020 -0.0012  0.0000  0.0000  0.0028
                                           -0.0007 -0.0029  0.0010  0.0000  0.0000
                                            0.0000  0.0000  0.0012 -0.0016  0.0010
                                           -0.0003
    19. (1.95970) LP ( 2) O   1           s(  0.00%)p 1.00( 99.79%)d 0.00(  0.19%)
                                                  f 0.00(  0.01%)
                                            0.0000  0.0000  0.0000  0.0000  0.0000
                                            0.0000  0.0000  0.0000  0.0000  0.0000
                                            0.0000  0.0000  0.0000  0.9985  0.0289
                                           -0.0069  0.0031  0.0000  0.0000  0.0000
                                            0.0332 -0.0037  0.0007 -0.0285  0.0028
                                           -0.0038  0.0000  0.0000  0.0000  0.0000
                                            0.0000  0.0000 -0.0097  0.0028  0.0000
                                            0.0000  0.0000  0.0000 -0.0009  0.0015
                                            0.0023 -0.0005  0.0000  0.0000  0.0000
                                            0.0000
    20. (1.97974) LP ( 1)Br   3           s( 96.33%)p 0.04(  3.67%)d 0.00(  0.00%)
                                                  f 0.00(  0.00%)
                                            0.0000 -0.0000  0.0000  0.9815 -0.0003
                                            0.0001 -0.0001 -0.0000 -0.0000 -0.0376
                                            0.0003 -0.0001  0.0001 -0.0001 -0.0000
                                           -0.1878  0.0007 -0.0006  0.0001  0.0000
                                            0.0000  0.0000  0.0000  0.0000  0.0000
                                           -0.0000  0.0003 -0.0002 -0.0002  0.0000
                                            0.0000  0.0000  0.0000  0.0000  0.0000
                                            0.0000  0.0000  0.0000 -0.0007  0.0002
                                            0.0003  0.0000 -0.0005  0.0002  0.0002
                                            0.0000  0.0000 -0.0001 -0.0001 -0.0004
                                           -0.0003  0.0000  0.0000  0.0000  0.0000
                                           -0.0003 -0.0002 -0.0004 -0.0002
    21. (1.95430) LP ( 2)Br   3           s(  0.00%)p 1.00( 99.99%)d 0.00(  0.00%)
                                                  f 0.00(  0.00%)
                                            0.0000  0.0000  0.0000  0.0000  0.0000
                                            0.0000  0.0000  0.0000  0.0000  0.0000
                                            0.0000  0.0000  0.0000  0.0000  0.0000
                                            0.0000  0.0000  0.0000  0.0000  0.0001
                                            0.0000  1.0000  0.0010  0.0010  0.0000
                                            0.0000  0.0000  0.0000  0.0000 -0.0000
                                            0.0025 -0.0011  0.0010 -0.0000  0.0057
                                           -0.0014 -0.0010  0.0000  0.0000  0.0000
                                            0.0000  0.0000  0.0000  0.0000  0.0000
                                           -0.0017 -0.0011  0.0000  0.0000  0.0000
                                            0.0000 -0.0016 -0.0009  0.0010  0.0008
                                            0.0000  0.0000  0.0000  0.0000
    22. (1.95407) LP ( 3)Br   3           s(  0.00%)p 1.00( 99.99%)d 0.00(  0.01%)
                                                  f 0.00(  0.00%)
                                           -0.0000 -0.0000 -0.0000  0.0024 -0.0004
                                           -0.0014  0.0021 -0.0001 -0.0000 -0.9780
                                           -0.0022 -0.0013  0.0006  0.0000  0.0000
                                            0.2085 -0.0004 -0.0002  0.0007 -0.0000
                                           -0.0000 -0.0000 -0.0000 -0.0000 -0.0000
                                            0.0000 -0.0060  0.0013  0.0008 -0.0000
                                           -0.0000 -0.0000 -0.0000 -0.0000 -0.0000
                                           -0.0000 -0.0000  0.0000 -0.0043  0.0015
                                           -0.0008 -0.0000  0.0007 -0.0005  0.0008
                                           -0.0000 -0.0000  0.0008  0.0005 -0.0001
                                            0.0000 -0.0000 -0.0000 -0.0000 -0.0000
                                            0.0016  0.0008 -0.0017 -0.0011
    23. (1.90707) LP ( 4)Br   3           s(  3.67%)p26.28( 96.30%)d 0.01(  0.03%)
                                                  f 0.00(  0.00%)
                                           -0.0003  0.0000 -0.0000  0.1914  0.0014
                                           -0.0004  0.0005 -0.0000 -0.0000  0.2051
                                            0.0001 -0.0004  0.0001 -0.0002 -0.0000
                                            0.9597 -0.0032 -0.0025  0.0005  0.0000
                                            0.0000  0.0000  0.0000  0.0000  0.0000
                                           -0.0001  0.0068 -0.0015  0.0003  0.0000
                                            0.0000  0.0000  0.0000  0.0000  0.0000
                                            0.0000  0.0000  0.0002 -0.0120  0.0023
                                            0.0007  0.0001 -0.0086  0.0020 -0.0003
                                            0.0000  0.0000 -0.0007 -0.0003 -0.0030
                                           -0.0014  0.0000  0.0000  0.0000  0.0000
                                           -0.0021 -0.0006 -0.0028 -0.0009
    24. (0.01943) RY*( 1) O   1           s(  0.00%)p 1.00( 98.52%)d 0.01(  1.46%)
                                                  f 0.00(  0.02%)
                                            0.0000  0.0000  0.0000  0.0000  0.0000
                                            0.0000  0.0000  0.0000  0.0000  0.0000
                                            0.0000  0.0000  0.0000 -0.0338  0.9914
                                            0.0301 -0.0161  0.0000  0.0000  0.0000
                                            0.0984 -0.0144 -0.0054 -0.0668  0.0136
                                            0.0042  0.0000  0.0000  0.0000  0.0000
                                            0.0000  0.0000 -0.0085  0.0100  0.0000
                                            0.0000  0.0000  0.0000 -0.0041  0.0031
                                           -0.0015 -0.0009  0.0000  0.0000  0.0000
                                            0.0000
    25. (0.01510) RY*( 2) O   1           s( 21.01%)p 3.63( 76.35%)d 0.12(  2.56%)
                                                  f 0.00(  0.09%)
                                            0.0000 -0.0094  0.4582  0.0049 -0.0005
                                            0.0075 -0.4778 -0.0135  0.0055 -0.0094
                                            0.7311  0.0102 -0.0113  0.0000  0.0000
                                            0.0000  0.0000  0.1564 -0.0170 -0.0012
                                            0.0000  0.0000  0.0000  0.0000  0.0000
                                            0.0000 -0.0007  0.0034  0.0038  0.0261
                                           -0.0106 -0.0032  0.0000  0.0000  0.0029
                                           -0.0019  0.0045  0.0010  0.0000  0.0000
                                            0.0000  0.0000  0.0222 -0.0134  0.0124
                                           -0.0039
    26. (0.00698) RY*( 3) O   1           s(  1.85%)p39.48( 73.09%)d13.28( 24.58%)
                                                  f 0.26(  0.47%)
                                            0.0000 -0.0001  0.1278 -0.0437  0.0165
                                           -0.0599 -0.6936 -0.0420  0.0224 -0.0378
                                           -0.4920 -0.0223  0.0026 -0.0000 -0.0000
                                           -0.0000 -0.0000 -0.1984 -0.0100 -0.0028
                                           -0.0000 -0.0000 -0.0000 -0.0000 -0.0000
                                           -0.0000  0.4501  0.0449  0.0269  0.0300
                                            0.0082  0.0089 -0.0000 -0.0000 -0.0293
                                            0.0150 -0.0200  0.0082 -0.0000 -0.0000
                                           -0.0000 -0.0000  0.0223 -0.0158 -0.0442
                                            0.0218
    27. (0.00619) RY*( 4) O   1           s( 14.11%)p 0.11(  1.56%)d 5.91( 83.38%)
                                                  f 0.07(  0.96%)
                                           -0.0000  0.0149  0.3752  0.0034  0.0061
                                            0.0025  0.1194  0.0050 -0.0068  0.0246
                                            0.0232 -0.0049 -0.0071 -0.0000 -0.0000
                                           -0.0000 -0.0000 -0.8530 -0.0235  0.0037
                                           -0.0000 -0.0000 -0.0000 -0.0000 -0.0000
                                           -0.0000 -0.2794 -0.0056  0.0026  0.1640
                                            0.0212  0.0129 -0.0000 -0.0000 -0.0072
                                            0.0104  0.0248 -0.0159 -0.0000 -0.0000
                                           -0.0000 -0.0000 -0.0813  0.0318 -0.0289
                                            0.0099
    28. (0.00618) RY*( 5) O   1           s(  0.00%)p 0.00(  0.00%)d 1.00( 98.91%)
                                                  f 0.01(  1.09%)
                                            0.0000  0.0000  0.0000  0.0000  0.0000
                                            0.0000  0.0000  0.0000  0.0000  0.0000
                                            0.0000  0.0000  0.0000  0.0051  0.0006
                                           -0.0037 -0.0003  0.0000  0.0000  0.0000
                                            0.5602  0.0324  0.0088  0.8198  0.0454
                                            0.0029  0.0000  0.0000  0.0000  0.0000
                                            0.0000  0.0000  0.0205 -0.0118  0.0000
                                            0.0000  0.0000  0.0000  0.0901 -0.0465
                                           -0.0044  0.0035  0.0000  0.0000  0.0000
                                            0.0000
    29. (0.00589) RY*( 6) O   1           s(  0.00%)p 1.00(  1.58%)d61.92( 97.57%)
                                                  f 0.54(  0.86%)
                                            0.0000  0.0000  0.0000  0.0000  0.0000
                                            0.0000  0.0000  0.0000  0.0000  0.0000
                                            0.0000  0.0000  0.0000 -0.0398 -0.1187
                                           -0.0085 -0.0036  0.0000  0.0000  0.0000
                                            0.8128  0.0600  0.0156 -0.5565 -0.0391
                                           -0.0014  0.0000  0.0000  0.0000  0.0000
                                            0.0000  0.0000 -0.0694  0.0361  0.0000
                                            0.0000  0.0000  0.0000  0.0224 -0.0114
                                           -0.0385  0.0180  0.0000  0.0000  0.0000
                                            0.0000
    30. (0.00570) RY*( 7) O   1           s(  7.26%)p 0.72(  5.22%)d11.97( 86.90%)
                                                  f 0.09(  0.62%)
                                           -0.0000  0.0210  0.2685 -0.0086  0.0043
                                            0.0338  0.1561  0.0102 -0.0047 -0.0387
                                           -0.1572 -0.0158 -0.0110  0.0000  0.0000
                                            0.0000  0.0000  0.2839  0.0173  0.0018
                                            0.0000  0.0000  0.0000  0.0000  0.0000
                                            0.0000  0.0592  0.0072 -0.0023  0.8822
                                            0.0782  0.0092  0.0000  0.0000  0.0501
                                           -0.0237 -0.0492  0.0255  0.0000  0.0000
                                            0.0000  0.0000  0.0037 -0.0020  0.0032
                                            0.0005
    31. (0.00328) RY*( 8) O   1           s( 15.60%)p 1.41( 22.00%)d 3.94( 61.40%)
                                                  f 0.06(  0.99%)
                                           -0.0000 -0.0058  0.3949 -0.0011  0.0056
                                            0.0302 -0.1774 -0.0044 -0.0118  0.0278
                                           -0.4257 -0.0411 -0.0612 -0.0000 -0.0000
                                           -0.0000 -0.0000  0.3159  0.0341 -0.0092
                                           -0.0000 -0.0000 -0.0000 -0.0000 -0.0000
                                           -0.0000 -0.6771 -0.0507  0.0546 -0.2191
                                           -0.0257  0.0168 -0.0000 -0.0000  0.0196
                                           -0.0116  0.0353 -0.0294 -0.0000 -0.0000
                                           -0.0000 -0.0000 -0.0039 -0.0131  0.0764
                                           -0.0360
    32. (0.00229) RY*( 9) O   1           s( 39.02%)p 0.58( 22.49%)d 0.97( 37.92%)
                                                  f 0.01(  0.57%)
                                            0.0000 -0.0053  0.6229 -0.0081 -0.0459
                                           -0.0189  0.4561  0.0341 -0.0057 -0.0070
                                           -0.1045 -0.0518 -0.0414  0.0000  0.0000
                                            0.0000  0.0000  0.1073  0.0242  0.0190
                                            0.0000  0.0000  0.0000  0.0000  0.0000
                                            0.0000  0.4690  0.1121 -0.0532 -0.3460
                                           -0.1050  0.0254  0.0000  0.0000 -0.0150
                                            0.0381  0.0111 -0.0078  0.0000  0.0000
                                            0.0000  0.0000  0.0400 -0.0458 -0.0119
                                           -0.0034
    33. (0.00073) RY*(10) O   1           s( 46.52%)p 0.98( 45.48%)d 0.15(  7.04%)
                                                  f 0.02(  0.96%)
                                            0.0000 -0.0049 -0.0353  0.6767 -0.0773
                                            0.0003 -0.0409  0.0850 -0.1202 -0.0011
                                            0.0058 -0.6553 -0.0443 -0.0000 -0.0000
                                           -0.0000 -0.0000 -0.0189  0.0988  0.1357
                                           -0.0000 -0.0000 -0.0000 -0.0000 -0.0000
                                           -0.0000  0.0138 -0.0214 -0.0740  0.0245
                                           -0.0785 -0.1702 -0.0000 -0.0000  0.0160
                                           -0.0044  0.0465  0.0236 -0.0000 -0.0000
                                           -0.0000 -0.0000  0.0044  0.0460  0.0424
                                            0.0521
    34. (0.00055) RY*(11) O   1           s(  0.00%)p 1.00( 61.15%)d 0.59( 35.95%)
                                                  f 0.05(  2.90%)
                                            0.0000  0.0000  0.0000  0.0000  0.0000
                                            0.0000  0.0000  0.0000  0.0000  0.0000
                                            0.0000  0.0000  0.0000  0.0019 -0.0405
                                            0.7809  0.0058  0.0000  0.0000  0.0000
                                            0.0214 -0.2469 -0.0635 -0.0183  0.5329
                                            0.0985  0.0000  0.0000  0.0000  0.0000
                                            0.0000  0.0000 -0.1409  0.0345  0.0000
                                            0.0000  0.0000  0.0000 -0.0730  0.0077
                                           -0.0506 -0.0059  0.0000  0.0000  0.0000
                                            0.0000
    35. (0.00048) RY*(12) O   1           s(  4.87%)p 3.62( 17.62%)d11.99( 58.33%)
                                                  f 3.94( 19.19%)
                                           -0.0000  0.0041  0.0007  0.2017  0.0891
                                            0.0054  0.0110 -0.3141 -0.0328 -0.0051
                                           -0.0299  0.2729 -0.0312 -0.0000 -0.0000
                                           -0.0000 -0.0000 -0.0370 -0.3271  0.0382
                                           -0.0000 -0.0000 -0.0000 -0.0000 -0.0000
                                           -0.0000 -0.0015 -0.1633 -0.0183  0.0662
                                           -0.6426 -0.1705 -0.0000 -0.0000  0.1933
                                           -0.0109  0.0010  0.0127 -0.0000 -0.0000
                                           -0.0000 -0.0000  0.3683  0.0032  0.1355
                                            0.0143
    36. (0.00046) RY*(13) O   1           s(  0.00%)p 1.00( 12.56%)d 0.84( 10.49%)
                                                  f 6.13( 76.95%)
                                            0.0000  0.0000  0.0000  0.0000  0.0000
                                            0.0000  0.0000  0.0000  0.0000  0.0000
                                            0.0000  0.0000  0.0000  0.0029 -0.0013
                                            0.3433  0.0877  0.0000  0.0000  0.0000
                                            0.0103  0.2041  0.0100 -0.0246 -0.2496
                                            0.0136  0.0000  0.0000  0.0000  0.0000
                                            0.0000  0.0000  0.2076  0.0085  0.0000
                                            0.0000  0.0000  0.0000  0.2191 -0.0001
                                            0.8236 -0.0021  0.0000  0.0000  0.0000
                                            0.0000
    37. (0.00044) RY*(14) O   1           s(  0.20%)p 8.56(  1.72%)d32.01(  6.42%)
                                                  f99.99( 91.67%)
                                            0.0000  0.0011 -0.0035  0.0440  0.0075
                                           -0.0025 -0.0029 -0.0592 -0.0216 -0.0007
                                           -0.0122  0.1141  0.0006 -0.0000 -0.0000
                                           -0.0000 -0.0000  0.0526 -0.0228 -0.0513
                                           -0.0000 -0.0000 -0.0000 -0.0000 -0.0000
                                           -0.0000  0.0292 -0.0477 -0.0301  0.0751
                                           -0.2094 -0.0687 -0.0000 -0.0000 -0.5424
                                           -0.0083  0.7188  0.0232 -0.0000 -0.0000
                                           -0.0000 -0.0000 -0.3243  0.0064 -0.0025
                                            0.0069
    38. (0.00044) RY*(15) O   1           s(  0.00%)p 1.00(  0.73%)d17.68( 12.98%)
                                                  f99.99( 86.29%)
                                            0.0000  0.0000  0.0000  0.0000  0.0000
                                            0.0000  0.0000  0.0000  0.0000  0.0000
                                            0.0000  0.0000  0.0000  0.0040 -0.0041
                                           -0.0843 -0.0143  0.0000  0.0000  0.0000
                                            0.0198 -0.2133 -0.0198 -0.0855  0.2574
                                            0.0995  0.0000  0.0000  0.0000  0.0000
                                            0.0000  0.0000  0.8196  0.0114  0.0000
                                            0.0000  0.0000  0.0000  0.4095  0.0089
                                           -0.1523  0.0014  0.0000  0.0000  0.0000
                                            0.0000
    39. (0.00042) RY*(16) O   1           s(  0.00%)p 1.00( 26.31%)d 1.56( 41.16%)
                                                  f 1.24( 32.53%)
                                            0.0000  0.0000  0.0000  0.0000  0.0000
                                            0.0000  0.0000  0.0000  0.0000  0.0000
                                            0.0000  0.0000  0.0000 -0.0102 -0.0075
                                           -0.4826 -0.1733  0.0000  0.0000  0.0000
                                            0.0404 -0.3113 -0.0351 -0.0276  0.5572
                                           -0.0229  0.0000  0.0000  0.0000  0.0000
                                            0.0000  0.0000 -0.1491 -0.0117  0.0000
                                            0.0000  0.0000  0.0000 -0.1238  0.0064
                                            0.5358  0.0203  0.0000  0.0000  0.0000
                                            0.0000
    40. (0.00041) RY*(17) O   1           s(  0.00%)p 1.00(  0.63%)d26.00( 16.50%)
                                                  f99.99( 82.86%)
                                            0.0000  0.0000  0.0000  0.0000  0.0000
                                            0.0000  0.0000  0.0000  0.0000  0.0000
                                            0.0000  0.0000  0.0000 -0.0013  0.0096
                                           -0.0677 -0.0408  0.0000  0.0000  0.0000
                                           -0.0958  0.2833  0.1329 -0.0357  0.2362
                                            0.0291  0.0000  0.0000  0.0000  0.0000
                                            0.0000  0.0000 -0.4236 -0.0249  0.0000
                                            0.0000  0.0000  0.0000  0.8002  0.0535
                                           -0.0738 -0.0028  0.0000  0.0000  0.0000
                                            0.0000
    41. (0.00040) RY*(18) O   1           s(  0.03%)p99.99( 13.91%)d99.99( 12.86%)
[...]
                                            0.0000  0.0000  0.0000
   130. (0.00368) RY*( 3) H   4           s(  5.83%)p16.02( 93.44%)d 0.12(  0.73%)
                                           -0.0177  0.1842  0.1534  0.0236  0.6711
                                            0.0193 -0.0158 -0.6882  0.0954 -0.0266
                                           -0.0000 -0.0000 -0.0000 -0.0680  0.0188
                                           -0.0000 -0.0000 -0.0000 -0.0000  0.0184
                                            0.0247 -0.0349  0.0111
   131. (0.00270) RY*( 4) H   4           s( 20.47%)p 3.83( 78.50%)d 0.05(  1.04%)
                                           -0.0042  0.4034  0.2017  0.0361 -0.6983
                                            0.0415 -0.0124 -0.5021  0.2081 -0.0080
                                           -0.0000 -0.0000 -0.0000  0.0531 -0.0469
                                           -0.0000 -0.0000 -0.0000 -0.0000  0.0328
                                            0.0431  0.0455  0.0184
   132. (0.00047) RY*( 5) H   4           s( 12.29%)p 6.68( 82.12%)d 0.45(  5.58%)
                                            0.0013  0.0274 -0.2379  0.2560 -0.0208
                                           -0.8937  0.1060 -0.0888  0.0526 -0.0143
                                           -0.0000 -0.0000 -0.0000  0.0468 -0.0759
                                           -0.0000 -0.0000 -0.0000 -0.0000 -0.2106
                                           -0.0173 -0.0345 -0.0454
   133. (0.00036) RY*( 6) H   4           s(  0.00%)p 1.00( 92.86%)d 0.08(  7.14%)
                                            0.0000  0.0000  0.0000  0.0000  0.0000
                                            0.0000  0.0000  0.0000  0.0000  0.0000
                                           -0.1578  0.9503  0.0265  0.0000  0.0000
                                            0.0144  0.0264  0.2506  0.0877  0.0000
                                            0.0000  0.0000  0.0000
   134. (0.00032) RY*( 7) H   4           s(  3.73%)p15.40( 57.38%)d10.43( 38.89%)
                                           -0.0040 -0.1120  0.1497  0.0479  0.0519
                                           -0.1188 -0.1474  0.1648  0.4540 -0.5496
                                           -0.0000 -0.0000 -0.0000 -0.2239 -0.1957
                                           -0.0000 -0.0000 -0.0000 -0.0000  0.2817
                                            0.3029  0.2789  0.2272
   135. (0.00021) RY*( 8) H   4           s( 18.77%)p 2.92( 54.81%)d 1.41( 26.42%)
                                           -0.0152 -0.0740  0.4070 -0.1280  0.0394
                                           -0.0854 -0.0627  0.1711  0.5172  0.4883
                                            0.0000  0.0000  0.0000 -0.3125  0.0881
                                            0.0000  0.0000  0.0000  0.0000 -0.3624
                                           -0.1165  0.0854 -0.0809
   136. (0.00021) RY*( 9) H   4           s(  0.00%)p 1.00( 13.18%)d 6.59( 86.82%)
                                            0.0000  0.0000  0.0000  0.0000  0.0000
                                            0.0000  0.0000  0.0000  0.0000  0.0000
                                            0.0966 -0.2158  0.2755  0.0000  0.0000
                                           -0.0474 -0.0199  0.9145 -0.1709  0.0000
                                            0.0000  0.0000  0.0000
   137. (0.00018) RY*(10) H   4           s(  5.75%)p 4.32( 24.80%)d12.09( 69.45%)
                                            0.0085  0.0519 -0.1204  0.2005 -0.1155
                                            0.0361 -0.3376 -0.0660 -0.3315 -0.0719
                                           -0.0000 -0.0000 -0.0000 -0.7980  0.0419
                                           -0.0000 -0.0000 -0.0000 -0.0000 -0.1430
                                            0.0530 -0.1810  0.0037
   138. (0.00016) RY*(11) H   4           s(  0.00%)p 1.00(  0.25%)d99.99( 99.75%)
                                            0.0000  0.0000  0.0000  0.0000  0.0000
                                            0.0000  0.0000  0.0000  0.0000  0.0000
                                            0.0017 -0.0182 -0.0468  0.0000  0.0000
                                            0.9908  0.0678  0.0446 -0.0955  0.0000
                                            0.0000  0.0000  0.0000
   139. (0.00016) RY*(12) H   4           s(  8.23%)p 2.88( 23.72%)d 8.27( 68.05%)
                                            0.0108  0.0096  0.2586 -0.1234 -0.0067
                                           -0.1686  0.0282 -0.0532 -0.4527 -0.0112
                                            0.0000  0.0000  0.0000 -0.0864  0.1132
                                            0.0000  0.0000  0.0000  0.0000  0.0379
                                           -0.1753  0.7901 -0.0623
   140. (0.00012) RY*(13) H   4           s( 14.51%)p 0.82( 11.85%)d 5.07( 73.63%)
                                            0.0001 -0.0330  0.2695 -0.2672 -0.0446
                                           -0.2985  0.1319  0.0270 -0.0616  0.0745
                                            0.0000  0.0000  0.0000 -0.2047  0.1306
                                            0.0000  0.0000  0.0000  0.0000  0.6940
                                           -0.1729 -0.3587 -0.1930
   141. (0.00010) RY*(14) H   4           s(  0.00%)p 1.00( 44.66%)d 1.24( 55.34%)
                                            0.0000  0.0000  0.0000  0.0000  0.0000
                                            0.0000  0.0000  0.0000  0.0000  0.0000
                                           -0.0141 -0.0731  0.6641  0.0000  0.0000
                                            0.0864  0.2161 -0.0754  0.7026  0.0000
                                            0.0000  0.0000  0.0000
   142. (0.00009) RY*(15) H   4           s(  0.06%)p99.99( 35.25%)d99.99( 64.69%)
   143. (0.00007) RY*(16) H   4           s( 77.49%)p 0.09(  6.82%)d 0.20( 15.70%)
   144. (0.00005) RY*(17) H   4           s(  0.00%)p 1.00(  1.17%)d84.63( 98.83%)
   145. (0.00005) RY*(18) H   4           s(  2.42%)p 0.68(  1.65%)d39.58( 95.93%)
   146. (0.00004) RY*(19) H   4           s( 37.36%)p 0.79( 29.47%)d 0.89( 33.17%)
   147. (0.00003) RY*(20) H   4           s(  3.20%)p10.43( 33.39%)d19.80( 63.41%)
   148. (0.00003) RY*(21) H   4           s( 11.99%)p 3.76( 45.03%)d 3.58( 42.97%)
   149. (0.00003) RY*(22) H   4           s(  0.00%)p 1.00( 48.36%)d 1.07( 51.64%)
   150. (0.02147) BD*( 1) O   1 - H   2  
                ( 27.18%)   0.5213* O   1 s( 21.00%)p 3.74( 78.53%)d 0.02(  0.46%)
                                                  f 0.00(  0.01%)
                                           -0.0002 -0.4582  0.0051  0.0020  0.0022
                                           -0.8837  0.0317 -0.0092  0.0031 -0.0550
                                            0.0142 -0.0009  0.0033 -0.0000 -0.0000
                                           -0.0000 -0.0000  0.0195 -0.0033 -0.0008
                                           -0.0000 -0.0000 -0.0000 -0.0000 -0.0000
                                           -0.0000 -0.0543  0.0040  0.0042  0.0349
                                           -0.0018  0.0004 -0.0000 -0.0000  0.0099
                                           -0.0003  0.0002 -0.0000 -0.0000 -0.0000
                                           -0.0000 -0.0000 -0.0035 -0.0039 -0.0021
                                            0.0008
                ( 72.82%)  -0.8534* H   2 s( 99.88%)p 0.00(  0.12%)d 0.00(  0.00%)
                                           -0.9994 -0.0035  0.0001 -0.0002 -0.0177
                                           -0.0273  0.0049  0.0100  0.0041  0.0023
                                           -0.0000 -0.0000 -0.0000  0.0003 -0.0026
                                           -0.0000 -0.0000 -0.0000 -0.0000  0.0013
                                           -0.0014  0.0012  0.0011
   151. (0.06626) BD*( 1) O   1 - H   4  
                ( 22.32%)   0.4724* O   1 s( 26.65%)p 2.74( 72.93%)d 0.02(  0.41%)
                                                  f 0.00(  0.01%)
                                            0.0003  0.5162 -0.0028 -0.0018 -0.0012
                                           -0.2135  0.0185 -0.0020  0.0013 -0.8265
                                            0.0140 -0.0065  0.0022 -0.0000 -0.0000
                                           -0.0000 -0.0000 -0.0033  0.0026  0.0013
                                           -0.0000 -0.0000 -0.0000 -0.0000 -0.0000
                                           -0.0000 -0.0527  0.0037  0.0008 -0.0356
                                            0.0023 -0.0014 -0.0000 -0.0000  0.0018
                                            0.0001  0.0087 -0.0004 -0.0000 -0.0000
                                           -0.0000 -0.0000  0.0028  0.0016  0.0017
                                            0.0019
                ( 77.68%)  -0.8814* H   4 s( 99.91%)p 0.00(  0.09%)d 0.00(  0.00%)
                                            0.9992  0.0263  0.0009 -0.0004  0.0162
                                            0.0025  0.0011  0.0004  0.0235  0.0094
                                           -0.0000 -0.0000 -0.0000 -0.0018 -0.0019
                                           -0.0000 -0.0000 -0.0000 -0.0000  0.0027
                                           -0.0009 -0.0004 -0.0013


 NHO Directionality and "Bond Bending" (deviations from line of nuclear centers)

         [Thresholds for printing:  angular deviation  >  1.0 degree]
                                    hybrid p-character > 25.0%
                                    orbital occupancy  >  0.10e

                                Line of Centers        Hybrid 1              Hybrid 2
                                ---------------  -------------------   ------------------
                NBO               Theta   Phi    Theta   Phi    Dev    Theta   Phi    Dev
 ========================================================================================
     1. BD (   1) O   1 - H   2    90.0    0.0    90.0    2.6   2.6      --     --    --
     2. BD (   1) O   1 - H   4    90.0  258.3    90.0  256.5   1.8      --     --    --
    18. LP (   1) O   1             --     --     90.0  126.3   --       --     --    --
    19. LP (   2) O   1             --     --      0.0    0.0   --       --     --    --
    21. LP (   2)Br   3             --     --      0.0    0.0   --       --     --    --
    22. LP (   3)Br   3             --     --     90.0  168.0   --       --     --    --
    23. LP (   4)Br   3             --     --     90.0   77.9   --       --     --    --


 Natural Bond Orbitals (Summary):

           NBO                  Occupancy  
 -----------------------------------------------
 Molecular unit  1  (H2O)
     1. BD (   1) O   1 - H   2          1.96579
     2. BD (   1) O   1 - H   4          1.96798
     3. CR (   1) O   1                  1.99967
    18. LP (   1) O   1                  1.96976
    19. LP (   2) O   1                  1.95970
    24. RY*(   1) O   1                  0.01943
    25. RY*(   2) O   1                  0.01510
    26. RY*(   3) O   1                  0.00698
    27. RY*(   4) O   1                  0.00619
    28. RY*(   5) O   1                  0.00618
    29. RY*(   6) O   1                  0.00589
    30. RY*(   7) O   1                  0.00570
    31. RY*(   8) O   1                  0.00328
    32. RY*(   9) O   1                  0.00229
    33. RY*(  10) O   1                  0.00073
    34. RY*(  11) O   1                  0.00055
    35. RY*(  12) O   1                  0.00048
    36. RY*(  13) O   1                  0.00046
    37. RY*(  14) O   1                  0.00044
    38. RY*(  15) O   1                  0.00044
    39. RY*(  16) O   1                  0.00042
    40. RY*(  17) O   1                  0.00041
    41. RY*(  18) O   1                  0.00040
    42. RY*(  19) O   1                  0.00041
    43. RY*(  20) O   1                  0.00037
    44. RY*(  21) O   1                  0.00034
    45. RY*(  22) O   1                  0.00034
    46. RY*(  23) O   1                  0.00029
    47. RY*(  24) O   1                  0.00026
    48. RY*(  25) O   1                  0.00022
    49. RY*(  26) O   1                  0.00014
    50. RY*(  27) O   1                  0.00007
    51. RY*(  28) O   1                  0.00008
    52. RY*(  29) O   1                  0.00007
    53. RY*(  30) O   1                  0.00007
    54. RY*(  31) O   1                  0.00006
    55. RY*(  32) O   1                  0.00006
    56. RY*(  33) O   1                  0.00007
    57. RY*(  34) O   1                  0.00005
    58. RY*(  35) O   1                  0.00004
    59. RY*(  36) O   1                  0.00004
    60. RY*(  37) O   1                  0.00004
    61. RY*(  38) O   1                  0.00001
    62. RY*(  39) O   1                  0.00001
    63. RY*(  40) O   1                  0.00002
    64. RY*(  41) O   1                 -0.00003
    65. RY*(   1) H   2                  0.00498
    66. RY*(   2) H   2                  0.00225
    67. RY*(   3) H   2                  0.00188
    68. RY*(   4) H   2                  0.00084
    69. RY*(   5) H   2                  0.00029
    70. RY*(   6) H   2                  0.00021
    71. RY*(   7) H   2                  0.00018
    72. RY*(   8) H   2                  0.00011
    73. RY*(   9) H   2                  0.00011
    74. RY*(  10) H   2                  0.00009
    75. RY*(  11) H   2                  0.00010
    76. RY*(  12) H   2                  0.00007
    77. RY*(  13) H   2                  0.00007
    78. RY*(  14) H   2                  0.00005
    79. RY*(  15) H   2                  0.00004
    80. RY*(  16) H   2                  0.00004
    81. RY*(  17) H   2                  0.00003
    82. RY*(  18) H   2                  0.00002
    83. RY*(  19) H   2                  0.00003
    84. RY*(  20) H   2                  0.00001
    85. RY*(  21) H   2                  0.00002
    86. RY*(  22) H   2                  0.00002
   128. RY*(   1) H   4                  0.00845
   129. RY*(   2) H   4                  0.00388
   130. RY*(   3) H   4                  0.00368
   131. RY*(   4) H   4                  0.00270
   132. RY*(   5) H   4                  0.00047
   133. RY*(   6) H   4                  0.00036
   134. RY*(   7) H   4                  0.00032
   135. RY*(   8) H   4                  0.00021
   136. RY*(   9) H   4                  0.00021
   137. RY*(  10) H   4                  0.00018
   138. RY*(  11) H   4                  0.00016
   139. RY*(  12) H   4                  0.00016
   140. RY*(  13) H   4                  0.00012
   141. RY*(  14) H   4                  0.00010
   142. RY*(  15) H   4                  0.00009
   143. RY*(  16) H   4                  0.00007
   144. RY*(  17) H   4                  0.00005
   145. RY*(  18) H   4                  0.00005
   146. RY*(  19) H   4                  0.00004
   147. RY*(  20) H   4                  0.00003
   148. RY*(  21) H   4                  0.00003
   149. RY*(  22) H   4                  0.00003
   150. BD*(   1) O   1 - H   2          0.02147
   151. BD*(   1) O   1 - H   4          0.06626
       -------------------------------
              Total Lewis    9.86290  ( 98.0227%)
        Valence non-Lewis    0.08773  (  0.8719%)
        Rydberg non-Lewis    0.11122  (  1.1053%)
       -------------------------------
            Total unit  1   10.06185  (100.0000%)
           Charge unit  1   -0.06185

 Molecular unit  2  (Br)
     4. CR (   1)Br   3                  2.00000
     5. CR (   2)Br   3                  2.00000
     6. CR (   3)Br   3                  2.00000
     7. CR (   4)Br   3                  2.00002
     8. CR (   5)Br   3                  2.00000
     9. CR (   6)Br   3                  1.99998
    10. CR (   7)Br   3                  2.00000
    11. CR (   8)Br   3                  2.00002
    12. CR (   9)Br   3                  2.00000
    13. CR (  10)Br   3                  1.99767
    14. CR (  11)Br   3                  1.99769
    15. CR (  12)Br   3                  1.99767
    16. CR (  13)Br   3                  1.99765
    17. CR (  14)Br   3                  1.99768
    20. LP (   1)Br   3                  1.97974
    21. LP (   2)Br   3                  1.95430
    22. LP (   3)Br   3                  1.95407
    23. LP (   4)Br   3                  1.90707
    87. RY*(   1)Br   3                  0.01874
    88. RY*(   2)Br   3                  0.01871
    89. RY*(   3)Br   3                  0.01864
    90. RY*(   4)Br   3                  0.01864
    91. RY*(   5)Br   3                  0.01807
    92. RY*(   6)Br   3                  0.01170
    93. RY*(   7)Br   3                  0.01167
    94. RY*(   8)Br   3                  0.00988
    95. RY*(   9)Br   3                  0.00281
    96. RY*(  10)Br   3                  0.00180
    97. RY*(  11)Br   3                  0.00179
    98. RY*(  12)Br   3                  0.00176
    99. RY*(  13)Br   3                  0.00176
   100. RY*(  14)Br   3                  0.00176
   101. RY*(  15)Br   3                  0.00176
   102. RY*(  16)Br   3                  0.00176
   103. RY*(  17)Br   3                  0.00176
   104. RY*(  18)Br   3                  0.00176
   105. RY*(  19)Br   3                  0.00147
   106. RY*(  20)Br   3                  0.00144
   107. RY*(  21)Br   3                  0.00128
   108. RY*(  22)Br   3                  0.00082
   109. RY*(  23)Br   3                  0.00081
   110. RY*(  24)Br   3                  0.00077
   111. RY*(  25)Br   3                  0.00045
   112. RY*(  26)Br   3                  0.00025
   113. RY*(  27)Br   3                  0.00024
   114. RY*(  28)Br   3                  0.00025
   115. RY*(  29)Br   3                  0.00025
   116. RY*(  30)Br   3                  0.00025
   117. RY*(  31)Br   3                  0.00024
   118. RY*(  32)Br   3                  0.00025
   119. RY*(  33)Br   3                  0.00021
   120. RY*(  34)Br   3                  0.00021
   121. RY*(  35)Br   3                  0.00015
   122. RY*(  36)Br   3                  0.00014
   123. RY*(  37)Br   3                  0.00015
   124. RY*(  38)Br   3                  0.00006
   125. RY*(  39)Br   3                  0.00005
   126. RY*(  40)Br   3                  0.00005
   127. RY*(  41)Br   3                  0.00004
       -------------------------------
              Total Lewis   35.78355  ( 99.5698%)
        Valence non-Lewis    0.00000  (  0.0000%)
        Rydberg non-Lewis    0.15460  (  0.4302%)
       -------------------------------
            Total unit  2   35.93815  (100.0000%)
           Charge unit  2   -0.93815
 Leave Link  607 at Wed Oct 20 14:54:19 2021, MaxMem= 16106127360 cpu:              70.6 elap:               2.6
 (Enter /sw/contrib/gaussian/g16/B01/g16/l9999.exe)
 1\1\GINC-N2183\SP\RMP2-FC\Aug-CC-pVTZ\Br1H2O1(1-)\CGAVINH\20-Oct-2021\
 0\\#p pop=NBO SP NoSymm mp2/aug-cc-pvtz density=current\\title\\-1,1\O
 \X,1,10.\H,1,0.96048156,2,90.\Br,1,3.25083182,2,90.,3,101.65547111,0\H
 ,1,0.98806,2,90.,3,101.65547111,0\\Version=ES64L-G16RevB.01\HF=-2648.6
 071194\MP2=-2649.1261837\RMSD=6.823e-09\Dipole=0.5827181,0.1402023,0.\
 Quadrupole=10.890406,-21.1420592,10.2516531,-6.1480978,0.,0.\PG=CS [SG
 (Br1H2O1)]\\@


 If fifty million people say a stupid thing,
 it is still a stupid thing.
                   -- Anatole France
 Job cpu time:       0 days  0 hours  4 minutes 45.8 seconds.
 Elapsed time:       0 days  0 hours  0 minutes 13.1 seconds.
 File lengths (MBytes):  RWF=     11 Int=      0 D2E=      0 Chk=      8 Scr=      1
 Normal termination of Gaussian 16 at Wed Oct 20 14:54:20 2021.
