 Entering Gaussian System, Link 0=g16
 Input=brhocl_pp_20_sp.gjf
 Output=brhocl_pp_20_sp.log
 Initial command:
 /sw/contrib/gaussian/g16/B01/g16/l1.exe "/scr/Gau-4084.inp" -scrdir="/scr/"
 Entering Link 1 = /sw/contrib/gaussian/g16/B01/g16/l1.exe PID=      4085.
  
 Copyright (c) 1988-2017, Gaussian, Inc.  All Rights Reserved.
  
 This is part of the Gaussian(R) 16 program.  It is based on
 the Gaussian(R) 09 system (copyright 2009, Gaussian, Inc.),
 the Gaussian(R) 03 system (copyright 2003, Gaussian, Inc.),
 the Gaussian(R) 98 system (copyright 1998, Gaussian, Inc.),
 the Gaussian(R) 94 system (copyright 1995, Gaussian, Inc.),
 the Gaussian 92(TM) system (copyright 1992, Gaussian, Inc.),
 the Gaussian 90(TM) system (copyright 1990, Gaussian, Inc.),
 the Gaussian 88(TM) system (copyright 1988, Gaussian, Inc.),
 the Gaussian 86(TM) system (copyright 1986, Carnegie Mellon
 University), and the Gaussian 82(TM) system (copyright 1983,
 Carnegie Mellon University). Gaussian is a federally registered
 trademark of Gaussian, Inc.
  
 This software contains proprietary and confidential information,
 including trade secrets, belonging to Gaussian, Inc.
  
 This software is provided under written license and may be
 used, copied, transmitted, or stored only in accord with that
 written license.
  
 The following legend is applicable only to US Government
 contracts under FAR:
  
                    RESTRICTED RIGHTS LEGEND
  
 Use, reproduction and disclosure by the US Government is
 subject to restrictions as set forth in subparagraphs (a)
 and (c) of the Commercial Computer Software - Restricted
 Rights clause in FAR 52.227-19.
  
 Gaussian, Inc.
 340 Quinnipiac St., Bldg. 40, Wallingford CT 06492
  
  
 ---------------------------------------------------------------
 Warning -- This program may not be used in any manner that
 competes with the business of Gaussian, Inc. or will provide
 assistance to any competitor of Gaussian, Inc.  The licensee
 of this program is prohibited from giving any competitor of
 Gaussian, Inc. access to this program.  By using this program,
 the user acknowledges that Gaussian, Inc. is engaged in the
 business of creating and licensing software in the field of
 computational chemistry and represents and warrants to the
 licensee that it is not a competitor of Gaussian, Inc. and that
 it will not use this program in any manner prohibited above.
 ---------------------------------------------------------------
  

 Cite this work as:
 Gaussian 16, Revision B.01,
 M. J. Frisch, G. W. Trucks, H. B. Schlegel, G. E. Scuseria, 
 M. A. Robb, J. R. Cheeseman, G. Scalmani, V. Barone, 
 G. A. Petersson, H. Nakatsuji, X. Li, M. Caricato, A. V. Marenich, 
 J. Bloino, B. G. Janesko, R. Gomperts, B. Mennucci, H. P. Hratchian, 
 J. V. Ortiz, A. F. Izmaylov, J. L. Sonnenberg, D. Williams-Young, 
 F. Ding, F. Lipparini, F. Egidi, J. Goings, B. Peng, A. Petrone, 
 T. Henderson, D. Ranasinghe, V. G. Zakrzewski, J. Gao, N. Rega, 
 G. Zheng, W. Liang, M. Hada, M. Ehara, K. Toyota, R. Fukuda, 
 J. Hasegawa, M. Ishida, T. Nakajima, Y. Honda, O. Kitao, H. Nakai, 
 T. Vreven, K. Throssell, J. A. Montgomery, Jr., J. E. Peralta, 
 F. Ogliaro, M. J. Bearpark, J. J. Heyd, E. N. Brothers, K. N. Kudin, 
 V. N. Staroverov, T. A. Keith, R. Kobayashi, J. Normand, 
 K. Raghavachari, A. P. Rendell, J. C. Burant, S. S. Iyengar, 
 J. Tomasi, M. Cossi, J. M. Millam, M. Klene, C. Adamo, R. Cammi, 
 J. W. Ochterski, R. L. Martin, K. Morokuma, O. Farkas, 
 J. B. Foresman, and D. J. Fox, Gaussian, Inc., Wallingford CT, 2016.
 
 ******************************************
 Gaussian 16:  ES64L-G16RevB.01 20-Dec-2017
                30-Sep-2021 
 ******************************************
 %nproc=28
 Will use up to   28 processors via shared memory.
 %mem=120GB
 %chk=/gscratch/ilahie/mccoygrp/coire_hocl/brhocl_pp/brhocl_pp_20_sp.chk
 --------------------------------------------------------
 #p pop=NBO SP NoSymm mp2/gen Pseudo=read density=current
 --------------------------------------------------------
 1/30=1,38=1,172=1/1;
 2/12=2,15=1,17=6,18=5,40=1/2;
 3/5=7,11=9,16=1,17=8,25=1,30=1,71=1/1,2,3;
 4//1;
 5/5=2,38=5/2;
 8/6=4,10=1/1;
 9/15=1,16=-3/6;
 10/5=1,13=10,31=1/2;
 6/7=2,8=2,9=2,10=2,22=-1,40=1/1,7;
 99/5=1,9=1/99;
 Leave Link    1 at Thu Sep 30 14:39:47 2021, MaxMem= 16106127360 cpu:               1.3 elap:               0.1
 (Enter /sw/contrib/gaussian/g16/B01/g16/l101.exe)
 -----
 title
 -----
 Symbolic Z-matrix:
 Charge = -1 Multiplicity = 1
 O                     0.        0.        0. 
 Br                    3.06793   0.        0. 
 Cl                   -0.39181   1.63826   0. 
 H                     0.94517   0.        0.34401 
 
 ITRead=  0  0  0  0
 MicOpt= -1 -1 -1 -1
 NAtoms=      4 NQM=        4 NQMF=       0 NMMI=      0 NMMIF=      0
                NMic=       0 NMicF=      0.
                    Isotopes and Nuclear Properties:
 (Nuclear quadrupole moments (NQMom) in fm**2, nuclear magnetic moments (NMagM)
  in nuclear magnetons)

  Atom         1           2           3           4
 IAtWgt=          16          79          35           1
 AtmWgt=  15.9949146  78.9183361  34.9688527   1.0078250
 NucSpn=           0           3           3           1
 AtZEff=  -0.0000000  -0.0000000  -0.0000000  -0.0000000
 NQMom=    0.0000000  31.3000000  -8.1650000   0.0000000
 NMagM=    0.0000000   2.1063990   0.8218740   2.7928460
 AtZNuc=   8.0000000  35.0000000  17.0000000   1.0000000
 Leave Link  101 at Thu Sep 30 14:39:48 2021, MaxMem= 16106127360 cpu:               2.8 elap:               0.2
 (Enter /sw/contrib/gaussian/g16/B01/g16/l202.exe)
                          Input orientation:                          
 ---------------------------------------------------------------------
 Center     Atomic      Atomic             Coordinates (Angstroms)
 Number     Number       Type             X           Y           Z
 ---------------------------------------------------------------------
      1          8           0        0.000000    0.000000    0.000000
      2         35           0        3.067932    0.000000    0.000000
      3         17           0       -0.391810    1.638264    0.000000
      4          1           0        0.945171    0.000000    0.344014
 ---------------------------------------------------------------------
                    Distance matrix (angstroms):
                    1          2          3          4
     1  O    0.000000
     2  Br   3.067932   0.000000
     3  Cl   1.684465   3.828018   0.000000
     4  H    1.005830   2.150455   2.142375   0.000000
 Symmetry turned off by external request.
 Stoichiometry    BrClHO(1-)
 Framework group  C1[X(BrClHO)]
 Deg. of freedom     6
 Full point group                 C1      NOp   1
 Rotational constants (GHZ):          22.5188839           1.2836709           1.2151179
 Leave Link  202 at Thu Sep 30 14:39:48 2021, MaxMem= 16106127360 cpu:               0.2 elap:               0.0
 (Enter /sw/contrib/gaussian/g16/B01/g16/l301.exe)
 General basis read from cards:  (5D, 7F)
 Centers:       4      1      3
 aug-cc-pVTZ
 ****
 Centers:       2
 S 10 1.00
     Exponent=  9.6593900000D+03 Coefficients=  3.7100000000D-04
     Exponent=  1.4559600000D+03 Coefficients=  2.5710000000D-03
     Exponent=  3.2591400000D+02 Coefficients=  8.4850000000D-03
     Exponent=  4.6565700000D+01 Coefficients=  7.8222000000D-02
     Exponent=  1.8246900000D+01 Coefficients= -3.9714900000D-01
     Exponent=  3.8020100000D+00 Coefficients=  6.8586400000D-01
     Exponent=  1.7863200000D+00 Coefficients=  4.8681900000D-01
     Exponent=  6.0271400000D-01 Coefficients=  3.4913000000D-02
     Exponent=  2.8401400000D-01 Coefficients= -6.5730000000D-03
     Exponent=  1.2027100000D-01 Coefficients=  1.6420000000D-03
 S 10 1.00
     Exponent=  9.6593900000D+03 Coefficients= -1.5200000000D-04
     Exponent=  1.4559600000D+03 Coefficients= -1.0080000000D-03
     Exponent=  3.2591400000D+02 Coefficients= -3.6090000000D-03
     Exponent=  4.6565700000D+01 Coefficients= -2.7872000000D-02
     Exponent=  1.8246900000D+01 Coefficients=  1.5131700000D-01
     Exponent=  3.8020100000D+00 Coefficients= -3.5149700000D-01
     Exponent=  1.7863200000D+00 Coefficients= -4.1070300000D-01
     Exponent=  6.0271400000D-01 Coefficients=  3.4731600000D-01
     Exponent=  2.8401400000D-01 Coefficients=  6.7549100000D-01
     Exponent=  1.2027100000D-01 Coefficients=  2.4400800000D-01
 S 1 1.00
     Exponent=  6.0271400000D-01 Coefficients=  1.0000000000D+00
 S 1 1.00
     Exponent=  2.8401400000D-01 Coefficients=  1.0000000000D+00
 S 1 1.00
     Exponent=  1.2027100000D-01 Coefficients=  1.0000000000D+00
 S 1 1.00
     Exponent=  4.4500000000D-02 Coefficients=  1.0000000000D+00
 P 9 1.00
     Exponent=  4.9218700000D+02 Coefficients=  4.7200000000D-04
     Exponent=  9.2364200000D+01 Coefficients=  5.4940000000D-03
     Exponent=  2.7071800000D+01 Coefficients= -8.8030000000D-02
     Exponent=  7.2653900000D+00 Coefficients=  3.4348500000D-01
     Exponent=  3.4848100000D+00 Coefficients=  5.1020800000D-01
     Exponent=  1.6404800000D+00 Coefficients=  2.4863100000D-01
     Exponent=  6.4857000000D-01 Coefficients=  2.2201000000D-02
     Exponent=  2.5640700000D-01 Coefficients= -4.1900000000D-04
     Exponent=  9.5304000000D-02 Coefficients=  6.5600000000D-04
 P 9 1.00
     Exponent=  4.9218700000D+02 Coefficients= -1.5800000000D-04
     Exponent=  9.2364200000D+01 Coefficients= -1.3440000000D-03
     Exponent=  2.7071800000D+01 Coefficients=  2.4616000000D-02
     Exponent=  7.2653900000D+00 Coefficients= -1.1253200000D-01
     Exponent=  3.4848100000D+00 Coefficients= -1.7977500000D-01
     Exponent=  1.6404800000D+00 Coefficients= -7.3661000000D-02
     Exponent=  6.4857000000D-01 Coefficients=  3.4873400000D-01
     Exponent=  2.5640700000D-01 Coefficients=  5.5794800000D-01
     Exponent=  9.5304000000D-02 Coefficients=  2.6645600000D-01
 P 1 1.00
     Exponent=  7.6660000000D-01 Coefficients=  1.0000000000D+00
 P 1 1.00
     Exponent=  1.1820000000D-01 Coefficients=  1.0000000000D+00
 P 1 1.00
     Exponent=  3.9600000000D-02 Coefficients=  1.0000000000D+00
 D 8 1.00
     Exponent=  3.3899600000D+02 Coefficients=  1.5240000000D-03
     Exponent=  1.0321700000D+02 Coefficients=  1.5673000000D-02
     Exponent=  4.2363800000D+01 Coefficients=  7.2400000000D-02
     Exponent=  1.8435600000D+01 Coefficients=  1.8630300000D-01
     Exponent=  8.3725400000D+00 Coefficients=  3.2388100000D-01
     Exponent=  3.8022200000D+00 Coefficients=  3.7453400000D-01
     Exponent=  1.6867700000D+00 Coefficients=  2.5741800000D-01
     Exponent=  6.7752000000D-01 Coefficients=  6.8051000000D-02
 D 1 1.00
     Exponent=  6.7752000000D-01 Coefficients=  1.0000000000D+00
 D 1 1.00
     Exponent=  2.5530000000D-01 Coefficients=  1.0000000000D+00
 D 1 1.00
     Exponent=  1.0090000000D-01 Coefficients=  1.0000000000D+00
 F 1 1.00
     Exponent=  5.6060000000D-01 Coefficients=  1.0000000000D+00
 F 1 1.00
     Exponent=  2.4540000000D-01 Coefficients=  1.0000000000D+00
 ****
 ======================================================================================================
                                       Pseudopotential Parameters
 ======================================================================================================
  Center     Atomic      Valence      Angular      Power
  Number     Number     Electrons     Momentum     of R      Exponent        Coefficient   SO-Coeffient
 ======================================================================================================
    1          8
                                   No pseudopotential on this center.
    2         35           25
                                      G and up 
                                                     2        1.0000000        0.00000000    0.00000000
                                      S - G
                                                     2       70.0242570       49.96283400    0.00000000
                                                     2       31.1784120      370.01420500    0.00000000
                                                     2        7.1565930       10.24143900    0.00000000
                                      P - G
                                                     2       46.7734710       99.11224400    0.00000000
                                                     2       46.1841200      198.25304600    0.00000000
                                                     2       21.7138580       28.26174000    0.00000000
                                                     2       20.9417920       56.62336600    0.00000000
                                      D - G
                                                     2       50.6988390      -18.60585300    0.00000000
                                                     2       50.6447640      -27.92328000    0.00000000
                                                     2       15.4475090       -0.37969300    0.00000000
                                                     2       15.5002590       -0.78058300    0.00000000
                                                     2        2.8003910        0.03596800    0.00000000
                                                     2        1.0774800        0.09439700    0.00000000
                                      F - G
                                                     2       14.4656060       -1.09126900    0.00000000
                                                     2       21.2340650       -2.88769100    0.00000000
    3         17
                                   No pseudopotential on this center.
    4          1
                                   No pseudopotential on this center.
 ======================================================================================================
 Ernie: Thresh=  0.10000D-02 Tol=  0.10000D-05 Strict=F.
 Ernie:  25 primitive shells out of 163 were deleted.
   174 basis functions,   373 primitive gaussians,   204 cartesian basis functions
    26 alpha electrons       26 beta electrons
       nuclear repulsion energy       150.5329236617 Hartrees.
 IExCor=    0 DFT=F Ex=HF Corr=None ExCW=0 ScaHFX=  1.000000
 ScaDFX=  1.000000  1.000000  1.000000  1.000000 ScalE2=  1.000000  1.000000
 IRadAn=      5 IRanWt=     -1 IRanGd=            0 ICorTp=0 IEmpDi=  4
 NAtoms=    4 NActive=    4 NUniq=    4 SFac= 1.00D+00 NAtFMM=   60 NAOKFM=F Big=F
 Integral buffers will be    131072 words long.
 Raffenetti 1 integral format.
 Two-electron integral symmetry is turned off.
 Leave Link  301 at Thu Sep 30 14:39:48 2021, MaxMem= 16106127360 cpu:               2.8 elap:               0.1
 (Enter /sw/contrib/gaussian/g16/B01/g16/l302.exe)
 NPDir=0 NMtPBC=     1 NCelOv=     1 NCel=       1 NClECP=     1 NCelD=      1
         NCelK=      1 NCelE2=     1 NClLst=     1 CellRange=     0.0.
 One-electron integrals computed using PRISM.
   1 Symmetry operations used in ECPInt.
 ECPInt:  NShTT=    1596 NPrTT=    9902 LenC2=    1595 LenP2D=    7764.
 LDataN:  DoStor=T MaxTD1= 7 Len=  274
 NBasis=   174 RedAO= T EigKep=  2.60D-04  NBF=   174
 NBsUse=   174 1.00D-06 EigRej= -1.00D+00 NBFU=   174
 Leave Link  302 at Thu Sep 30 14:39:48 2021, MaxMem= 16106127360 cpu:              10.0 elap:               0.4
 (Enter /sw/contrib/gaussian/g16/B01/g16/l303.exe)
 DipDrv:  MaxL=1.
 Leave Link  303 at Thu Sep 30 14:39:48 2021, MaxMem= 16106127360 cpu:               1.0 elap:               0.1
 (Enter /sw/contrib/gaussian/g16/B01/g16/l401.exe)
 ExpMin= 2.53D-02 ExpMax= 4.56D+05 ExpMxC= 1.44D+03 IAcc=3 IRadAn=         5 AccDes= 0.00D+00
 Harris functional with IExCor=  205 and IRadAn=       5 diagonalized for initial guess.
 HarFok:  IExCor=  205 AccDes= 0.00D+00 IRadAn=         5 IDoV= 1 UseB2=F ITyADJ=14
 ICtDFT=  3500011 ScaDFX=  1.000000  1.000000  1.000000  1.000000
 FoFCou: FMM=F IPFlag=           0 FMFlag=      100000 FMFlg1=           0
         NFxFlg=           0 DoJE=T BraDBF=F KetDBF=T FulRan=T
         wScrn=  0.000000 ICntrl=       500 IOpCl=  0 I1Cent=   200000004 NGrid=           0
         NMat0=    1 NMatS0=      1 NMatT0=    0 NMatD0=    1 NMtDS0=    0 NMtDT0=    0
 Symmetry not used in FoFCou.
 Harris En= -951.936609608891    
 JPrj=0 DoOrth=F DoCkMO=F.
 Leave Link  401 at Thu Sep 30 14:39:49 2021, MaxMem= 16106127360 cpu:               7.3 elap:               0.3
 (Enter /sw/contrib/gaussian/g16/B01/g16/l502.exe)
 Keep R1 ints in memory in canonical form, NReq=152797144.
 FoFCou: FMM=F IPFlag=           0 FMFlag=           0 FMFlg1=           0
         NFxFlg=           0 DoJE=F BraDBF=F KetDBF=F FulRan=T
         wScrn=  0.000000 ICntrl=       600 IOpCl=  0 I1Cent=           0 NGrid=           0
         NMat0=    1 NMatS0=  15225 NMatT0=    0 NMatD0=    1 NMtDS0=    0 NMtDT0=    0
 Symmetry not used in FoFCou.
 Two-electron integral symmetry not used.
 Closed shell SCF:
 Using DIIS extrapolation, IDIIS=  1040.
 NGot= 16106127360 LenX= 15990129197 LenY= 15990087140
 Requested convergence on RMS density matrix=1.00D-08 within 128 cycles.
 Requested convergence on MAX density matrix=1.00D-06.
 Requested convergence on             energy=1.00D-06.
 No special actions if energy rises.

 Cycle   1  Pass 1  IDiag  1:
 E= -950.365621300304    
 DIIS: error= 2.42D-02 at cycle   1 NSaved=   1.
 NSaved= 1 IEnMin= 1 EnMin= -950.365621300304     IErMin= 1 ErrMin= 2.42D-02
 ErrMax= 2.42D-02  0.00D+00 EMaxC= 1.00D-01 BMatC= 3.46D-01 BMatP= 3.46D-01
 IDIUse=3 WtCom= 7.58D-01 WtEn= 2.42D-01
 Coeff-Com:  0.100D+01
 Coeff-En:   0.100D+01
 Coeff:      0.100D+01
 Gap=     0.557 Goal=   None    Shift=    0.000
 GapD=    0.557 DampG=2.000 DampE=0.500 DampFc=1.0000 IDamp=-1.
 RMSDP=3.90D-03 MaxDP=2.65D-01              OVMax= 1.31D-01

 Cycle   2  Pass 1  IDiag  1:
 E= -950.489938337901     Delta-E=       -0.124317037597 Rises=F Damp=F
 DIIS: error= 1.21D-02 at cycle   2 NSaved=   2.
 NSaved= 2 IEnMin= 2 EnMin= -950.489938337901     IErMin= 2 ErrMin= 1.21D-02
 ErrMax= 1.21D-02  0.00D+00 EMaxC= 1.00D-01 BMatC= 4.32D-02 BMatP= 3.46D-01
 IDIUse=3 WtCom= 8.79D-01 WtEn= 1.21D-01
 Coeff-Com:  0.179D+00 0.821D+00
 Coeff-En:   0.000D+00 0.100D+01
 Coeff:      0.158D+00 0.842D+00
 Gap=     0.331 Goal=   None    Shift=    0.000
 RMSDP=1.08D-03 MaxDP=5.02D-02 DE=-1.24D-01 OVMax= 6.66D-02

 Cycle   3  Pass 1  IDiag  1:
 E= -950.512699715555     Delta-E=       -0.022761377653 Rises=F Damp=F
 DIIS: error= 5.19D-03 at cycle   3 NSaved=   3.
 NSaved= 3 IEnMin= 3 EnMin= -950.512699715555     IErMin= 3 ErrMin= 5.19D-03
 ErrMax= 5.19D-03  0.00D+00 EMaxC= 1.00D-01 BMatC= 9.83D-03 BMatP= 4.32D-02
 IDIUse=3 WtCom= 9.48D-01 WtEn= 5.19D-02
 Coeff-Com: -0.108D-01 0.311D+00 0.700D+00
 Coeff-En:   0.000D+00 0.462D-01 0.954D+00
 Coeff:     -0.102D-01 0.297D+00 0.713D+00
 Gap=     0.328 Goal=   None    Shift=    0.000
 RMSDP=3.28D-04 MaxDP=1.20D-02 DE=-2.28D-02 OVMax= 3.10D-02

 Cycle   4  Pass 1  IDiag  1:
 E= -950.519328324431     Delta-E=       -0.006628608876 Rises=F Damp=F
 DIIS: error= 9.99D-04 at cycle   4 NSaved=   4.
 NSaved= 4 IEnMin= 4 EnMin= -950.519328324431     IErMin= 4 ErrMin= 9.99D-04
 ErrMax= 9.99D-04  0.00D+00 EMaxC= 1.00D-01 BMatC= 2.08D-04 BMatP= 9.83D-03
 IDIUse=3 WtCom= 9.90D-01 WtEn= 9.99D-03
 Coeff-Com: -0.458D-02 0.396D-01 0.156D+00 0.809D+00
 Coeff-En:   0.000D+00 0.000D+00 0.000D+00 0.100D+01
 Coeff:     -0.453D-02 0.392D-01 0.155D+00 0.811D+00
 Gap=     0.323 Goal=   None    Shift=    0.000
 RMSDP=6.64D-05 MaxDP=1.98D-03 DE=-6.63D-03 OVMax= 2.97D-03

 Cycle   5  Pass 1  IDiag  1:
 E= -950.519519437547     Delta-E=       -0.000191113116 Rises=F Damp=F
 DIIS: error= 2.33D-04 at cycle   5 NSaved=   5.
 NSaved= 5 IEnMin= 5 EnMin= -950.519519437547     IErMin= 5 ErrMin= 2.33D-04
 ErrMax= 2.33D-04  0.00D+00 EMaxC= 1.00D-01 BMatC= 2.03D-05 BMatP= 2.08D-04
 IDIUse=3 WtCom= 9.98D-01 WtEn= 2.33D-03
 Coeff-Com: -0.436D-03-0.325D-01-0.582D-01 0.726D-01 0.102D+01
 Coeff-En:   0.000D+00 0.000D+00 0.000D+00 0.000D+00 0.100D+01
 Coeff:     -0.435D-03-0.324D-01-0.581D-01 0.724D-01 0.102D+01
 Gap=     0.324 Goal=   None    Shift=    0.000
 RMSDP=3.57D-05 MaxDP=1.21D-03 DE=-1.91D-04 OVMax= 3.26D-03

 Cycle   6  Pass 1  IDiag  1:
 E= -950.519562416833     Delta-E=       -0.000042979287 Rises=F Damp=F
 DIIS: error= 1.00D-04 at cycle   6 NSaved=   6.
 NSaved= 6 IEnMin= 6 EnMin= -950.519562416833     IErMin= 6 ErrMin= 1.00D-04
 ErrMax= 1.00D-04  0.00D+00 EMaxC= 1.00D-01 BMatC= 2.83D-06 BMatP= 2.03D-05
 IDIUse=3 WtCom= 9.99D-01 WtEn= 1.00D-03
 Coeff-Com:  0.929D-03 0.596D-03-0.466D-03-0.957D-01-0.310D+00 0.140D+01
 Coeff-En:   0.000D+00 0.000D+00 0.000D+00 0.000D+00 0.000D+00 0.100D+01
 Coeff:      0.928D-03 0.595D-03-0.465D-03-0.956D-01-0.310D+00 0.140D+01
 Gap=     0.324 Goal=   None    Shift=    0.000
 RMSDP=1.97D-05 MaxDP=6.75D-04 DE=-4.30D-05 OVMax= 1.87D-03

 Cycle   7  Pass 1  IDiag  1:
 E= -950.519572203359     Delta-E=       -0.000009786526 Rises=F Damp=F
 DIIS: error= 3.59D-05 at cycle   7 NSaved=   7.
 NSaved= 7 IEnMin= 7 EnMin= -950.519572203359     IErMin= 7 ErrMin= 3.59D-05
 ErrMax= 3.59D-05  0.00D+00 EMaxC= 1.00D-01 BMatC= 1.96D-07 BMatP= 2.83D-06
 IDIUse=1 WtCom= 1.00D+00 WtEn= 0.00D+00
 Coeff-Com: -0.311D-03 0.245D-02 0.610D-02 0.192D-01 0.307D-01-0.478D+00
 Coeff-Com:  0.142D+01
 Coeff:     -0.311D-03 0.245D-02 0.610D-02 0.192D-01 0.307D-01-0.478D+00
 Coeff:      0.142D+01
 Gap=     0.324 Goal=   None    Shift=    0.000
 RMSDP=6.20D-06 MaxDP=2.19D-04 DE=-9.79D-06 OVMax= 6.07D-04

 Cycle   8  Pass 1  IDiag  1:
 E= -950.519573027788     Delta-E=       -0.000000824429 Rises=F Damp=F
 DIIS: error= 7.24D-06 at cycle   8 NSaved=   8.
 NSaved= 8 IEnMin= 8 EnMin= -950.519573027788     IErMin= 8 ErrMin= 7.24D-06
 ErrMax= 7.24D-06  0.00D+00 EMaxC= 1.00D-01 BMatC= 1.59D-08 BMatP= 1.96D-07
 IDIUse=1 WtCom= 1.00D+00 WtEn= 0.00D+00
 Coeff-Com: -0.639D-04-0.229D-03-0.118D-03 0.853D-02 0.330D-01-0.151D+00
 Coeff-Com:  0.889D-01 0.102D+01
 Coeff:     -0.639D-04-0.229D-03-0.118D-03 0.853D-02 0.330D-01-0.151D+00
 Coeff:      0.889D-01 0.102D+01
 Gap=     0.324 Goal=   None    Shift=    0.000
 RMSDP=1.31D-06 MaxDP=4.06D-05 DE=-8.24D-07 OVMax= 1.27D-04

 Cycle   9  Pass 1  IDiag  1:
 E= -950.519573073433     Delta-E=       -0.000000045645 Rises=F Damp=F
 DIIS: error= 3.35D-06 at cycle   9 NSaved=   9.
 NSaved= 9 IEnMin= 9 EnMin= -950.519573073433     IErMin= 9 ErrMin= 3.35D-06
 ErrMax= 3.35D-06  0.00D+00 EMaxC= 1.00D-01 BMatC= 1.94D-09 BMatP= 1.59D-08
 IDIUse=1 WtCom= 1.00D+00 WtEn= 0.00D+00
 Coeff-Com:  0.332D-04-0.254D-03-0.500D-03-0.266D-02-0.942D-02 0.724D-01
 Coeff-Com: -0.156D+00-0.193D+00 0.129D+01
 Coeff:      0.332D-04-0.254D-03-0.500D-03-0.266D-02-0.942D-02 0.724D-01
 Coeff:     -0.156D+00-0.193D+00 0.129D+01
 Gap=     0.324 Goal=   None    Shift=    0.000
 RMSDP=6.37D-07 MaxDP=2.11D-05 DE=-4.56D-08 OVMax= 6.94D-05

 Cycle  10  Pass 1  IDiag  1:
 E= -950.519573081834     Delta-E=       -0.000000008402 Rises=F Damp=F
 DIIS: error= 1.73D-06 at cycle  10 NSaved=  10.
 NSaved=10 IEnMin=10 EnMin= -950.519573081834     IErMin=10 ErrMin= 1.73D-06
 ErrMax= 1.73D-06  0.00D+00 EMaxC= 1.00D-01 BMatC= 2.93D-10 BMatP= 1.94D-09
 IDIUse=1 WtCom= 1.00D+00 WtEn= 0.00D+00
 Coeff-Com: -0.413D-05 0.130D-03 0.185D-03-0.164D-03 0.194D-03-0.992D-02
 Coeff-Com:  0.496D-01-0.556D-01-0.513D+00 0.153D+01
 Coeff:     -0.413D-05 0.130D-03 0.185D-03-0.164D-03 0.194D-03-0.992D-02
 Coeff:      0.496D-01-0.556D-01-0.513D+00 0.153D+01
 Gap=     0.324 Goal=   None    Shift=    0.000
 RMSDP=3.20D-07 MaxDP=6.66D-06 DE=-8.40D-09 OVMax= 3.72D-05

 Cycle  11  Pass 1  IDiag  1:
 E= -950.519573083490     Delta-E=       -0.000000001656 Rises=F Damp=F
 DIIS: error= 5.94D-07 at cycle  11 NSaved=  11.
 NSaved=11 IEnMin=11 EnMin= -950.519573083490     IErMin=11 ErrMin= 5.94D-07
 ErrMax= 5.94D-07  0.00D+00 EMaxC= 1.00D-01 BMatC= 2.69D-11 BMatP= 2.93D-10
 IDIUse=1 WtCom= 1.00D+00 WtEn= 0.00D+00
 Coeff-Com: -0.284D-05 0.144D-05 0.133D-04 0.372D-03 0.830D-03-0.568D-02
 Coeff-Com:  0.722D-02 0.297D-01-0.231D-01-0.380D+00 0.137D+01
 Coeff:     -0.284D-05 0.144D-05 0.133D-04 0.372D-03 0.830D-03-0.568D-02
 Coeff:      0.722D-02 0.297D-01-0.231D-01-0.380D+00 0.137D+01
 Gap=     0.324 Goal=   None    Shift=    0.000
 RMSDP=1.04D-07 MaxDP=2.19D-06 DE=-1.66D-09 OVMax= 1.13D-05

 Cycle  12  Pass 1  IDiag  1:
 E= -950.519573083638     Delta-E=       -0.000000000148 Rises=F Damp=F
 DIIS: error= 9.78D-08 at cycle  12 NSaved=  12.
 NSaved=12 IEnMin=12 EnMin= -950.519573083638     IErMin=12 ErrMin= 9.78D-08
 ErrMax= 9.78D-08  0.00D+00 EMaxC= 1.00D-01 BMatC= 1.74D-12 BMatP= 2.69D-11
 IDIUse=1 WtCom= 1.00D+00 WtEn= 0.00D+00
 Coeff-Com:  0.180D-06-0.119D-04-0.168D-04 0.459D-04 0.152D-04 0.637D-03
 Coeff-Com: -0.430D-02 0.617D-02 0.465D-01-0.148D+00 0.393D-01 0.106D+01
 Coeff:      0.180D-06-0.119D-04-0.168D-04 0.459D-04 0.152D-04 0.637D-03
 Coeff:     -0.430D-02 0.617D-02 0.465D-01-0.148D+00 0.393D-01 0.106D+01
 Gap=     0.324 Goal=   None    Shift=    0.000
 RMSDP=2.20D-08 MaxDP=8.91D-07 DE=-1.48D-10 OVMax= 1.75D-06

 Cycle  13  Pass 1  IDiag  1:
 E= -950.519573083643     Delta-E=       -0.000000000005 Rises=F Damp=F
 DIIS: error= 3.34D-08 at cycle  13 NSaved=  13.
 NSaved=13 IEnMin=13 EnMin= -950.519573083643     IErMin=13 ErrMin= 3.34D-08
 ErrMax= 3.34D-08  0.00D+00 EMaxC= 1.00D-01 BMatC= 2.10D-13 BMatP= 1.74D-12
 IDIUse=1 WtCom= 1.00D+00 WtEn= 0.00D+00
 Coeff-Com:  0.207D-06 0.300D-05 0.262D-05-0.468D-04-0.668D-04 0.311D-03
 Coeff-Com:  0.422D-03-0.335D-02-0.113D-01 0.674D-01-0.107D+00-0.334D+00
 Coeff-Com:  0.139D+01
 Coeff:      0.207D-06 0.300D-05 0.262D-05-0.468D-04-0.668D-04 0.311D-03
 Coeff:      0.422D-03-0.335D-02-0.113D-01 0.674D-01-0.107D+00-0.334D+00
 Coeff:      0.139D+01
 Gap=     0.324 Goal=   None    Shift=    0.000
 RMSDP=8.65D-09 MaxDP=4.18D-07 DE=-5.23D-12 OVMax= 7.82D-07

 SCF Done:  E(RHF) =  -950.519573084     A.U. after   13 cycles
            NFock= 13  Conv=0.87D-08     -V/T= 2.1444
 KE= 8.305651029473D+02 PE=-2.611548078062D+03 EE= 6.799304783692D+02
 Leave Link  502 at Thu Sep 30 14:39:52 2021, MaxMem= 16106127360 cpu:              36.4 elap:               3.8
 (Enter /sw/contrib/gaussian/g16/B01/g16/l801.exe)
 ExpMin= 2.53D-02 ExpMax= 4.56D+05 ExpMxC= 1.44D+03 IAcc=3 IRadAn=         5 AccDes= 0.00D+00
 HarFok:  IExCor=  205 AccDes= 0.00D+00 IRadAn=         5 IDoV=-2 UseB2=F ITyADJ=14
 ICtDFT= 12500011 ScaDFX=  1.000000  1.000000  1.000000  1.000000
 Largest valence mixing into a core orbital is  4.47D-04
 Largest core mixing into a valence orbital is  1.58D-04
 Range of M.O.s used for correlation:    11   174
 NBasis=   174 NAE=    26 NBE=    26 NFC=    10 NFV=     0
 NROrb=    164 NOA=    16 NOB=    16 NVA=   148 NVB=   148

 **** Warning!!: The largest alpha MO coefficient is  0.11863925D+02

 Leave Link  801 at Thu Sep 30 14:39:53 2021, MaxMem= 16106127360 cpu:               2.0 elap:               0.1
 (Enter /sw/contrib/gaussian/g16/B01/g16/l906.exe)
 Frozen-core derivative calculation, NFC=  10 NFV=   0.
 FulOut=F Deriv=T AODrv=F NAtomX=     4
   MMem=         130  MDisk=          16 MDiskD=          16
  W3Min=      922896 MinDsk=     1491158 NBas6D=         204
 NBas2D=       21411    NTT=       20910    LW2=    16556320
    MDV= 16105732606 MDiskM=      394699 NBas2p=       21383
 Fully in-core method, ICMem=   510791049.
 IMap=   1   2   3   4   5   6   7   8   9  10  11  12  13  14  15  16  17  18  19  20
 IMap=  21  22  23  24  25  26
 JobTyp=1 Pass  1 fully in-core, NPsUse= 28.
 Compute canonical integrals.
 FoFCou: FMM=F IPFlag=           0 FMFlag=           0 FMFlg1=           0
         NFxFlg=           0 DoJE=F BraDBF=F KetDBF=F FulRan=T
         wScrn=  0.000000 ICntrl=       600 IOpCl=  1 I1Cent=           0 NGrid=           0
         NMat0=    1 NMatS0=  21411 NMatT0=    0 NMatD0=    1 NMtDS0=    0 NMtDT0=    0
 Symmetry not used in FoFCou.
 Spin components of T(2) and E(2):
     alpha-alpha T2 =       0.3022110913D-01 E2=     -0.9356629596D-01
     alpha-beta  T2 =       0.1612553917D+00 E2=     -0.5148316855D+00
     beta-beta   T2 =       0.3022110913D-01 E2=     -0.9356629596D-01
 The integrals were generated   1 times.
 ANorm=    0.1105304307D+01
 E2 =    -0.7019642774D+00 EUMP2 =    -0.95122153736104D+03
 Leave Link  906 at Thu Sep 30 14:39:59 2021, MaxMem= 16106127360 cpu:             166.4 elap:               6.0
 (Enter /sw/contrib/gaussian/g16/B01/g16/l1002.exe)
 Minotr:  Closed shell wavefunction.
          Computing MP2/KS-MP2 derivatives.
          Using Z-Vector for PSCF gradient.
          Skipping F1 and S1 gradient terms here.
          Frozen-core window.
          Direct CPHF calculation.
          Differentiating once with respect to electric field.
                with respect to dipole field.
          Electric field/nuclear overlap derivatives assumed to be zero.
          Requested convergence is 1.0D-10 RMS, and 1.0D-09 maximum.
          NewPWx=F KeepS1=T KeepF1=T KeepIn=T MapXYZ=F SortEE=F KeepMc=T.
 Keep R1 ints in memory in canonical form, NReq=152801945.
 FoFCou: FMM=F IPFlag=           0 FMFlag=           0 FMFlg1=           0
         NFxFlg=           0 DoJE=F BraDBF=F KetDBF=F FulRan=T
         wScrn=  0.000000 ICntrl=       600 IOpCl=  0 I1Cent=           0 NGrid=           0
         NMat0=    1 NMatS0=  15225 NMatT0=    0 NMatD0=    1 NMtDS0=    0 NMtDT0=    0
 Symmetry not used in FoFCou.
 Two-electron integral symmetry not used.
          MDV=   16106127360 using IRadAn=       5.
          Solving linear equations separately, MaxMat=       0.
          There are     1 degrees of freedom in the 1st order CPHF.  IDoFFX=0 NUNeed=     1.
 LinEq1:  Iter=  0 NonCon=     1 RMS=2.89D-03 Max=3.86D-02 NDo=     1
 AX will form     1 AO Fock derivatives at one time.
 LinEq1:  Iter=  1 NonCon=     1 RMS=4.66D-04 Max=4.49D-03 NDo=     1
 LinEq1:  Iter=  2 NonCon=     1 RMS=2.17D-04 Max=3.89D-03 NDo=     1
 LinEq1:  Iter=  3 NonCon=     1 RMS=6.89D-05 Max=8.95D-04 NDo=     1
 LinEq1:  Iter=  4 NonCon=     1 RMS=2.98D-05 Max=8.62D-04 NDo=     1
 LinEq1:  Iter=  5 NonCon=     1 RMS=1.11D-05 Max=1.88D-04 NDo=     1
 LinEq1:  Iter=  6 NonCon=     1 RMS=2.84D-06 Max=7.05D-05 NDo=     1
 LinEq1:  Iter=  7 NonCon=     1 RMS=8.30D-07 Max=1.72D-05 NDo=     1
 LinEq1:  Iter=  8 NonCon=     1 RMS=2.59D-07 Max=3.83D-06 NDo=     1
 LinEq1:  Iter=  9 NonCon=     1 RMS=6.95D-08 Max=6.71D-07 NDo=     1
 LinEq1:  Iter= 10 NonCon=     1 RMS=1.73D-08 Max=2.25D-07 NDo=     1
 LinEq1:  Iter= 11 NonCon=     1 RMS=3.89D-09 Max=7.95D-08 NDo=     1
 LinEq1:  Iter= 12 NonCon=     1 RMS=8.06D-10 Max=2.14D-08 NDo=     1
 LinEq1:  Iter= 13 NonCon=     1 RMS=2.42D-10 Max=3.37D-09 NDo=     1
 LinEq1:  Iter= 14 NonCon=     0 RMS=6.97D-11 Max=7.51D-10 NDo=     1
 Linear equations converged to 1.000D-10 1.000D-09 after    14 iterations.
 End of Minotr F.D. properties file   721 does not exist.
 End of Minotr F.D. properties file   722 does not exist.
 End of Minotr F.D. properties file   788 does not exist.
 Leave Link 1002 at Thu Sep 30 14:40:03 2021, MaxMem= 16106127360 cpu:              36.8 elap:               4.3
 (Enter /sw/contrib/gaussian/g16/B01/g16/l601.exe)
 Copying SCF densities to generalized density rwf, IOpCl= 0 IROHF=0.

 **********************************************************************

            Population analysis using the MP2 Density.

 **********************************************************************

 Alpha  occ. eigenvalues -- -104.73414 -20.46702 -10.45367  -9.55413  -7.92085
 Alpha  occ. eigenvalues --   -7.91818  -7.91806  -7.30210  -7.30149  -7.30144
 Alpha  occ. eigenvalues --   -2.85312  -2.85292  -2.85286  -2.85226  -2.85226
 Alpha  occ. eigenvalues --   -1.23480  -0.89891  -0.75112  -0.54463  -0.44647
 Alpha  occ. eigenvalues --   -0.43798  -0.31093  -0.28410  -0.17830  -0.16988
 Alpha  occ. eigenvalues --   -0.16939
 Alpha virt. eigenvalues --    0.15481   0.18050   0.22322   0.23055   0.25230
 Alpha virt. eigenvalues --    0.26581   0.26923   0.28464   0.29874   0.30799
 Alpha virt. eigenvalues --    0.32904   0.33277   0.36050   0.41633   0.43938
 Alpha virt. eigenvalues --    0.45814   0.48160   0.48632   0.50943   0.53946
 Alpha virt. eigenvalues --    0.55029   0.56150   0.58011   0.59188   0.59869
 Alpha virt. eigenvalues --    0.61100   0.65247   0.69592   0.75539   0.78026
 Alpha virt. eigenvalues --    0.81012   0.83712   0.84113   0.86635   0.87964
 Alpha virt. eigenvalues --    0.88525   0.89293   0.94037   0.97293   0.98074
 Alpha virt. eigenvalues --    0.99154   0.99316   1.00135   1.01490   1.04474
 Alpha virt. eigenvalues --    1.06652   1.08626   1.09198   1.11395   1.12648
 Alpha virt. eigenvalues --    1.14377   1.15139   1.15479   1.16972   1.19066
 Alpha virt. eigenvalues --    1.21705   1.25335   1.28152   1.29479   1.35030
 Alpha virt. eigenvalues --    1.36306   1.38231   1.43487   1.46748   1.48990
 Alpha virt. eigenvalues --    1.53169   1.56779   1.59721   1.65785   1.69298
 Alpha virt. eigenvalues --    1.71059   1.74345   1.78956   1.80297   1.87802
 Alpha virt. eigenvalues --    1.97024   2.14207   2.38863   2.39288   2.44405
 Alpha virt. eigenvalues --    2.46416   2.46988   2.49557   2.51313   2.52683
 Alpha virt. eigenvalues --    2.52780   2.54098   2.54435   2.55391   2.56573
 Alpha virt. eigenvalues --    2.59240   2.61258   2.62605   2.64584   2.65953
 Alpha virt. eigenvalues --    2.66670   2.68691   2.69317   2.71061   2.72123
 Alpha virt. eigenvalues --    2.74039   2.74906   2.78419   2.79291   2.83254
 Alpha virt. eigenvalues --    2.88051   2.92346   3.01898   3.06437   3.10285
 Alpha virt. eigenvalues --    3.18162   3.20150   3.22625   3.25527   3.29821
 Alpha virt. eigenvalues --    3.32001   3.39360   3.51921   3.54781   3.58579
 Alpha virt. eigenvalues --    3.92008   4.18489   4.32865   4.49390   4.55950
 Alpha virt. eigenvalues --    4.60914   4.74990   4.97829   5.04916   5.34346
 Alpha virt. eigenvalues --    5.41897   5.67200   6.41265   6.58478   6.87273
 Alpha virt. eigenvalues --    6.90012   6.91811   6.99189   7.30725   7.34086
 Alpha virt. eigenvalues --    7.34813   7.43785   7.53776   7.74162   7.77464
 Alpha virt. eigenvalues --    8.35142  14.43650  79.88482
          Condensed to atoms (all electrons):
               1          2          3          4
     1  O    8.607019  -0.074654  -0.118250   0.043125
     2  Br  -0.074654  25.914156   0.006294   0.030506
     3  Cl  -0.118250   0.006294  17.063275  -0.004838
     4  H    0.043125   0.030506  -0.004838   0.651183
 Mulliken charges:
               1
     1  O   -0.457240
     2  Br  -0.876302
     3  Cl   0.053519
     4  H    0.280023
 Sum of Mulliken charges =  -1.00000
 Mulliken charges with hydrogens summed into heavy atoms:
               1
     1  O   -0.177216
     2  Br  -0.876302
     3  Cl   0.053519
 Electronic spatial extent (au):  <R**2>=           1139.4146
 Charge=             -1.0000 electrons
 Dipole moment (field-independent basis, Debye):
    X=            -10.8727    Y=             -0.6182    Z=              0.2398  Tot=             10.8929
 Quadrupole moment (field-independent basis, Debye-Ang):
   XX=            -80.1364   YY=            -42.9845   ZZ=            -42.6644
   XY=              0.4399   XZ=              0.0706   YZ=             -0.1081
 Traceless Quadrupole moment (field-independent basis, Debye-Ang):
   XX=            -24.8746   YY=             12.2773   ZZ=             12.5974
   XY=              0.4399   XZ=              0.0706   YZ=             -0.1081
 Octapole moment (field-independent basis, Debye-Ang**2):
  XXX=           -310.1448  YYY=            -62.7274  ZZZ=             -1.2926  XYY=            -65.5279
  XXY=            -21.7222  XXZ=             -2.1382  XZZ=            -64.8386  YZZ=            -22.2606
  YYZ=             -0.6428  XYZ=              0.0676
 Hexadecapole moment (field-independent basis, Debye-Ang**3):
 XXXX=          -1707.4235 YYYY=           -257.9398 ZZZZ=            -62.4569 XXXY=             28.2965
 XXXZ=             -8.7393 YYYX=             22.0492 YYYZ=             -0.5360 ZZZX=             -1.9929
 ZZZY=             -0.1711 XXYY=           -273.4039 XXZZ=           -237.8451 YYZZ=            -57.9121
 XXYZ=             -0.1239 YYXZ=             -0.4749 ZZXY=              9.2709
 N-N= 1.505329236617D+02 E-N=-2.610345911482D+03  KE= 8.303973738634D+02
 No NMR shielding tensors so no spin-rotation constants.
 Leave Link  601 at Thu Sep 30 14:40:04 2021, MaxMem= 16106127360 cpu:              18.5 elap:               0.8
 (Enter /sw/contrib/gaussian/g16/B01/g16/l607.exe)
 ******************************Gaussian NBO Version 3.1******************************
             N A T U R A L   A T O M I C   O R B I T A L   A N D
          N A T U R A L   B O N D   O R B I T A L   A N A L Y S I S
 ******************************Gaussian NBO Version 3.1******************************
       /RESON  / : Allow strongly delocalized NBO set

 Analyzing the MP2 density

 Job title: title                                                           

 Storage needed:     91686 in NPA,    121697 in NBO (********** available)
 GSVD:  LWork=        2436 too small for GESVD, short by       52200 words or       52200 for optimal perf.


 NATURAL POPULATIONS:  Natural atomic orbital occupancies 
                                                          
   NAO  Atom  No  lang   Type(AO)    Occupancy
 --------------------------------------------
     1    O    1  S      Cor( 1S)     1.99970
     2    O    1  S      Val( 2S)     1.79133
     3    O    1  S      Ryd( 3S)     0.00950
     4    O    1  S      Ryd( 4S)     0.00114
     5    O    1  S      Ryd( 5S)     0.00019
     6    O    1  px     Val( 2p)     1.67160
     7    O    1  px     Ryd( 3p)     0.01209
     8    O    1  px     Ryd( 4p)     0.00074
     9    O    1  px     Ryd( 5p)     0.00045
    10    O    1  py     Val( 2p)     1.26861
    11    O    1  py     Ryd( 3p)     0.00781
    12    O    1  py     Ryd( 4p)     0.00063
    13    O    1  py     Ryd( 5p)     0.00036
    14    O    1  pz     Val( 2p)     1.91090
    15    O    1  pz     Ryd( 3p)     0.01903
    16    O    1  pz     Ryd( 4p)     0.00068
    17    O    1  pz     Ryd( 5p)     0.00021
    18    O    1  dxy    Ryd( 3d)     0.00935
    19    O    1  dxy    Ryd( 4d)     0.00047
    20    O    1  dxy    Ryd( 5d)     0.00018
    21    O    1  dxz    Ryd( 3d)     0.00915
    22    O    1  dxz    Ryd( 4d)     0.00059
    23    O    1  dxz    Ryd( 5d)     0.00025
    24    O    1  dyz    Ryd( 3d)     0.00944
    25    O    1  dyz    Ryd( 4d)     0.00057
    26    O    1  dyz    Ryd( 5d)     0.00011
    27    O    1  dx2y2  Ryd( 3d)     0.01194
    28    O    1  dx2y2  Ryd( 4d)     0.00039
    29    O    1  dx2y2  Ryd( 5d)     0.00016
    30    O    1  dz2    Ryd( 3d)     0.00911
    31    O    1  dz2    Ryd( 4d)     0.00057
    32    O    1  dz2    Ryd( 5d)     0.00019
    33    O    1  f(0)   Ryd( 4f)     0.00067
    34    O    1  f(0)   Ryd( 5f)     0.00011
    35    O    1  f(C1)  Ryd( 4f)     0.00060
    36    O    1  f(C1)  Ryd( 5f)     0.00011
    37    O    1  f(S1)  Ryd( 4f)     0.00064
    38    O    1  f(S1)  Ryd( 5f)     0.00011
    39    O    1  f(C2)  Ryd( 4f)     0.00060
    40    O    1  f(C2)  Ryd( 5f)     0.00013
    41    O    1  f(S2)  Ryd( 4f)     0.00058
    42    O    1  f(S2)  Ryd( 5f)     0.00012
    43    O    1  f(C3)  Ryd( 4f)     0.00057
    44    O    1  f(C3)  Ryd( 5f)     0.00015
    45    O    1  f(S3)  Ryd( 4f)     0.00057
    46    O    1  f(S3)  Ryd( 5f)     0.00012

    47   Br    2  S      Cor( 3S)     1.99990
    48   Br    2  S      Val( 4S)     1.97189
    49   Br    2  S      Ryd( 5S)     0.00217
    50   Br    2  S      Ryd( 6S)     0.00046
    51   Br    2  S      Ryd( 7S)     0.00018
    52   Br    2  S      Ryd( 8S)     0.00000
    53   Br    2  px     Cor( 3p)     1.99995
    54   Br    2  px     Val( 4p)     1.87453
    55   Br    2  px     Ryd( 5p)     0.00987
    56   Br    2  px     Ryd( 6p)     0.00073
    57   Br    2  px     Ryd( 7p)     0.00014
    58   Br    2  py     Cor( 3p)     2.00001
    59   Br    2  py     Val( 4p)     1.95348
    60   Br    2  py     Ryd( 5p)     0.01148
    61   Br    2  py     Ryd( 6p)     0.00080
    62   Br    2  py     Ryd( 7p)     0.00010
    63   Br    2  pz     Cor( 3p)     2.00001
    64   Br    2  pz     Val( 4p)     1.94924
    65   Br    2  pz     Ryd( 5p)     0.01145
    66   Br    2  pz     Ryd( 6p)     0.00079
    67   Br    2  pz     Ryd( 7p)     0.00010
    68   Br    2  dxy    Cor( 3d)     1.99768
    69   Br    2  dxy    Ryd( 4d)     0.01874
    70   Br    2  dxy    Ryd( 5d)     0.00142
    71   Br    2  dxy    Ryd( 6d)     0.00022
    72   Br    2  dxz    Cor( 3d)     1.99768
    73   Br    2  dxz    Ryd( 4d)     0.01882
    74   Br    2  dxz    Ryd( 5d)     0.00148
    75   Br    2  dxz    Ryd( 6d)     0.00020
    76   Br    2  dyz    Cor( 3d)     1.99771
    77   Br    2  dyz    Ryd( 4d)     0.01849
    78   Br    2  dyz    Ryd( 5d)     0.00173
    79   Br    2  dyz    Ryd( 6d)     0.00022
    80   Br    2  dx2y2  Cor( 3d)     1.99765
    81   Br    2  dx2y2  Ryd( 4d)     0.01826
    82   Br    2  dx2y2  Ryd( 5d)     0.00164
    83   Br    2  dx2y2  Ryd( 6d)     0.00022
    84   Br    2  dz2    Cor( 3d)     1.99769
    85   Br    2  dz2    Ryd( 4d)     0.01841
    86   Br    2  dz2    Ryd( 5d)     0.00168
    87   Br    2  dz2    Ryd( 6d)     0.00020
    88   Br    2  f(0)   Ryd( 4f)     0.00173
    89   Br    2  f(0)   Ryd( 5f)     0.00026
    90   Br    2  f(C1)  Ryd( 4f)     0.00173
    91   Br    2  f(C1)  Ryd( 5f)     0.00028
    92   Br    2  f(S1)  Ryd( 4f)     0.00173
    93   Br    2  f(S1)  Ryd( 5f)     0.00025
    94   Br    2  f(C2)  Ryd( 4f)     0.00172
    95   Br    2  f(C2)  Ryd( 5f)     0.00026
    96   Br    2  f(S2)  Ryd( 4f)     0.00175
    97   Br    2  f(S2)  Ryd( 5f)     0.00026
    98   Br    2  f(C3)  Ryd( 4f)     0.00173
    99   Br    2  f(C3)  Ryd( 5f)     0.00028
   100   Br    2  f(S3)  Ryd( 4f)     0.00168
   101   Br    2  f(S3)  Ryd( 5f)     0.00026

   102   Cl    3  S      Cor( 1S)     2.00000
   103   Cl    3  S      Cor( 2S)     1.99979
   104   Cl    3  S      Val( 3S)     1.88216
   105   Cl    3  S      Ryd( 4S)     0.00796
   106   Cl    3  S      Ryd( 5S)     0.00053
   107   Cl    3  S      Ryd( 6S)     0.00017
   108   Cl    3  px     Cor( 2p)     2.00003
   109   Cl    3  px     Val( 3p)     1.89090
   110   Cl    3  px     Ryd( 4p)     0.00957
   111   Cl    3  px     Ryd( 5p)     0.00054
   112   Cl    3  px     Ryd( 6p)     0.00008
   113   Cl    3  py     Cor( 2p)     1.99996
   114   Cl    3  py     Val( 3p)     0.96875
   115   Cl    3  py     Ryd( 4p)     0.00695
   116   Cl    3  py     Ryd( 5p)     0.00052
   117   Cl    3  py     Ryd( 6p)     0.00023
   118   Cl    3  pz     Cor( 2p)     2.00003
   119   Cl    3  pz     Val( 3p)     1.95441
   120   Cl    3  pz     Ryd( 4p)     0.01053
   121   Cl    3  pz     Ryd( 5p)     0.00065
   122   Cl    3  pz     Ryd( 6p)     0.00003
   123   Cl    3  dxy    Ryd( 3d)     0.01762
   124   Cl    3  dxy    Ryd( 4d)     0.00070
   125   Cl    3  dxy    Ryd( 5d)     0.00026
   126   Cl    3  dxz    Ryd( 3d)     0.01717
   127   Cl    3  dxz    Ryd( 4d)     0.00076
   128   Cl    3  dxz    Ryd( 5d)     0.00019
   129   Cl    3  dyz    Ryd( 3d)     0.02042
   130   Cl    3  dyz    Ryd( 4d)     0.00101
   131   Cl    3  dyz    Ryd( 5d)     0.00036
   132   Cl    3  dx2y2  Ryd( 3d)     0.01824
   133   Cl    3  dx2y2  Ryd( 4d)     0.00065
   134   Cl    3  dx2y2  Ryd( 5d)     0.00025
   135   Cl    3  dz2    Ryd( 3d)     0.01748
   136   Cl    3  dz2    Ryd( 4d)     0.00061
   137   Cl    3  dz2    Ryd( 5d)     0.00017
   138   Cl    3  f(0)   Ryd( 4f)     0.00130
   139   Cl    3  f(0)   Ryd( 5f)     0.00013
   140   Cl    3  f(C1)  Ryd( 4f)     0.00128
   141   Cl    3  f(C1)  Ryd( 5f)     0.00013
   142   Cl    3  f(S1)  Ryd( 4f)     0.00143
   143   Cl    3  f(S1)  Ryd( 5f)     0.00014
   144   Cl    3  f(C2)  Ryd( 4f)     0.00129
   145   Cl    3  f(C2)  Ryd( 5f)     0.00013
   146   Cl    3  f(S2)  Ryd( 4f)     0.00123
   147   Cl    3  f(S2)  Ryd( 5f)     0.00013
   148   Cl    3  f(C3)  Ryd( 4f)     0.00141
   149   Cl    3  f(C3)  Ryd( 5f)     0.00013
   150   Cl    3  f(S3)  Ryd( 4f)     0.00144
   151   Cl    3  f(S3)  Ryd( 5f)     0.00014

   152    H    4  S      Val( 1S)     0.48912
   153    H    4  S      Ryd( 2S)     0.00810
   154    H    4  S      Ryd( 3S)     0.00030
   155    H    4  S      Ryd( 4S)     0.00016
   156    H    4  px     Ryd( 2p)     0.00576
   157    H    4  px     Ryd( 3p)     0.00094
   158    H    4  px     Ryd( 4p)     0.00032
   159    H    4  py     Ryd( 2p)     0.00361
   160    H    4  py     Ryd( 3p)     0.00043
   161    H    4  py     Ryd( 4p)     0.00012
   162    H    4  pz     Ryd( 2p)     0.00473
   163    H    4  pz     Ryd( 3p)     0.00045
   164    H    4  pz     Ryd( 4p)     0.00022
   165    H    4  dxy    Ryd( 3d)     0.00027
   166    H    4  dxy    Ryd( 4d)     0.00009
   167    H    4  dxz    Ryd( 3d)     0.00036
   168    H    4  dxz    Ryd( 4d)     0.00011
   169    H    4  dyz    Ryd( 3d)     0.00022
   170    H    4  dyz    Ryd( 4d)     0.00006
   171    H    4  dx2y2  Ryd( 3d)     0.00023
   172    H    4  dx2y2  Ryd( 4d)     0.00013
   173    H    4  dz2    Ryd( 3d)     0.00027
   174    H    4  dz2    Ryd( 4d)     0.00009

 [ 10 electrons found in the effective core potential]

 WARNING:  5 low occupancy (<1.9990e) core orbitals found on Br    2


 Summary of Natural Population Analysis:                  
                                                          
                                       Natural Population 
                Natural  -----------------------------------------------
    Atom  No    Charge         Core      Valence    Rydberg      Total
 -----------------------------------------------------------------------
      O    1   -0.75252      1.99970     6.64245    0.11038     8.75252
     Br    2   -0.89135     27.98828     7.74914    0.15392    35.89135
     Cl    3    0.15998      9.99981     6.69623    0.14398    16.84002
      H    4    0.48389      0.00000     0.48912    0.02699     0.51611
 =======================================================================
   * Total *   -1.00000     39.98779    21.57694    0.43527    62.00000

                                 Natural Population      
 --------------------------------------------------------
   Effective Core            10.00000
   Core                      29.98779 ( 99.9593% of  30)
   Valence                   21.57694 ( 98.0770% of  22)
   Natural Minimal Basis     61.56473 ( 99.2980% of  62)
   Natural Rydberg Basis      0.43527 (  0.7020% of  62)
 --------------------------------------------------------

    Atom  No          Natural Electron Configuration
 ----------------------------------------------------------------------------
      O    1      [core]2S( 1.79)2p( 4.85)3S( 0.01)3p( 0.04)3d( 0.05)
     Br    2      [core]4S( 1.97)4p( 5.78)4d( 0.09)5p( 0.03)4f( 0.01)5d( 0.01)
     Cl    3      [core]3S( 1.88)3p( 4.81)4S( 0.01)3d( 0.09)4p( 0.03)4f( 0.01)
      H    4            1S( 0.49)2S( 0.01)2p( 0.01)


 NATURAL BOND ORBITAL ANALYSIS:

                       Occupancies       Lewis Structure    Low   High
           Occ.    -------------------  -----------------   occ   occ
  Cycle   Thresh.   Lewis   Non-Lewis     CR  BD  3C  LP    (L)   (NL)   Dev
 =============================================================================
   1(1)    1.90    61.44664   0.55336     15   2   0   9     1      1    0.13
   2(2)    1.90    61.44664   0.55336     15   2   0   9     1      1    0.13
   3(1)    1.80    61.44664   0.55336     15   2   0   9     0      1    0.13
   4(2)    1.80    61.44664   0.55336     15   2   0   9     0      1    0.13
   5(1)    1.70    61.44664   0.55336     15   2   0   9     0      1    0.13
   6(2)    1.70    61.44664   0.55336     15   2   0   9     0      1    0.13
   7(1)    1.60    61.44664   0.55336     15   2   0   9     0      1    0.13
   8(2)    1.60    61.44664   0.55336     15   2   0   9     0      1    0.13
   9(1)    1.50    61.06449   0.93551     15   1   0  10     0      1    0.57
  10(2)    1.50    61.06449   0.93551     15   1   0  10     0      1    0.57
  11(1)    1.90    61.44664   0.55336     15   2   0   9     1      1    0.13
 -----------------------------------------------------------------------------

 Structure accepted: RESONANCE keyword permits strongly delocalized structure

 WARNING:  5 low occupancy (<1.9990e) core orbitals found on Br    2

 --------------------------------------------------------
   Effective Core           10.00000
   Core                     29.98779 ( 99.959% of  30)
   Valence Lewis            21.45885 ( 97.540% of  22)
  ==================       ============================
   Total Lewis              61.44664 ( 99.107% of  62)
  -----------------------------------------------------
   Valence non-Lewis         0.16461 (  0.266% of  62)
   Rydberg non-Lewis         0.38875 (  0.627% of  62)
  ==================       ============================
   Total non-Lewis           0.55336 (  0.893% of  62)
 --------------------------------------------------------


       (Occupancy)   Bond orbital/ Coefficients/ Hybrids
 ---------------------------------------------------------------------------------
     1. (1.93952) BD ( 1) O   1 -Cl   3  
                ( 58.97%)   0.7679* O   1 s( 10.41%)p 8.56( 89.05%)d 0.05(  0.52%)
                                                  f 0.00(  0.02%)
                                            0.0003  0.3196 -0.0415 -0.0142 -0.0011
                                           -0.1995  0.0330  0.0071  0.0023  0.9211
                                           -0.0227 -0.0088 -0.0102  0.0203  0.0106
                                            0.0019 -0.0003 -0.0069 -0.0008 -0.0029
                                            0.0052  0.0005 -0.0010  0.0116  0.0015
                                           -0.0004 -0.0576 -0.0045 -0.0007 -0.0405
                                           -0.0033  0.0003 -0.0000 -0.0000  0.0026
                                           -0.0001 -0.0099  0.0008 -0.0021  0.0012
                                            0.0034 -0.0008  0.0040  0.0018 -0.0054
                                            0.0007
                ( 41.03%)   0.6405*Cl   3 s(  8.53%)p10.57( 90.20%)d 0.14(  1.16%)
                                                  f 0.01(  0.11%)
                                           -0.0000  0.0005  0.2864 -0.0564 -0.0101
                                           -0.0026  0.0001  0.2300 -0.0136 -0.0054
                                            0.0018 -0.0004 -0.9190  0.0644  0.0129
                                           -0.0040  0.0000  0.0041 -0.0000 -0.0014
                                            0.0006 -0.0507  0.0050 -0.0004  0.0049
                                            0.0000 -0.0007 -0.0063 -0.0008 -0.0006
                                           -0.0755  0.0095  0.0007 -0.0559  0.0059
                                            0.0007 -0.0006  0.0001 -0.0052  0.0009
                                            0.0202 -0.0029  0.0000 -0.0004 -0.0012
                                            0.0007 -0.0177  0.0021  0.0189 -0.0021
     2. (1.96418) BD ( 1) O   1 - H   4  
                ( 79.40%)   0.8911* O   1 s( 27.61%)p 2.60( 71.88%)d 0.02(  0.50%)
                                                  f 0.00(  0.01%)
                                            0.0003  0.5253 -0.0068 -0.0084  0.0022
                                            0.7864 -0.0099 -0.0071 -0.0043 -0.0168
                                            0.0157  0.0015  0.0021  0.3157 -0.0011
                                           -0.0029 -0.0027  0.0246  0.0046  0.0011
                                            0.0421  0.0028 -0.0010  0.0109  0.0019
                                            0.0002  0.0444  0.0033  0.0017 -0.0215
                                           -0.0005  0.0023 -0.0069  0.0001 -0.0045
                                            0.0002  0.0002  0.0002  0.0043  0.0015
                                            0.0003 -0.0007 -0.0000  0.0027 -0.0019
                                           -0.0003
                ( 20.60%)   0.4539* H   4 s( 99.81%)p 0.00(  0.18%)d 0.00(  0.00%)
                                            0.9983  0.0398  0.0022 -0.0014  0.0101
                                           -0.0311 -0.0093  0.0138  0.0015 -0.0039
                                            0.0178 -0.0125 -0.0012  0.0010  0.0018
                                           -0.0007 -0.0007  0.0011  0.0009  0.0022
                                           -0.0008 -0.0019 -0.0022
     3. (1.99970) CR ( 1) O   1           s(100.00%)p 0.00(  0.00%)
                                            1.0000 -0.0004  0.0000  0.0000 -0.0000
                                           -0.0001 -0.0000  0.0000  0.0000 -0.0002
                                            0.0000  0.0000  0.0000 -0.0000 -0.0000
                                            0.0000  0.0000 -0.0000 -0.0000 -0.0000
                                           -0.0000 -0.0000  0.0000 -0.0000 -0.0000
                                           -0.0000  0.0000  0.0000 -0.0000  0.0000
                                            0.0000 -0.0000  0.0000  0.0000  0.0000
                                            0.0000  0.0000 -0.0000 -0.0000 -0.0000
                                           -0.0000  0.0000 -0.0000 -0.0000  0.0000
                                           -0.0000
     4. (1.99990) CR ( 1)Br   2           s(100.00%)
                                            1.0000 -0.0001  0.0000 -0.0000  0.0000
                                            0.0000 -0.0000 -0.0000  0.0000 -0.0000
                                            0.0000  0.0000  0.0000  0.0000  0.0000
                                            0.0000  0.0000  0.0000 -0.0000  0.0000
                                           -0.0000  0.0000 -0.0000  0.0000  0.0000
                                           -0.0000 -0.0000 -0.0000 -0.0000 -0.0000
                                            0.0000 -0.0000  0.0000  0.0000 -0.0000
                                            0.0000  0.0000 -0.0000  0.0000 -0.0000
                                           -0.0000 -0.0000  0.0000 -0.0000 -0.0000
                                           -0.0000 -0.0000  0.0000 -0.0000 -0.0000
                                           -0.0000  0.0000  0.0000  0.0000  0.0000
     5. (1.99995) CR ( 2)Br   2           s(  0.00%)p 1.00(100.00%)
                                           -0.0000 -0.0001  0.0000 -0.0000  0.0000
                                           -0.0000  1.0000 -0.0000  0.0000 -0.0000
                                            0.0000 -0.0000 -0.0000  0.0000  0.0000
                                            0.0000 -0.0000 -0.0000 -0.0000 -0.0000
                                            0.0000 -0.0000  0.0000  0.0000 -0.0000
                                           -0.0000  0.0000 -0.0000 -0.0000 -0.0000
                                            0.0000 -0.0000  0.0000  0.0000  0.0000
                                            0.0000 -0.0000 -0.0000 -0.0000  0.0000
                                           -0.0000  0.0000  0.0000  0.0000  0.0000
                                            0.0000 -0.0000 -0.0000 -0.0000  0.0000
                                            0.0000 -0.0000  0.0000 -0.0000  0.0000
     6. (2.00001) CR ( 3)Br   2           s(  0.00%)p 1.00(100.00%)
                                            0.0000 -0.0000 -0.0000  0.0000 -0.0000
                                            0.0000 -0.0000  0.0000  0.0000 -0.0000
                                            0.0000  1.0000 -0.0002 -0.0000 -0.0000
                                            0.0000  0.0000 -0.0000 -0.0000 -0.0000
                                           -0.0000 -0.0000  0.0000 -0.0000 -0.0000
                                           -0.0000  0.0000 -0.0000  0.0000  0.0000
                                           -0.0000  0.0000 -0.0000  0.0000 -0.0000
                                            0.0000 -0.0000 -0.0000 -0.0000  0.0000
                                           -0.0000  0.0000  0.0000 -0.0000 -0.0000
                                            0.0000  0.0000 -0.0000 -0.0000  0.0000
                                            0.0000  0.0000  0.0000 -0.0000 -0.0000
     7. (2.00001) CR ( 4)Br   2           s(  0.00%)p 1.00(100.00%)
                                            0.0000  0.0000  0.0000 -0.0000  0.0000
                                           -0.0000 -0.0000 -0.0000 -0.0000  0.0000
                                           -0.0000  0.0000  0.0000  0.0000  0.0000
                                            0.0000  1.0000 -0.0002 -0.0000 -0.0000
                                            0.0000  0.0000 -0.0000  0.0000 -0.0000
                                           -0.0000  0.0000 -0.0000 -0.0000 -0.0000
                                            0.0000 -0.0000  0.0000 -0.0000  0.0000
                                           -0.0000 -0.0000  0.0000 -0.0000  0.0000
                                           -0.0000  0.0000  0.0000  0.0000  0.0000
                                            0.0000 -0.0000 -0.0000 -0.0000  0.0000
                                            0.0000 -0.0000 -0.0000  0.0000  0.0000
     8. (1.99768) CR ( 5)Br   2           s(  0.00%)p 0.00(  0.00%)d 1.00(100.00%)
                                            0.0000  0.0000 -0.0000  0.0000 -0.0000
                                            0.0000 -0.0000  0.0000  0.0000 -0.0000
                                            0.0000 -0.0000 -0.0000 -0.0000 -0.0000
                                            0.0000  0.0000  0.0000 -0.0000  0.0000
                                           -0.0000  1.0000  0.0000 -0.0000 -0.0000
                                           -0.0000 -0.0000 -0.0000  0.0000  0.0000
                                           -0.0000  0.0000 -0.0000  0.0000 -0.0000
                                            0.0000 -0.0000 -0.0000 -0.0000  0.0000
                                           -0.0000  0.0000  0.0000 -0.0000 -0.0000
                                            0.0000  0.0000 -0.0000 -0.0000  0.0000
                                            0.0000  0.0000  0.0000 -0.0000 -0.0000
     9. (1.99768) CR ( 6)Br   2           s(  0.00%)p 0.00(  0.00%)d 1.00(100.00%)
                                           -0.0000 -0.0000  0.0000 -0.0000  0.0000
                                           -0.0000 -0.0000 -0.0000  0.0000 -0.0000
                                            0.0000 -0.0000 -0.0000 -0.0000 -0.0000
                                            0.0000 -0.0000 -0.0000 -0.0000 -0.0000
                                            0.0000 -0.0000  0.0000 -0.0000 -0.0000
                                            1.0000  0.0000 -0.0000 -0.0000  0.0000
                                           -0.0000 -0.0000 -0.0000  0.0000  0.0000
                                            0.0000 -0.0000 -0.0000 -0.0000  0.0000
                                           -0.0000  0.0000  0.0000  0.0000  0.0000
                                            0.0000  0.0000 -0.0000 -0.0000  0.0000
                                            0.0000 -0.0000  0.0000 -0.0000 -0.0000
    10. (1.99771) CR ( 7)Br   2           s(  0.00%)p 0.00(  0.00%)d 1.00(100.00%)
                                           -0.0000 -0.0000  0.0000 -0.0000  0.0000
                                           -0.0000 -0.0000 -0.0000 -0.0000  0.0000
                                           -0.0000  0.0000  0.0000  0.0000  0.0000
                                           -0.0000 -0.0000 -0.0000 -0.0000 -0.0000
                                            0.0000  0.0000 -0.0000  0.0000  0.0000
                                            0.0000  0.0000  0.0000 -0.0000  1.0000
                                            0.0000 -0.0000  0.0000 -0.0000  0.0000
                                           -0.0000  0.0000  0.0000 -0.0000  0.0000
                                            0.0000  0.0000 -0.0000  0.0000  0.0000
                                           -0.0000 -0.0000 -0.0000  0.0000 -0.0000
                                           -0.0000 -0.0000 -0.0000  0.0000  0.0000
    11. (1.99765) CR ( 8)Br   2           s(  0.00%)p 0.00(  0.00%)d 1.00(100.00%)
                                            0.0000  0.0000 -0.0000  0.0000 -0.0000
                                           -0.0000  0.0000  0.0000 -0.0000  0.0000
                                           -0.0000  0.0000  0.0000  0.0000  0.0000
                                           -0.0000 -0.0000 -0.0000  0.0000 -0.0000
                                            0.0000  0.0000 -0.0000  0.0000  0.0000
                                            0.0000  0.0000  0.0000  0.0000 -0.0000
                                            0.0000 -0.0000  0.0000  1.0000  0.0000
                                           -0.0000 -0.0000  0.0000 -0.0000  0.0000
                                            0.0000 -0.0000 -0.0000  0.0000  0.0000
                                           -0.0000 -0.0000  0.0000  0.0000 -0.0000
                                            0.0000 -0.0000 -0.0000  0.0000  0.0000
    12. (1.99769) CR ( 9)Br   2           s(  0.00%)p 0.00(  0.00%)d 1.00(100.00%)
                                           -0.0000 -0.0000 -0.0000 -0.0000 -0.0000
                                            0.0000 -0.0000 -0.0000  0.0000 -0.0000
                                            0.0000 -0.0000 -0.0000 -0.0000 -0.0000
                                            0.0000  0.0000  0.0000  0.0000  0.0000
                                           -0.0000 -0.0000  0.0000 -0.0000 -0.0000
                                           -0.0000 -0.0000  0.0000  0.0000  0.0000
                                           -0.0000  0.0000 -0.0000  0.0000 -0.0000
                                            0.0000  0.0000  1.0000  0.0000 -0.0000
                                            0.0000 -0.0000 -0.0000 -0.0000 -0.0000
                                            0.0000  0.0000  0.0000  0.0000  0.0000
                                           -0.0000  0.0000  0.0000 -0.0000 -0.0000
    13. (2.00000) CR ( 1)Cl   3           s(100.00%)
                                            1.0000  0.0000  0.0000 -0.0000 -0.0000
                                           -0.0000  0.0000  0.0000 -0.0000 -0.0000
                                            0.0000 -0.0000 -0.0000  0.0000  0.0000
                                           -0.0000 -0.0000  0.0000  0.0000 -0.0000
                                            0.0000 -0.0000  0.0000 -0.0000  0.0000
                                           -0.0000 -0.0000 -0.0000 -0.0000 -0.0000
                                           -0.0000  0.0000  0.0000 -0.0000  0.0000
                                            0.0000 -0.0000  0.0000 -0.0000  0.0000
                                            0.0000 -0.0000 -0.0000 -0.0000 -0.0000
                                            0.0000 -0.0000  0.0000  0.0000 -0.0000
    14. (1.99979) CR ( 2)Cl   3           s(100.00%)p 0.00(  0.00%)
                                            0.0000  1.0000 -0.0004  0.0000  0.0000
                                            0.0000 -0.0000 -0.0001  0.0000  0.0000
                                           -0.0000  0.0000  0.0004 -0.0000 -0.0000
                                            0.0000 -0.0000 -0.0000 -0.0000  0.0000
                                           -0.0000  0.0000 -0.0000 -0.0000 -0.0000
                                           -0.0000  0.0000  0.0000  0.0000  0.0000
                                            0.0000 -0.0000 -0.0000  0.0000 -0.0000
                                           -0.0000  0.0000 -0.0000  0.0000 -0.0000
                                           -0.0000  0.0000 -0.0000  0.0000  0.0000
                                           -0.0000  0.0000 -0.0000 -0.0000  0.0000
    15. (2.00003) CR ( 3)Cl   3           s(  0.00%)p 1.00(100.00%)
                                            0.0000 -0.0000 -0.0000  0.0000  0.0000
                                            0.0000  1.0000  0.0001  0.0000  0.0000
                                           -0.0000  0.0000  0.0001 -0.0000 -0.0000
                                            0.0000 -0.0000 -0.0000  0.0000  0.0000
                                            0.0000  0.0000  0.0000  0.0000 -0.0000
                                            0.0000  0.0000  0.0000 -0.0000  0.0000
                                            0.0000 -0.0000 -0.0000  0.0000 -0.0000
                                           -0.0000 -0.0000  0.0000  0.0000 -0.0000
                                           -0.0000  0.0000  0.0000 -0.0000  0.0000
                                           -0.0000  0.0000 -0.0000 -0.0000  0.0000
    16. (1.99996) CR ( 4)Cl   3           s(  0.00%)p 1.00(100.00%)
                                           -0.0000  0.0000  0.0001 -0.0000 -0.0000
                                           -0.0000  0.0000  0.0001 -0.0000 -0.0000
                                            0.0000  1.0000 -0.0003  0.0000  0.0000
                                           -0.0000 -0.0000  0.0000  0.0000 -0.0000
                                            0.0000 -0.0000  0.0000  0.0000  0.0000
                                           -0.0000 -0.0000 -0.0000 -0.0000 -0.0000
                                           -0.0000  0.0000 -0.0000 -0.0000  0.0000
                                            0.0000 -0.0000  0.0000 -0.0000  0.0000
                                            0.0000 -0.0000 -0.0000 -0.0000 -0.0000
                                            0.0000 -0.0000  0.0000  0.0000 -0.0000
    17. (2.00003) CR ( 5)Cl   3           s(  0.00%)p 1.00(100.00%)
                                           -0.0000 -0.0000 -0.0000  0.0000  0.0000
                                           -0.0000 -0.0000  0.0000  0.0000 -0.0000
                                            0.0000 -0.0000  0.0000 -0.0000  0.0000
                                            0.0000  1.0000  0.0002  0.0000  0.0000
                                           -0.0000 -0.0000 -0.0000 -0.0000 -0.0000
                                           -0.0000 -0.0000  0.0000  0.0000  0.0000
                                            0.0000 -0.0000 -0.0000  0.0000  0.0000
                                            0.0000 -0.0000  0.0000  0.0000 -0.0000
                                           -0.0000  0.0000 -0.0000  0.0000 -0.0000
                                            0.0000 -0.0000  0.0000 -0.0000 -0.0000
    18. (1.96716) LP ( 1) O   1           s( 62.10%)p 0.61( 37.80%)d 0.00(  0.09%)
                                                  f 0.00(  0.00%)
                                            0.0002  0.7879  0.0119  0.0081 -0.0013
                                           -0.4381 -0.0067 -0.0042 -0.0012 -0.3621
                                           -0.0049 -0.0056 -0.0024 -0.2341 -0.0034
                                           -0.0021 -0.0006 -0.0242 -0.0018  0.0043
                                           -0.0107 -0.0003  0.0008 -0.0129 -0.0016
                                            0.0009 -0.0016  0.0007  0.0017  0.0062
                                            0.0004  0.0011  0.0026 -0.0003  0.0014
                                           -0.0004 -0.0001  0.0006  0.0009 -0.0008
                                           -0.0013  0.0005  0.0047 -0.0023 -0.0002
                                            0.0006
    19. (1.95253) LP ( 2) O   1           s(  0.02%)p99.99( 99.78%)d 9.25(  0.19%)
                                                  f 0.69(  0.01%)
                                           -0.0000  0.0130  0.0053  0.0028 -0.0004
                                           -0.3790 -0.0076 -0.0020 -0.0018 -0.1064
                                           -0.0023 -0.0006 -0.0014  0.9178  0.0178
                                            0.0060  0.0067 -0.0151 -0.0008  0.0025
                                            0.0092 -0.0045 -0.0085  0.0317  0.0037
                                           -0.0026 -0.0034  0.0023  0.0036  0.0200
                                           -0.0006 -0.0049 -0.0071  0.0007  0.0062
                                            0.0000  0.0008 -0.0003 -0.0051  0.0019
                                           -0.0033 -0.0000  0.0019 -0.0014  0.0021
                                           -0.0004
    20. (1.97901) LP ( 1)Br   2           s( 93.86%)p 0.07(  6.14%)d 0.00(  0.00%)
                                                  f 0.00(  0.00%)
                                            0.0001  0.9688 -0.0001  0.0006 -0.0004
                                           -0.0001  0.0001  0.2411 -0.0012  0.0005
                                           -0.0002 -0.0000 -0.0061 -0.0001 -0.0000
                                           -0.0001 -0.0000 -0.0571  0.0002 -0.0000
                                            0.0001 -0.0000  0.0000 -0.0001  0.0000
                                            0.0000  0.0007  0.0001  0.0001  0.0000
                                           -0.0000  0.0000 -0.0000 -0.0000  0.0001
                                           -0.0004 -0.0000  0.0000 -0.0001  0.0001
                                            0.0001 -0.0001 -0.0001  0.0003  0.0001
                                            0.0000  0.0000  0.0001  0.0001  0.0000
                                            0.0000 -0.0003 -0.0002 -0.0000 -0.0000
    21. (1.95386) LP ( 2)Br   2           s(  0.00%)p 1.00( 99.99%)d 0.00(  0.01%)
                                                  f 0.00(  0.00%)
                                            0.0000  0.0026  0.0011 -0.0006  0.0021
                                           -0.0002 -0.0000 -0.2083 -0.0001  0.0003
                                           -0.0001  0.0001  0.4264  0.0011  0.0006
                                           -0.0002 -0.0002 -0.8802 -0.0018 -0.0013
                                            0.0006  0.0000 -0.0039  0.0007  0.0005
                                           -0.0000  0.0060 -0.0008 -0.0016 -0.0000
                                            0.0013 -0.0005  0.0003 -0.0000  0.0022
                                           -0.0004 -0.0005  0.0000 -0.0039  0.0013
                                           -0.0006  0.0012  0.0006  0.0021  0.0013
                                           -0.0003 -0.0002 -0.0017 -0.0008 -0.0005
                                           -0.0003 -0.0007 -0.0002  0.0013  0.0007
    22. (1.95368) LP ( 3)Br   2           s(  0.00%)p 1.00( 99.99%)d 0.00(  0.01%)
                                                  f 0.00(  0.00%)
                                           -0.0000  0.0061 -0.0001  0.0003 -0.0003
                                            0.0000  0.0000  0.0965 -0.0001 -0.0001
                                            0.0001  0.0002  0.9045  0.0023  0.0012
                                           -0.0005  0.0001  0.4153  0.0009  0.0006
                                           -0.0002  0.0000 -0.0082  0.0014  0.0014
                                            0.0000 -0.0029  0.0006  0.0006 -0.0000
                                            0.0025 -0.0009  0.0007 -0.0000 -0.0000
                                           -0.0004  0.0010 -0.0000  0.0019 -0.0007
                                            0.0004 -0.0006 -0.0003 -0.0009 -0.0006
                                           -0.0006 -0.0003  0.0009  0.0005 -0.0013
                                           -0.0009  0.0002  0.0000  0.0027  0.0014
    23. (1.86417) LP ( 4)Br   2           s(  6.13%)p15.29( 93.81%)d 0.01(  0.05%)
                                                  f 0.00(  0.01%)
                                            0.0000  0.2476  0.0006 -0.0023  0.0017
                                            0.0003  0.0000 -0.9427  0.0050  0.0030
                                           -0.0011 -0.0000 -0.0032  0.0001  0.0003
                                            0.0002  0.0000  0.2223  0.0008 -0.0006
                                            0.0006 -0.0000 -0.0000  0.0002 -0.0005
                                            0.0000 -0.0112  0.0029 -0.0009 -0.0000
                                           -0.0001  0.0000 -0.0000 -0.0000  0.0166
                                           -0.0036 -0.0010  0.0000 -0.0089  0.0021
                                           -0.0000 -0.0024 -0.0012  0.0032  0.0020
                                           -0.0000 -0.0001  0.0031  0.0016  0.0000
                                            0.0000 -0.0048 -0.0024  0.0001  0.0003
    24. (1.97390) LP ( 1)Cl   3           s( 91.60%)p 0.09(  8.37%)d 0.00(  0.02%)
                                                  f 0.00(  0.00%)
                                            0.0000  0.0003  0.9571  0.0066  0.0011
                                            0.0003 -0.0000 -0.0377  0.0001  0.0005
                                            0.0002  0.0000  0.2862 -0.0065 -0.0030
                                            0.0013 -0.0000  0.0185  0.0005  0.0002
                                            0.0000  0.0054  0.0001  0.0004  0.0004
                                            0.0001 -0.0002  0.0004  0.0004  0.0003
                                            0.0108 -0.0007 -0.0003  0.0079  0.0006
                                            0.0003 -0.0002  0.0001  0.0005  0.0001
                                           -0.0021 -0.0003  0.0001 -0.0001 -0.0003
                                            0.0002  0.0018  0.0002 -0.0029  0.0001
    25. (1.95609) LP ( 2)Cl   3           s(  0.01%)p 1.00( 99.93%)d 0.00(  0.05%)
                                                  f 0.00(  0.01%)
                                            0.0000  0.0000  0.0092 -0.0033 -0.0015
                                            0.0009 -0.0000  0.2743  0.0037  0.0015
                                           -0.0001 -0.0000  0.0676  0.0010 -0.0001
                                            0.0003  0.0002 -0.9588 -0.0147 -0.0047
                                            0.0021  0.0023  0.0044  0.0020  0.0054
                                            0.0075  0.0030 -0.0059 -0.0156 -0.0077
                                           -0.0020 -0.0028 -0.0016 -0.0004 -0.0002
                                           -0.0001  0.0049 -0.0006 -0.0014  0.0007
                                            0.0002 -0.0002  0.0057 -0.0009  0.0036
                                           -0.0009 -0.0014  0.0000 -0.0018  0.0006
    26. (1.95475) LP ( 3)Cl   3           s(  0.13%)p99.99( 99.82%)d 0.30(  0.04%)
                                                  f 0.06(  0.01%)
                                            0.0000 -0.0000  0.0357  0.0057  0.0038
                                           -0.0017  0.0002 -0.9317 -0.0122 -0.0014
                                            0.0001  0.0001 -0.2244 -0.0031 -0.0006
                                           -0.0008  0.0000 -0.2821 -0.0045 -0.0007
                                            0.0002  0.0045 -0.0107 -0.0054 -0.0004
                                            0.0014  0.0009  0.0012 -0.0036 -0.0020
                                            0.0064  0.0109  0.0061 -0.0011 -0.0029
                                           -0.0004  0.0020 -0.0004  0.0018  0.0001
                                            0.0007  0.0002  0.0011  0.0002  0.0012
                                           -0.0003  0.0057 -0.0010  0.0064 -0.0010
    27. (0.01968) RY*( 1) O   1           s(  0.12%)p99.99( 98.49%)d11.57(  1.34%)
                                                  f 0.46(  0.05%)
                                           -0.0000 -0.0001  0.0339  0.0032  0.0006
                                            0.0086 -0.3718  0.0139  0.0079  0.0044
                                           -0.1044  0.0035 -0.0013 -0.0224  0.9129
                                           -0.0368 -0.0078 -0.0402 -0.0082  0.0004
                                            0.0261 -0.0071 -0.0139  0.0856  0.0247
                                            0.0064 -0.0069  0.0051  0.0053  0.0521
                                            0.0039 -0.0042 -0.0102  0.0088  0.0053
                                           -0.0055  0.0019 -0.0010 -0.0106  0.0090
                                           -0.0031  0.0034  0.0063 -0.0047  0.0028
                                           -0.0032
    28. (0.01601) RY*( 2) O   1           s( 29.55%)p 2.30( 68.06%)d 0.07(  2.17%)
                                                  f 0.01(  0.22%)
                                           -0.0000  0.0027  0.5420 -0.0410 -0.0069
                                            0.0089 -0.5734  0.0042  0.0436  0.0404
                                           -0.5001 -0.0036  0.0340  0.0054 -0.3106
                                            0.0057  0.0188 -0.1128 -0.0236 -0.0090
                                           -0.0249  0.0030  0.0084 -0.0676 -0.0136
                                           -0.0055  0.0326  0.0051 -0.0011  0.0413
                                            0.0048 -0.0013 -0.0032 -0.0005  0.0064
                                           -0.0057 -0.0076  0.0021  0.0201 -0.0098
                                           -0.0051  0.0034  0.0342 -0.0161 -0.0103
                                            0.0036
    29. (0.00802) RY*( 3) O   1           s( 16.66%)p 0.57(  9.46%)d 4.36( 72.58%)
                                                  f 0.08(  1.30%)
                                           -0.0000  0.0159  0.4026 -0.0637  0.0154
                                            0.0135  0.2690 -0.0197  0.0680 -0.0157
                                           -0.0881  0.0020  0.0483  0.0006  0.0816
                                           -0.0067  0.0064  0.6191  0.0036  0.0048
                                           -0.0545  0.0042 -0.0038  0.1517  0.0079
                                            0.0064 -0.5044 -0.0124 -0.0356  0.2457
                                           -0.0066  0.0075 -0.0058  0.0027  0.0104
                                           -0.0102 -0.0130  0.0089 -0.0247  0.0101
                                            0.0222 -0.0107 -0.0929  0.0376 -0.0299
                                            0.0149
    30. (0.00707) RY*( 4) O   1           s(  0.36%)p 0.91(  0.32%)d99.99( 97.59%)
                                                  f 4.84(  1.73%)
                                            0.0000  0.0036  0.0593 -0.0062 -0.0016
                                            0.0052  0.0133  0.0044  0.0015 -0.0015
                                           -0.0005  0.0037  0.0052 -0.0170 -0.0509
                                           -0.0097  0.0003 -0.0473  0.0081 -0.0004
                                           -0.4887  0.0248 -0.0081  0.8114 -0.0343
                                            0.0119  0.1896 -0.0141  0.0008 -0.1954
                                            0.0091 -0.0076 -0.0522  0.0227 -0.0312
                                            0.0145  0.0039 -0.0016 -0.0965  0.0420
[...]
                                            0.0744 -0.0074 -0.4129  0.0188  0.1003
                                            0.4777  0.0710  0.1470  0.0192 -0.1508
                                           -0.0711  0.1567  0.0503
   158. (0.00033) RY*( 8) H   4           s(  9.02%)p 6.87( 61.95%)d 3.22( 29.03%)
                                            0.0026 -0.0171  0.2993  0.0163 -0.0277
                                           -0.0562 -0.2641 -0.0547  0.4808 -0.1472
                                           -0.0664  0.4295 -0.3178  0.2579 -0.1303
                                            0.3345  0.0676 -0.1014 -0.0405 -0.2143
                                            0.1426  0.0551 -0.0959
   159. (0.00029) RY*( 9) H   4           s( 17.65%)p 3.01( 53.21%)d 1.65( 29.14%)
                                            0.0006 -0.0335  0.4042  0.1099 -0.0704
                                            0.1864  0.1751 -0.0472  0.2512 -0.1050
                                            0.0840 -0.6107 -0.0731  0.0738 -0.0427
                                           -0.1776  0.1790  0.1412 -0.0713 -0.4026
                                           -0.0692  0.1187  0.1205
   160. (0.00026) RY*(10) H   4           s(  3.21%)p 5.91( 18.98%)d24.23( 77.81%)
                                            0.0088  0.0232  0.1203  0.1305  0.0175
                                            0.1718  0.0251  0.0876  0.0848  0.1315
                                           -0.0301  0.3554  0.0043 -0.5568 -0.0424
                                           -0.1263 -0.0093  0.6355 -0.0715 -0.1259
                                            0.0594  0.0885 -0.1182
   161. (0.00023) RY*(11) H   4           s(  4.15%)p10.75( 44.61%)d12.35( 51.24%)
                                           -0.0165 -0.0685  0.1354 -0.1349 -0.0687
                                           -0.2766 -0.4478  0.0706  0.0743  0.0276
                                            0.0400 -0.3423 -0.1853 -0.1647  0.0091
                                            0.0196  0.1454  0.1573 -0.0275  0.5345
                                            0.1199  0.3636 -0.0766
   162. (0.00021) RY*(12) H   4           s(  0.72%)p32.98( 23.63%)d99.99( 75.66%)
                                            0.0138  0.0103 -0.0276  0.0781 -0.0053
                                            0.2969  0.2623  0.0452  0.0559  0.1350
                                            0.0683  0.1949 -0.1150 -0.0550  0.0200
                                           -0.1598 -0.0494 -0.3966  0.0664  0.0967
                                           -0.0786  0.7402  0.0015
   163. (0.00015) RY*(13) H   4           s(  7.50%)p 1.04(  7.83%)d11.30( 84.67%)
                                           -0.0026 -0.0285  0.2623  0.0731 -0.0224
                                           -0.0778 -0.1639  0.0383 -0.0964  0.1656
                                           -0.0019 -0.0777 -0.0265 -0.6083 -0.0212
                                            0.0110  0.1009 -0.5778  0.1008 -0.2123
                                            0.1063 -0.2321 -0.1084
   164. (0.00014) RY*(14) H   4           s( 34.37%)p 0.73( 25.05%)d 1.18( 40.58%)
                                           -0.0049 -0.0164  0.1669  0.5617  0.0233
                                           -0.1144  0.0081  0.0118  0.0963 -0.1668
                                           -0.0301 -0.1336  0.4253 -0.0256  0.1522
                                            0.3306 -0.4676 -0.0063  0.0403  0.0945
                                            0.0246  0.1346 -0.1574
   165. (0.00011) RY*(15) H   4           s( 31.81%)p 0.54( 17.17%)d 1.60( 51.02%)
                                            0.0018  0.0032  0.1739  0.5365 -0.0263
                                           -0.0399  0.2139  0.0129  0.1027  0.0780
                                           -0.0313  0.1187 -0.3030  0.0275 -0.0349
                                           -0.1424  0.1960 -0.0373 -0.0314  0.4784
                                           -0.2217 -0.3268  0.2496
   166. (0.00010) RY*(16) H   4           s(  1.87%)p20.78( 38.83%)d31.74( 59.30%)
   167. (0.00007) RY*(17) H   4           s( 39.80%)p 0.72( 28.51%)d 0.80( 31.69%)
   168. (0.00006) RY*(18) H   4           s(  0.07%)p24.75(  1.62%)d99.99( 98.31%)
   169. (0.00005) RY*(19) H   4           s(  1.25%)p16.40( 20.44%)d62.81( 78.31%)
   170. (0.00005) RY*(20) H   4           s(  9.70%)p 2.25( 21.80%)d 7.07( 68.51%)
   171. (0.00005) RY*(21) H   4           s(  4.13%)p 3.71( 15.29%)d19.53( 80.59%)
   172. (0.00004) RY*(22) H   4           s(  2.79%)p15.41( 43.02%)d19.41( 54.18%)
   173. (0.05836) BD*( 1) O   1 -Cl   3  
                ( 41.03%)   0.6405* O   1 s( 10.41%)p 8.56( 89.05%)d 0.05(  0.52%)
                                                  f 0.00(  0.02%)
                                           -0.0003 -0.3196  0.0415  0.0142  0.0011
                                            0.1995 -0.0330 -0.0071 -0.0023 -0.9211
                                            0.0227  0.0088  0.0102 -0.0203 -0.0106
                                           -0.0019  0.0003  0.0069  0.0008  0.0029
                                           -0.0052 -0.0005  0.0010 -0.0116 -0.0015
                                            0.0004  0.0576  0.0045  0.0007  0.0405
                                            0.0033 -0.0003  0.0000  0.0000 -0.0026
                                            0.0001  0.0099 -0.0008  0.0021 -0.0012
                                           -0.0034  0.0008 -0.0040 -0.0018  0.0054
                                           -0.0007
                ( 58.97%)  -0.7679*Cl   3 s(  8.53%)p10.57( 90.20%)d 0.14(  1.16%)
                                                  f 0.01(  0.11%)
                                            0.0000 -0.0005 -0.2864  0.0564  0.0101
                                            0.0026 -0.0001 -0.2300  0.0136  0.0054
                                           -0.0018  0.0004  0.9190 -0.0644 -0.0129
                                            0.0040 -0.0000 -0.0041  0.0000  0.0014
                                           -0.0006  0.0507 -0.0050  0.0004 -0.0049
                                           -0.0000  0.0007  0.0063  0.0008  0.0006
                                            0.0755 -0.0095 -0.0007  0.0559 -0.0059
                                           -0.0007  0.0006 -0.0001  0.0052 -0.0009
                                           -0.0202  0.0029 -0.0000  0.0004  0.0012
                                           -0.0007  0.0177 -0.0021 -0.0189  0.0021
   174. (0.10626) BD*( 1) O   1 - H   4  
                ( 20.60%)   0.4539* O   1 s( 27.61%)p 2.60( 71.88%)d 0.02(  0.50%)
                                                  f 0.00(  0.01%)
                                           -0.0003 -0.5253  0.0068  0.0084 -0.0022
                                           -0.7864  0.0099  0.0071  0.0043  0.0168
                                           -0.0157 -0.0015 -0.0021 -0.3157  0.0011
                                            0.0029  0.0027 -0.0246 -0.0046 -0.0011
                                           -0.0421 -0.0028  0.0010 -0.0109 -0.0019
                                           -0.0002 -0.0444 -0.0033 -0.0017  0.0215
                                            0.0005 -0.0023  0.0069 -0.0001  0.0045
                                           -0.0002 -0.0002 -0.0002 -0.0043 -0.0015
                                           -0.0003  0.0007  0.0000 -0.0027  0.0019
                                            0.0003
                ( 79.40%)  -0.8911* H   4 s( 99.81%)p 0.00(  0.18%)d 0.00(  0.00%)
                                           -0.9983 -0.0398 -0.0022  0.0014 -0.0101
                                            0.0311  0.0093 -0.0138 -0.0015  0.0039
                                           -0.0178  0.0125  0.0012 -0.0010 -0.0018
                                            0.0007  0.0007 -0.0011 -0.0009 -0.0022
                                            0.0008  0.0019  0.0022


 NHO Directionality and "Bond Bending" (deviations from line of nuclear centers)

         [Thresholds for printing:  angular deviation  >  1.0 degree]
                                    hybrid p-character > 25.0%
                                    orbital occupancy  >  0.10e

                                Line of Centers        Hybrid 1              Hybrid 2
                                ---------------  -------------------   ------------------
                NBO               Theta   Phi    Theta   Phi    Dev    Theta   Phi    Dev
 ========================================================================================
     1. BD (   1) O   1 -Cl   3    90.0  103.5    87.9  100.1   3.9      --     --    --
     2. BD (   1) O   1 - H   4    70.0    0.0    68.0    0.2   2.0      --     --    --
    18. LP (   1) O   1             --     --    112.3  219.8   --       --     --    --
    19. LP (   2) O   1             --     --     23.2  195.8   --       --     --    --
    21. LP (   2)Br   2             --     --    151.7  116.0   --       --     --    --
    22. LP (   3)Br   2             --     --     65.5   83.9   --       --     --    --
    23. LP (   4)Br   2             --     --     76.6  180.2   --       --     --    --
    25. LP (   2)Cl   3             --     --    163.6   13.8   --       --     --    --
    26. LP (   3)Cl   3             --     --    106.4  193.6   --       --     --    --
   174. BD*(   1) O   1 - H   4    70.0    0.0    68.0    0.2   2.0      --     --    --


 Natural Bond Orbitals (Summary):

           NBO                  Occupancy  
 -----------------------------------------------
 Molecular unit  1  (HOCl)
     1. BD (   1) O   1 -Cl   3          1.93952
     2. BD (   1) O   1 - H   4          1.96418
     3. CR (   1) O   1                  1.99970
    13. CR (   1)Cl   3                  2.00000
    14. CR (   2)Cl   3                  1.99979
    15. CR (   3)Cl   3                  2.00003
    16. CR (   4)Cl   3                  1.99996
    17. CR (   5)Cl   3                  2.00003
    18. LP (   1) O   1                  1.96716
    19. LP (   2) O   1                  1.95253
    24. LP (   1)Cl   3                  1.97390
    25. LP (   2)Cl   3                  1.95609
    26. LP (   3)Cl   3                  1.95475
    27. RY*(   1) O   1                  0.01968
    28. RY*(   2) O   1                  0.01601
    29. RY*(   3) O   1                  0.00802
    30. RY*(   4) O   1                  0.00707
    31. RY*(   5) O   1                  0.00637
    32. RY*(   6) O   1                  0.00612
    33. RY*(   7) O   1                  0.00574
    34. RY*(   8) O   1                  0.00325
    35. RY*(   9) O   1                  0.00250
    36. RY*(  10) O   1                  0.00081
    37. RY*(  11) O   1                  0.00065
    38. RY*(  12) O   1                  0.00060
    39. RY*(  13) O   1                  0.00061
    40. RY*(  14) O   1                  0.00050
    41. RY*(  15) O   1                  0.00051
    42. RY*(  16) O   1                  0.00049
    43. RY*(  17) O   1                  0.00048
    44. RY*(  18) O   1                  0.00047
    45. RY*(  19) O   1                  0.00044
    46. RY*(  20) O   1                  0.00045
    47. RY*(  21) O   1                  0.00045
    48. RY*(  22) O   1                  0.00042
    49. RY*(  23) O   1                  0.00035
    50. RY*(  24) O   1                  0.00030
    51. RY*(  25) O   1                  0.00025
    52. RY*(  26) O   1                  0.00021
    53. RY*(  27) O   1                  0.00015
    54. RY*(  28) O   1                  0.00013
    55. RY*(  29) O   1                  0.00013
    56. RY*(  30) O   1                  0.00009
    57. RY*(  31) O   1                  0.00009
    58. RY*(  32) O   1                  0.00008
    59. RY*(  33) O   1                  0.00008
    60. RY*(  34) O   1                  0.00008
    61. RY*(  35) O   1                  0.00007
    62. RY*(  36) O   1                  0.00006
    63. RY*(  37) O   1                  0.00007
    64. RY*(  38) O   1                  0.00004
    65. RY*(  39) O   1                  0.00005
    66. RY*(  40) O   1                  0.00002
    67. RY*(  41) O   1                  0.00002
   110. RY*(   1)Cl   3                  0.02258
   111. RY*(   2)Cl   3                  0.01750
   112. RY*(   3)Cl   3                  0.01681
   113. RY*(   4)Cl   3                  0.01656
   114. RY*(   5)Cl   3                  0.01165
   115. RY*(   6)Cl   3                  0.00924
   116. RY*(   7)Cl   3                  0.00905
   117. RY*(   8)Cl   3                  0.00630
   118. RY*(   9)Cl   3                  0.00168
   119. RY*(  10)Cl   3                  0.00127
   120. RY*(  11)Cl   3                  0.00127
   121. RY*(  12)Cl   3                  0.00119
   122. RY*(  13)Cl   3                  0.00119
   123. RY*(  14)Cl   3                  0.00116
   124. RY*(  15)Cl   3                  0.00111
   125. RY*(  16)Cl   3                  0.00094
   126. RY*(  17)Cl   3                  0.00077
   127. RY*(  18)Cl   3                  0.00075
   128. RY*(  19)Cl   3                  0.00063
   129. RY*(  20)Cl   3                  0.00056
   130. RY*(  21)Cl   3                  0.00043
   131. RY*(  22)Cl   3                  0.00037
   132. RY*(  23)Cl   3                  0.00034
   133. RY*(  24)Cl   3                  0.00032
   134. RY*(  25)Cl   3                  0.00019
   135. RY*(  26)Cl   3                  0.00016
   136. RY*(  27)Cl   3                  0.00014
   137. RY*(  28)Cl   3                  0.00013
   138. RY*(  29)Cl   3                  0.00012
   139. RY*(  30)Cl   3                  0.00013
   140. RY*(  31)Cl   3                  0.00011
   141. RY*(  32)Cl   3                  0.00009
   142. RY*(  33)Cl   3                  0.00010
   143. RY*(  34)Cl   3                  0.00010
   144. RY*(  35)Cl   3                  0.00010
   145. RY*(  36)Cl   3                  0.00010
   146. RY*(  37)Cl   3                  0.00007
   147. RY*(  38)Cl   3                  0.00005
   148. RY*(  39)Cl   3                  0.00004
   149. RY*(  40)Cl   3                  0.00003
   150. RY*(  41)Cl   3                  0.00000
   151. RY*(   1) H   4                  0.01016
   152. RY*(   2) H   4                  0.00538
   153. RY*(   3) H   4                  0.00452
   154. RY*(   4) H   4                  0.00342
   155. RY*(   5) H   4                  0.00060
   156. RY*(   6) H   4                  0.00049
   157. RY*(   7) H   4                  0.00045
   158. RY*(   8) H   4                  0.00033
   159. RY*(   9) H   4                  0.00029
   160. RY*(  10) H   4                  0.00026
   161. RY*(  11) H   4                  0.00023
   162. RY*(  12) H   4                  0.00021
   163. RY*(  13) H   4                  0.00015
   164. RY*(  14) H   4                  0.00014
   165. RY*(  15) H   4                  0.00011
   166. RY*(  16) H   4                  0.00010
   167. RY*(  17) H   4                  0.00007
   168. RY*(  18) H   4                  0.00006
   169. RY*(  19) H   4                  0.00005
   170. RY*(  20) H   4                  0.00005
   171. RY*(  21) H   4                  0.00005
   172. RY*(  22) H   4                  0.00004
   173. BD*(   1) O   1 -Cl   3          0.05836
   174. BD*(   1) O   1 - H   4          0.10626
       -------------------------------
              Total Lewis   25.70764  ( 98.4641%)
        Valence non-Lewis    0.16461  (  0.6305%)
        Rydberg non-Lewis    0.23640  (  0.9054%)
       -------------------------------
            Total unit  1   26.10865  (100.0000%)
           Charge unit  1   -0.10865

 Molecular unit  2  (Br)
     4. CR (   1)Br   2                  1.99990
     5. CR (   2)Br   2                  1.99995
     6. CR (   3)Br   2                  2.00001
     7. CR (   4)Br   2                  2.00001
     8. CR (   5)Br   2                  1.99768
     9. CR (   6)Br   2                  1.99768
    10. CR (   7)Br   2                  1.99771
    11. CR (   8)Br   2                  1.99765
    12. CR (   9)Br   2                  1.99769
    20. LP (   1)Br   2                  1.97901
    21. LP (   2)Br   2                  1.95386
    22. LP (   3)Br   2                  1.95368
    23. LP (   4)Br   2                  1.86417
    68. RY*(   1)Br   2                  0.01864
    69. RY*(   2)Br   2                  0.01859
    70. RY*(   3)Br   2                  0.01848
    71. RY*(   4)Br   2                  0.01847
    72. RY*(   5)Br   2                  0.01776
    73. RY*(   6)Br   2                  0.01152
    74. RY*(   7)Br   2                  0.01146
    75. RY*(   8)Br   2                  0.00955
    76. RY*(   9)Br   2                  0.00252
    77. RY*(  10)Br   2                  0.00178
    78. RY*(  11)Br   2                  0.00178
    79. RY*(  12)Br   2                  0.00173
    80. RY*(  13)Br   2                  0.00173
    81. RY*(  14)Br   2                  0.00174
    82. RY*(  15)Br   2                  0.00173
    83. RY*(  16)Br   2                  0.00173
    84. RY*(  17)Br   2                  0.00173
    85. RY*(  18)Br   2                  0.00173
    86. RY*(  19)Br   2                  0.00140
    87. RY*(  20)Br   2                  0.00140
    88. RY*(  21)Br   2                  0.00123
    89. RY*(  22)Br   2                  0.00078
    90. RY*(  23)Br   2                  0.00078
    91. RY*(  24)Br   2                  0.00072
    92. RY*(  25)Br   2                  0.00040
    93. RY*(  26)Br   2                  0.00029
    94. RY*(  27)Br   2                  0.00025
    95. RY*(  28)Br   2                  0.00025
    96. RY*(  29)Br   2                  0.00025
    97. RY*(  30)Br   2                  0.00025
    98. RY*(  31)Br   2                  0.00025
    99. RY*(  32)Br   2                  0.00024
   100. RY*(  33)Br   2                  0.00021
   101. RY*(  34)Br   2                  0.00021
   102. RY*(  35)Br   2                  0.00017
   103. RY*(  36)Br   2                  0.00014
   104. RY*(  37)Br   2                  0.00013
   105. RY*(  38)Br   2                  0.00011
   106. RY*(  39)Br   2                  0.00008
   107. RY*(  40)Br   2                  0.00008
   108. RY*(  41)Br   2                  0.00006
   109. RY*(  42)Br   2                  0.00000
       -------------------------------
              Total Lewis   35.73900  ( 99.5755%)
        Valence non-Lewis    0.00000  (  0.0000%)
        Rydberg non-Lewis    0.15235  (  0.4245%)
       -------------------------------
            Total unit  2   35.89135  (100.0000%)
           Charge unit  2   -0.89135
 Leave Link  607 at Thu Sep 30 14:40:06 2021, MaxMem= 16106127360 cpu:              79.5 elap:               2.9
 (Enter /sw/contrib/gaussian/g16/B01/g16/l9999.exe)
 1\1\GINC-N2174\SP\RMP2-FC\Gen\Br1Cl1H1O1(1-)\CGAVINH\30-Sep-2021\0\\#p
  pop=NBO SP NoSymm mp2/gen Pseudo=read density=current\\title\\-1,1\O,
 0,0.,0.,0.\Br,0,3.06793175,0.,0.\Cl,0,-0.391809624,1.638263908,0.\H,0,
 0.94517103,0.,0.34401412\\Version=ES64L-G16RevB.01\HF=-950.5195731\MP2
 =-951.2215374\RMSD=8.652e-09\Dipole=-1.6474943,0.7887565,0.1070904\Qua
 drupole=-18.4936802,9.1278407,9.3658395,0.3270377,0.0525226,-0.080339\
 PG=C01 [X(Br1Cl1H1O1)]\\@


 A COMPUTER IS LIKE A HORSE, IT WILL SENSE WEAKNESS.
     -- GREG WETTSTEIN
 Job cpu time:       0 days  0 hours  6 minutes  6.4 seconds.
 Elapsed time:       0 days  0 hours  0 minutes 19.0 seconds.
 File lengths (MBytes):  RWF=     15 Int=      0 D2E=      0 Chk=      8 Scr=      1
 Normal termination of Gaussian 16 at Thu Sep 30 14:40:07 2021.
