 Entering Gaussian System, Link 0=g16
 Input=brhocl_pp_15_sp.gjf
 Output=brhocl_pp_15_sp.log
 Initial command:
 /sw/contrib/gaussian/g16/B01/g16/l1.exe "/scr/Gau-3614.inp" -scrdir="/scr/"
 Entering Link 1 = /sw/contrib/gaussian/g16/B01/g16/l1.exe PID=      3615.
  
 Copyright (c) 1988-2017, Gaussian, Inc.  All Rights Reserved.
  
 This is part of the Gaussian(R) 16 program.  It is based on
 the Gaussian(R) 09 system (copyright 2009, Gaussian, Inc.),
 the Gaussian(R) 03 system (copyright 2003, Gaussian, Inc.),
 the Gaussian(R) 98 system (copyright 1998, Gaussian, Inc.),
 the Gaussian(R) 94 system (copyright 1995, Gaussian, Inc.),
 the Gaussian 92(TM) system (copyright 1992, Gaussian, Inc.),
 the Gaussian 90(TM) system (copyright 1990, Gaussian, Inc.),
 the Gaussian 88(TM) system (copyright 1988, Gaussian, Inc.),
 the Gaussian 86(TM) system (copyright 1986, Carnegie Mellon
 University), and the Gaussian 82(TM) system (copyright 1983,
 Carnegie Mellon University). Gaussian is a federally registered
 trademark of Gaussian, Inc.
  
 This software contains proprietary and confidential information,
 including trade secrets, belonging to Gaussian, Inc.
  
 This software is provided under written license and may be
 used, copied, transmitted, or stored only in accord with that
 written license.
  
 The following legend is applicable only to US Government
 contracts under FAR:
  
                    RESTRICTED RIGHTS LEGEND
  
 Use, reproduction and disclosure by the US Government is
 subject to restrictions as set forth in subparagraphs (a)
 and (c) of the Commercial Computer Software - Restricted
 Rights clause in FAR 52.227-19.
  
 Gaussian, Inc.
 340 Quinnipiac St., Bldg. 40, Wallingford CT 06492
  
  
 ---------------------------------------------------------------
 Warning -- This program may not be used in any manner that
 competes with the business of Gaussian, Inc. or will provide
 assistance to any competitor of Gaussian, Inc.  The licensee
 of this program is prohibited from giving any competitor of
 Gaussian, Inc. access to this program.  By using this program,
 the user acknowledges that Gaussian, Inc. is engaged in the
 business of creating and licensing software in the field of
 computational chemistry and represents and warrants to the
 licensee that it is not a competitor of Gaussian, Inc. and that
 it will not use this program in any manner prohibited above.
 ---------------------------------------------------------------
  

 Cite this work as:
 Gaussian 16, Revision B.01,
 M. J. Frisch, G. W. Trucks, H. B. Schlegel, G. E. Scuseria, 
 M. A. Robb, J. R. Cheeseman, G. Scalmani, V. Barone, 
 G. A. Petersson, H. Nakatsuji, X. Li, M. Caricato, A. V. Marenich, 
 J. Bloino, B. G. Janesko, R. Gomperts, B. Mennucci, H. P. Hratchian, 
 J. V. Ortiz, A. F. Izmaylov, J. L. Sonnenberg, D. Williams-Young, 
 F. Ding, F. Lipparini, F. Egidi, J. Goings, B. Peng, A. Petrone, 
 T. Henderson, D. Ranasinghe, V. G. Zakrzewski, J. Gao, N. Rega, 
 G. Zheng, W. Liang, M. Hada, M. Ehara, K. Toyota, R. Fukuda, 
 J. Hasegawa, M. Ishida, T. Nakajima, Y. Honda, O. Kitao, H. Nakai, 
 T. Vreven, K. Throssell, J. A. Montgomery, Jr., J. E. Peralta, 
 F. Ogliaro, M. J. Bearpark, J. J. Heyd, E. N. Brothers, K. N. Kudin, 
 V. N. Staroverov, T. A. Keith, R. Kobayashi, J. Normand, 
 K. Raghavachari, A. P. Rendell, J. C. Burant, S. S. Iyengar, 
 J. Tomasi, M. Cossi, J. M. Millam, M. Klene, C. Adamo, R. Cammi, 
 J. W. Ochterski, R. L. Martin, K. Morokuma, O. Farkas, 
 J. B. Foresman, and D. J. Fox, Gaussian, Inc., Wallingford CT, 2016.
 
 ******************************************
 Gaussian 16:  ES64L-G16RevB.01 20-Dec-2017
                30-Sep-2021 
 ******************************************
 %nproc=28
 Will use up to   28 processors via shared memory.
 %mem=120GB
 %chk=/gscratch/ilahie/mccoygrp/coire_hocl/brhocl_pp/brhocl_pp_15_sp.chk
 --------------------------------------------------------
 #p pop=NBO SP NoSymm mp2/gen Pseudo=read density=current
 --------------------------------------------------------
 1/30=1,38=1,172=1/1;
 2/12=2,15=1,17=6,18=5,40=1/2;
 3/5=7,11=9,16=1,17=8,25=1,30=1,71=1/1,2,3;
 4//1;
 5/5=2,38=5/2;
 8/6=4,10=1/1;
 9/15=1,16=-3/6;
 10/5=1,13=10,31=1/2;
 6/7=2,8=2,9=2,10=2,22=-1,40=1/1,7;
 99/5=1,9=1/99;
 Leave Link    1 at Thu Sep 30 14:39:28 2021, MaxMem= 16106127360 cpu:               0.9 elap:               0.0
 (Enter /sw/contrib/gaussian/g16/B01/g16/l101.exe)
 -----
 title
 -----
 Symbolic Z-matrix:
 Charge = -1 Multiplicity = 1
 O                     0.        0.        0. 
 Br                    3.06793   0.        0. 
 Cl                   -0.39181   1.63826   0. 
 H                     0.97634   0.        0.26161 
 
 ITRead=  0  0  0  0
 MicOpt= -1 -1 -1 -1
 NAtoms=      4 NQM=        4 NQMF=       0 NMMI=      0 NMMIF=      0
                NMic=       0 NMicF=      0.
                    Isotopes and Nuclear Properties:
 (Nuclear quadrupole moments (NQMom) in fm**2, nuclear magnetic moments (NMagM)
  in nuclear magnetons)

  Atom         1           2           3           4
 IAtWgt=          16          79          35           1
 AtmWgt=  15.9949146  78.9183361  34.9688527   1.0078250
 NucSpn=           0           3           3           1
 AtZEff=  -0.0000000  -0.0000000  -0.0000000  -0.0000000
 NQMom=    0.0000000  31.3000000  -8.1650000   0.0000000
 NMagM=    0.0000000   2.1063990   0.8218740   2.7928460
 AtZNuc=   8.0000000  35.0000000  17.0000000   1.0000000
 Leave Link  101 at Thu Sep 30 14:39:28 2021, MaxMem= 16106127360 cpu:               3.5 elap:               0.2
 (Enter /sw/contrib/gaussian/g16/B01/g16/l202.exe)
                          Input orientation:                          
 ---------------------------------------------------------------------
 Center     Atomic      Atomic             Coordinates (Angstroms)
 Number     Number       Type             X           Y           Z
 ---------------------------------------------------------------------
      1          8           0        0.000000    0.000000    0.000000
      2         35           0        3.067932    0.000000    0.000000
      3         17           0       -0.391810    1.638264    0.000000
      4          1           0        0.976339    0.000000    0.261609
 ---------------------------------------------------------------------
                    Distance matrix (angstroms):
                    1          2          3          4
     1  O    0.000000
     2  Br   3.067932   0.000000
     3  Cl   1.684465   3.828018   0.000000
     4  H    1.010780   2.107890   2.150390   0.000000
 Symmetry turned off by external request.
 Stoichiometry    BrClHO(1-)
 Framework group  C1[X(BrClHO)]
 Deg. of freedom     6
 Full point group                 C1      NOp   1
 Rotational constants (GHZ):          22.5844768           1.2839422           1.2152667
 Leave Link  202 at Thu Sep 30 14:39:28 2021, MaxMem= 16106127360 cpu:               3.4 elap:               0.2
 (Enter /sw/contrib/gaussian/g16/B01/g16/l301.exe)
 General basis read from cards:  (5D, 7F)
 Centers:       4      1      3
 aug-cc-pVTZ
 ****
 Centers:       2
 S 10 1.00
     Exponent=  9.6593900000D+03 Coefficients=  3.7100000000D-04
     Exponent=  1.4559600000D+03 Coefficients=  2.5710000000D-03
     Exponent=  3.2591400000D+02 Coefficients=  8.4850000000D-03
     Exponent=  4.6565700000D+01 Coefficients=  7.8222000000D-02
     Exponent=  1.8246900000D+01 Coefficients= -3.9714900000D-01
     Exponent=  3.8020100000D+00 Coefficients=  6.8586400000D-01
     Exponent=  1.7863200000D+00 Coefficients=  4.8681900000D-01
     Exponent=  6.0271400000D-01 Coefficients=  3.4913000000D-02
     Exponent=  2.8401400000D-01 Coefficients= -6.5730000000D-03
     Exponent=  1.2027100000D-01 Coefficients=  1.6420000000D-03
 S 10 1.00
     Exponent=  9.6593900000D+03 Coefficients= -1.5200000000D-04
     Exponent=  1.4559600000D+03 Coefficients= -1.0080000000D-03
     Exponent=  3.2591400000D+02 Coefficients= -3.6090000000D-03
     Exponent=  4.6565700000D+01 Coefficients= -2.7872000000D-02
     Exponent=  1.8246900000D+01 Coefficients=  1.5131700000D-01
     Exponent=  3.8020100000D+00 Coefficients= -3.5149700000D-01
     Exponent=  1.7863200000D+00 Coefficients= -4.1070300000D-01
     Exponent=  6.0271400000D-01 Coefficients=  3.4731600000D-01
     Exponent=  2.8401400000D-01 Coefficients=  6.7549100000D-01
     Exponent=  1.2027100000D-01 Coefficients=  2.4400800000D-01
 S 1 1.00
     Exponent=  6.0271400000D-01 Coefficients=  1.0000000000D+00
 S 1 1.00
     Exponent=  2.8401400000D-01 Coefficients=  1.0000000000D+00
 S 1 1.00
     Exponent=  1.2027100000D-01 Coefficients=  1.0000000000D+00
 S 1 1.00
     Exponent=  4.4500000000D-02 Coefficients=  1.0000000000D+00
 P 9 1.00
     Exponent=  4.9218700000D+02 Coefficients=  4.7200000000D-04
     Exponent=  9.2364200000D+01 Coefficients=  5.4940000000D-03
     Exponent=  2.7071800000D+01 Coefficients= -8.8030000000D-02
     Exponent=  7.2653900000D+00 Coefficients=  3.4348500000D-01
     Exponent=  3.4848100000D+00 Coefficients=  5.1020800000D-01
     Exponent=  1.6404800000D+00 Coefficients=  2.4863100000D-01
     Exponent=  6.4857000000D-01 Coefficients=  2.2201000000D-02
     Exponent=  2.5640700000D-01 Coefficients= -4.1900000000D-04
     Exponent=  9.5304000000D-02 Coefficients=  6.5600000000D-04
 P 9 1.00
     Exponent=  4.9218700000D+02 Coefficients= -1.5800000000D-04
     Exponent=  9.2364200000D+01 Coefficients= -1.3440000000D-03
     Exponent=  2.7071800000D+01 Coefficients=  2.4616000000D-02
     Exponent=  7.2653900000D+00 Coefficients= -1.1253200000D-01
     Exponent=  3.4848100000D+00 Coefficients= -1.7977500000D-01
     Exponent=  1.6404800000D+00 Coefficients= -7.3661000000D-02
     Exponent=  6.4857000000D-01 Coefficients=  3.4873400000D-01
     Exponent=  2.5640700000D-01 Coefficients=  5.5794800000D-01
     Exponent=  9.5304000000D-02 Coefficients=  2.6645600000D-01
 P 1 1.00
     Exponent=  7.6660000000D-01 Coefficients=  1.0000000000D+00
 P 1 1.00
     Exponent=  1.1820000000D-01 Coefficients=  1.0000000000D+00
 P 1 1.00
     Exponent=  3.9600000000D-02 Coefficients=  1.0000000000D+00
 D 8 1.00
     Exponent=  3.3899600000D+02 Coefficients=  1.5240000000D-03
     Exponent=  1.0321700000D+02 Coefficients=  1.5673000000D-02
     Exponent=  4.2363800000D+01 Coefficients=  7.2400000000D-02
     Exponent=  1.8435600000D+01 Coefficients=  1.8630300000D-01
     Exponent=  8.3725400000D+00 Coefficients=  3.2388100000D-01
     Exponent=  3.8022200000D+00 Coefficients=  3.7453400000D-01
     Exponent=  1.6867700000D+00 Coefficients=  2.5741800000D-01
     Exponent=  6.7752000000D-01 Coefficients=  6.8051000000D-02
 D 1 1.00
     Exponent=  6.7752000000D-01 Coefficients=  1.0000000000D+00
 D 1 1.00
     Exponent=  2.5530000000D-01 Coefficients=  1.0000000000D+00
 D 1 1.00
     Exponent=  1.0090000000D-01 Coefficients=  1.0000000000D+00
 F 1 1.00
     Exponent=  5.6060000000D-01 Coefficients=  1.0000000000D+00
 F 1 1.00
     Exponent=  2.4540000000D-01 Coefficients=  1.0000000000D+00
 ****
 ======================================================================================================
                                       Pseudopotential Parameters
 ======================================================================================================
  Center     Atomic      Valence      Angular      Power
  Number     Number     Electrons     Momentum     of R      Exponent        Coefficient   SO-Coeffient
 ======================================================================================================
    1          8
                                   No pseudopotential on this center.
    2         35           25
                                      G and up 
                                                     2        1.0000000        0.00000000    0.00000000
                                      S - G
                                                     2       70.0242570       49.96283400    0.00000000
                                                     2       31.1784120      370.01420500    0.00000000
                                                     2        7.1565930       10.24143900    0.00000000
                                      P - G
                                                     2       46.7734710       99.11224400    0.00000000
                                                     2       46.1841200      198.25304600    0.00000000
                                                     2       21.7138580       28.26174000    0.00000000
                                                     2       20.9417920       56.62336600    0.00000000
                                      D - G
                                                     2       50.6988390      -18.60585300    0.00000000
                                                     2       50.6447640      -27.92328000    0.00000000
                                                     2       15.4475090       -0.37969300    0.00000000
                                                     2       15.5002590       -0.78058300    0.00000000
                                                     2        2.8003910        0.03596800    0.00000000
                                                     2        1.0774800        0.09439700    0.00000000
                                      F - G
                                                     2       14.4656060       -1.09126900    0.00000000
                                                     2       21.2340650       -2.88769100    0.00000000
    3         17
                                   No pseudopotential on this center.
    4          1
                                   No pseudopotential on this center.
 ======================================================================================================
 Ernie: Thresh=  0.10000D-02 Tol=  0.10000D-05 Strict=F.
 Ernie:  25 primitive shells out of 163 were deleted.
   174 basis functions,   373 primitive gaussians,   204 cartesian basis functions
    26 alpha electrons       26 beta electrons
       nuclear repulsion energy       150.6208886096 Hartrees.
 IExCor=    0 DFT=F Ex=HF Corr=None ExCW=0 ScaHFX=  1.000000
 ScaDFX=  1.000000  1.000000  1.000000  1.000000 ScalE2=  1.000000  1.000000
 IRadAn=      5 IRanWt=     -1 IRanGd=            0 ICorTp=0 IEmpDi=  4
 NAtoms=    4 NActive=    4 NUniq=    4 SFac= 1.00D+00 NAtFMM=   60 NAOKFM=F Big=F
 Integral buffers will be    131072 words long.
 Raffenetti 1 integral format.
 Two-electron integral symmetry is turned off.
 Leave Link  301 at Thu Sep 30 14:39:28 2021, MaxMem= 16106127360 cpu:               3.7 elap:               0.2
 (Enter /sw/contrib/gaussian/g16/B01/g16/l302.exe)
 NPDir=0 NMtPBC=     1 NCelOv=     1 NCel=       1 NClECP=     1 NCelD=      1
         NCelK=      1 NCelE2=     1 NClLst=     1 CellRange=     0.0.
 One-electron integrals computed using PRISM.
   1 Symmetry operations used in ECPInt.
 ECPInt:  NShTT=    1596 NPrTT=    9902 LenC2=    1595 LenP2D=    7764.
 LDataN:  DoStor=T MaxTD1= 7 Len=  274
 NBasis=   174 RedAO= T EigKep=  2.50D-04  NBF=   174
 NBsUse=   174 1.00D-06 EigRej= -1.00D+00 NBFU=   174
 Leave Link  302 at Thu Sep 30 14:39:29 2021, MaxMem= 16106127360 cpu:               7.3 elap:               0.3
 (Enter /sw/contrib/gaussian/g16/B01/g16/l303.exe)
 DipDrv:  MaxL=1.
 Leave Link  303 at Thu Sep 30 14:39:29 2021, MaxMem= 16106127360 cpu:               5.1 elap:               0.3
 (Enter /sw/contrib/gaussian/g16/B01/g16/l401.exe)
 ExpMin= 2.53D-02 ExpMax= 4.56D+05 ExpMxC= 1.44D+03 IAcc=3 IRadAn=         5 AccDes= 0.00D+00
 Harris functional with IExCor=  205 and IRadAn=       5 diagonalized for initial guess.
 HarFok:  IExCor=  205 AccDes= 0.00D+00 IRadAn=         5 IDoV= 1 UseB2=F ITyADJ=14
 ICtDFT=  3500011 ScaDFX=  1.000000  1.000000  1.000000  1.000000
 FoFCou: FMM=F IPFlag=           0 FMFlag=      100000 FMFlg1=           0
         NFxFlg=           0 DoJE=T BraDBF=F KetDBF=T FulRan=T
         wScrn=  0.000000 ICntrl=       500 IOpCl=  0 I1Cent=   200000004 NGrid=           0
         NMat0=    1 NMatS0=      1 NMatT0=    0 NMatD0=    1 NMtDS0=    0 NMtDT0=    0
 Symmetry not used in FoFCou.
 Harris En= -951.936235591910    
 JPrj=0 DoOrth=F DoCkMO=F.
 Leave Link  401 at Thu Sep 30 14:39:29 2021, MaxMem= 16106127360 cpu:               6.9 elap:               0.3
 (Enter /sw/contrib/gaussian/g16/B01/g16/l502.exe)
 Keep R1 ints in memory in canonical form, NReq=152797144.
 FoFCou: FMM=F IPFlag=           0 FMFlag=           0 FMFlg1=           0
         NFxFlg=           0 DoJE=F BraDBF=F KetDBF=F FulRan=T
         wScrn=  0.000000 ICntrl=       600 IOpCl=  0 I1Cent=           0 NGrid=           0
         NMat0=    1 NMatS0=  15225 NMatT0=    0 NMatD0=    1 NMtDS0=    0 NMtDT0=    0
 Symmetry not used in FoFCou.
 Two-electron integral symmetry not used.
 Closed shell SCF:
 Using DIIS extrapolation, IDIIS=  1040.
 NGot= 16106127360 LenX= 15990129197 LenY= 15990087140
 Requested convergence on RMS density matrix=1.00D-08 within 128 cycles.
 Requested convergence on MAX density matrix=1.00D-06.
 Requested convergence on             energy=1.00D-06.
 No special actions if energy rises.

 Cycle   1  Pass 1  IDiag  1:
 E= -950.368243734857    
 DIIS: error= 2.22D-02 at cycle   1 NSaved=   1.
 NSaved= 1 IEnMin= 1 EnMin= -950.368243734857     IErMin= 1 ErrMin= 2.22D-02
 ErrMax= 2.22D-02  0.00D+00 EMaxC= 1.00D-01 BMatC= 3.45D-01 BMatP= 3.45D-01
 IDIUse=3 WtCom= 7.78D-01 WtEn= 2.22D-01
 Coeff-Com:  0.100D+01
 Coeff-En:   0.100D+01
 Coeff:      0.100D+01
 Gap=     0.557 Goal=   None    Shift=    0.000
 GapD=    0.557 DampG=2.000 DampE=0.500 DampFc=1.0000 IDamp=-1.
 RMSDP=3.87D-03 MaxDP=2.61D-01              OVMax= 1.29D-01

 Cycle   2  Pass 1  IDiag  1:
 E= -950.491537749651     Delta-E=       -0.123294014793 Rises=F Damp=F
 DIIS: error= 1.28D-02 at cycle   2 NSaved=   2.
 NSaved= 2 IEnMin= 2 EnMin= -950.491537749651     IErMin= 2 ErrMin= 1.28D-02
 ErrMax= 1.28D-02  0.00D+00 EMaxC= 1.00D-01 BMatC= 4.28D-02 BMatP= 3.45D-01
 IDIUse=3 WtCom= 8.72D-01 WtEn= 1.28D-01
 Coeff-Com:  0.178D+00 0.822D+00
 Coeff-En:   0.000D+00 0.100D+01
 Coeff:      0.155D+00 0.845D+00
 Gap=     0.334 Goal=   None    Shift=    0.000
 RMSDP=1.08D-03 MaxDP=4.92D-02 DE=-1.23D-01 OVMax= 6.66D-02

 Cycle   3  Pass 1  IDiag  1:
 E= -950.513959676501     Delta-E=       -0.022421926850 Rises=F Damp=F
 DIIS: error= 5.72D-03 at cycle   3 NSaved=   3.
 NSaved= 3 IEnMin= 3 EnMin= -950.513959676501     IErMin= 3 ErrMin= 5.72D-03
 ErrMax= 5.72D-03  0.00D+00 EMaxC= 1.00D-01 BMatC= 9.96D-03 BMatP= 4.28D-02
 IDIUse=3 WtCom= 9.43D-01 WtEn= 5.72D-02
 Coeff-Com: -0.109D-01 0.313D+00 0.698D+00
 Coeff-En:   0.000D+00 0.531D-01 0.947D+00
 Coeff:     -0.103D-01 0.298D+00 0.712D+00
 Gap=     0.331 Goal=   None    Shift=    0.000
 RMSDP=3.34D-04 MaxDP=1.21D-02 DE=-2.24D-02 OVMax= 3.13D-02

 Cycle   4  Pass 1  IDiag  1:
 E= -950.520681111913     Delta-E=       -0.006721435412 Rises=F Damp=F
 DIIS: error= 1.10D-03 at cycle   4 NSaved=   4.
 NSaved= 4 IEnMin= 4 EnMin= -950.520681111913     IErMin= 4 ErrMin= 1.10D-03
 ErrMax= 1.10D-03  0.00D+00 EMaxC= 1.00D-01 BMatC= 2.13D-04 BMatP= 9.96D-03
 IDIUse=3 WtCom= 9.89D-01 WtEn= 1.10D-02
 Coeff-Com: -0.460D-02 0.391D-01 0.157D+00 0.809D+00
 Coeff-En:   0.000D+00 0.000D+00 0.000D+00 0.100D+01
 Coeff:     -0.455D-02 0.386D-01 0.155D+00 0.811D+00
 Gap=     0.326 Goal=   None    Shift=    0.000
 RMSDP=6.68D-05 MaxDP=1.99D-03 DE=-6.72D-03 OVMax= 3.05D-03

 Cycle   5  Pass 1  IDiag  1:
 E= -950.520876976545     Delta-E=       -0.000195864633 Rises=F Damp=F
 DIIS: error= 2.52D-04 at cycle   5 NSaved=   5.
 NSaved= 5 IEnMin= 5 EnMin= -950.520876976545     IErMin= 5 ErrMin= 2.52D-04
 ErrMax= 2.52D-04  0.00D+00 EMaxC= 1.00D-01 BMatC= 2.06D-05 BMatP= 2.13D-04
 IDIUse=3 WtCom= 9.97D-01 WtEn= 2.52D-03
 Coeff-Com: -0.404D-03-0.331D-01-0.587D-01 0.727D-01 0.102D+01
 Coeff-En:   0.000D+00 0.000D+00 0.000D+00 0.000D+00 0.100D+01
 Coeff:     -0.403D-03-0.330D-01-0.585D-01 0.726D-01 0.102D+01
 Gap=     0.327 Goal=   None    Shift=    0.000
 RMSDP=3.59D-05 MaxDP=1.22D-03 DE=-1.96D-04 OVMax= 3.29D-03

 Cycle   6  Pass 1  IDiag  1:
 E= -950.520920706052     Delta-E=       -0.000043729506 Rises=F Damp=F
 DIIS: error= 1.12D-04 at cycle   6 NSaved=   6.
 NSaved= 6 IEnMin= 6 EnMin= -950.520920706052     IErMin= 6 ErrMin= 1.12D-04
 ErrMax= 1.12D-04  0.00D+00 EMaxC= 1.00D-01 BMatC= 2.86D-06 BMatP= 2.06D-05
 IDIUse=3 WtCom= 9.99D-01 WtEn= 1.12D-03
 Coeff-Com:  0.928D-03 0.728D-03-0.492D-03-0.956D-01-0.312D+00 0.141D+01
 Coeff-En:   0.000D+00 0.000D+00 0.000D+00 0.000D+00 0.000D+00 0.100D+01
 Coeff:      0.927D-03 0.727D-03-0.491D-03-0.955D-01-0.312D+00 0.141D+01
 Gap=     0.327 Goal=   None    Shift=    0.000
 RMSDP=1.98D-05 MaxDP=6.85D-04 DE=-4.37D-05 OVMax= 1.90D-03

 Cycle   7  Pass 1  IDiag  1:
 E= -950.520930666704     Delta-E=       -0.000009960652 Rises=F Damp=F
 DIIS: error= 4.09D-05 at cycle   7 NSaved=   7.
 NSaved= 7 IEnMin= 7 EnMin= -950.520930666704     IErMin= 7 ErrMin= 4.09D-05
 ErrMax= 4.09D-05  0.00D+00 EMaxC= 1.00D-01 BMatC= 1.98D-07 BMatP= 2.86D-06
 IDIUse=1 WtCom= 1.00D+00 WtEn= 0.00D+00
 Coeff-Com: -0.315D-03 0.246D-02 0.614D-02 0.193D-01 0.320D-01-0.482D+00
 Coeff-Com:  0.142D+01
 Coeff:     -0.315D-03 0.246D-02 0.614D-02 0.193D-01 0.320D-01-0.482D+00
 Coeff:      0.142D+01
 Gap=     0.327 Goal=   None    Shift=    0.000
 RMSDP=6.22D-06 MaxDP=2.22D-04 DE=-9.96D-06 OVMax= 6.15D-04

 Cycle   8  Pass 1  IDiag  1:
 E= -950.520931503194     Delta-E=       -0.000000836490 Rises=F Damp=F
 DIIS: error= 7.48D-06 at cycle   8 NSaved=   8.
 NSaved= 8 IEnMin= 8 EnMin= -950.520931503194     IErMin= 8 ErrMin= 7.48D-06
 ErrMax= 7.48D-06  0.00D+00 EMaxC= 1.00D-01 BMatC= 1.59D-08 BMatP= 1.98D-07
 IDIUse=1 WtCom= 1.00D+00 WtEn= 0.00D+00
 Coeff-Com: -0.633D-04-0.239D-03-0.102D-03 0.844D-02 0.327D-01-0.150D+00
 Coeff-Com:  0.911D-01 0.102D+01
 Coeff:     -0.633D-04-0.239D-03-0.102D-03 0.844D-02 0.327D-01-0.150D+00
 Coeff:      0.911D-01 0.102D+01
 Gap=     0.327 Goal=   None    Shift=    0.000
 RMSDP=1.30D-06 MaxDP=4.14D-05 DE=-8.36D-07 OVMax= 1.27D-04

 Cycle   9  Pass 1  IDiag  1:
 E= -950.520931548729     Delta-E=       -0.000000045535 Rises=F Damp=F
 DIIS: error= 3.61D-06 at cycle   9 NSaved=   9.
 NSaved= 9 IEnMin= 9 EnMin= -950.520931548729     IErMin= 9 ErrMin= 3.61D-06
 ErrMax= 3.61D-06  0.00D+00 EMaxC= 1.00D-01 BMatC= 1.96D-09 BMatP= 1.59D-08
 IDIUse=1 WtCom= 1.00D+00 WtEn= 0.00D+00
 Coeff-Com:  0.331D-04-0.253D-03-0.503D-03-0.264D-02-0.943D-02 0.724D-01
 Coeff-Com: -0.156D+00-0.191D+00 0.129D+01
 Coeff:      0.331D-04-0.253D-03-0.503D-03-0.264D-02-0.943D-02 0.724D-01
 Coeff:     -0.156D+00-0.191D+00 0.129D+01
 Gap=     0.327 Goal=   None    Shift=    0.000
 RMSDP=6.42D-07 MaxDP=2.12D-05 DE=-4.55D-08 OVMax= 7.01D-05

 Cycle  10  Pass 1  IDiag  1:
 E= -950.520931557230     Delta-E=       -0.000000008502 Rises=F Damp=F
 DIIS: error= 1.89D-06 at cycle  10 NSaved=  10.
 NSaved=10 IEnMin=10 EnMin= -950.520931557230     IErMin=10 ErrMin= 1.89D-06
 ErrMax= 1.89D-06  0.00D+00 EMaxC= 1.00D-01 BMatC= 2.99D-10 BMatP= 1.96D-09
 IDIUse=1 WtCom= 1.00D+00 WtEn= 0.00D+00
 Coeff-Com: -0.467D-05 0.135D-03 0.192D-03-0.127D-03 0.351D-03-0.109D-01
 Coeff-Com:  0.520D-01-0.568D-01-0.525D+00 0.154D+01
 Coeff:     -0.467D-05 0.135D-03 0.192D-03-0.127D-03 0.351D-03-0.109D-01
 Coeff:      0.520D-01-0.568D-01-0.525D+00 0.154D+01
 Gap=     0.327 Goal=   None    Shift=    0.000
 RMSDP=3.27D-07 MaxDP=7.20D-06 DE=-8.50D-09 OVMax= 3.80D-05

 Cycle  11  Pass 1  IDiag  1:
 E= -950.520931558922     Delta-E=       -0.000000001692 Rises=F Damp=F
 DIIS: error= 6.43D-07 at cycle  11 NSaved=  11.
 NSaved=11 IEnMin=11 EnMin= -950.520931558922     IErMin=11 ErrMin= 6.43D-07
 ErrMax= 6.43D-07  0.00D+00 EMaxC= 1.00D-01 BMatC= 2.67D-11 BMatP= 2.99D-10
 IDIUse=1 WtCom= 1.00D+00 WtEn= 0.00D+00
 Coeff-Com: -0.279D-05 0.976D-06 0.137D-04 0.371D-03 0.807D-03-0.563D-02
 Coeff-Com:  0.725D-02 0.291D-01-0.218D-01-0.377D+00 0.137D+01
 Coeff:     -0.279D-05 0.976D-06 0.137D-04 0.371D-03 0.807D-03-0.563D-02
 Coeff:      0.725D-02 0.291D-01-0.218D-01-0.377D+00 0.137D+01
 Gap=     0.327 Goal=   None    Shift=    0.000
 RMSDP=1.04D-07 MaxDP=2.36D-06 DE=-1.69D-09 OVMax= 1.14D-05

 Cycle  12  Pass 1  IDiag  1:
 E= -950.520931559067     Delta-E=       -0.000000000145 Rises=F Damp=F
 DIIS: error= 1.08D-07 at cycle  12 NSaved=  12.
 NSaved=12 IEnMin=12 EnMin= -950.520931559067     IErMin=12 ErrMin= 1.08D-07
 ErrMax= 1.08D-07  0.00D+00 EMaxC= 1.00D-01 BMatC= 1.49D-12 BMatP= 2.67D-11
 IDIUse=1 WtCom= 1.00D+00 WtEn= 0.00D+00
 Coeff-Com:  0.127D-06-0.113D-04-0.155D-04 0.482D-04 0.215D-04 0.539D-03
 Coeff-Com: -0.395D-02 0.615D-02 0.436D-01-0.141D+00 0.443D-01 0.105D+01
 Coeff:      0.127D-06-0.113D-04-0.155D-04 0.482D-04 0.215D-04 0.539D-03
 Coeff:     -0.395D-02 0.615D-02 0.436D-01-0.141D+00 0.443D-01 0.105D+01
 Gap=     0.327 Goal=   None    Shift=    0.000
 RMSDP=2.08D-08 MaxDP=9.39D-07 DE=-1.45D-10 OVMax= 1.69D-06

 Cycle  13  Pass 1  IDiag  1:
 E= -950.520931559075     Delta-E=       -0.000000000008 Rises=F Damp=F
 DIIS: error= 2.58D-08 at cycle  13 NSaved=  13.
 NSaved=13 IEnMin=13 EnMin= -950.520931559075     IErMin=13 ErrMin= 2.58D-08
 ErrMax= 2.58D-08  0.00D+00 EMaxC= 1.00D-01 BMatC= 1.51D-13 BMatP= 1.49D-12
 IDIUse=1 WtCom= 1.00D+00 WtEn= 0.00D+00
 Coeff-Com:  0.187D-06 0.260D-05 0.204D-05-0.415D-04-0.582D-04 0.282D-03
 Coeff-Com:  0.336D-03-0.302D-02-0.963D-02 0.593D-01-0.102D+00-0.280D+00
 Coeff-Com:  0.133D+01
 Coeff:      0.187D-06 0.260D-05 0.204D-05-0.415D-04-0.582D-04 0.282D-03
 Coeff:      0.336D-03-0.302D-02-0.963D-02 0.593D-01-0.102D+00-0.280D+00
 Coeff:      0.133D+01
 Gap=     0.327 Goal=   None    Shift=    0.000
 RMSDP=7.52D-09 MaxDP=4.13D-07 DE=-8.41D-12 OVMax= 5.71D-07

 SCF Done:  E(RHF) =  -950.520931559     A.U. after   13 cycles
            NFock= 13  Conv=0.75D-08     -V/T= 2.1444
 KE= 8.305623588746D+02 PE=-2.611717404602D+03 EE= 6.800132255585D+02
 Leave Link  502 at Thu Sep 30 14:39:33 2021, MaxMem= 16106127360 cpu:              36.7 elap:               3.9
 (Enter /sw/contrib/gaussian/g16/B01/g16/l801.exe)
 ExpMin= 2.53D-02 ExpMax= 4.56D+05 ExpMxC= 1.44D+03 IAcc=3 IRadAn=         5 AccDes= 0.00D+00
 HarFok:  IExCor=  205 AccDes= 0.00D+00 IRadAn=         5 IDoV=-2 UseB2=F ITyADJ=14
 ICtDFT= 12500011 ScaDFX=  1.000000  1.000000  1.000000  1.000000
 Largest valence mixing into a core orbital is  4.47D-04
 Largest core mixing into a valence orbital is  1.58D-04
 Range of M.O.s used for correlation:    11   174
 NBasis=   174 NAE=    26 NBE=    26 NFC=    10 NFV=     0
 NROrb=    164 NOA=    16 NOB=    16 NVA=   148 NVB=   148

 **** Warning!!: The largest alpha MO coefficient is  0.13742027D+02

 Leave Link  801 at Thu Sep 30 14:39:33 2021, MaxMem= 16106127360 cpu:               2.1 elap:               0.1
 (Enter /sw/contrib/gaussian/g16/B01/g16/l906.exe)
 Frozen-core derivative calculation, NFC=  10 NFV=   0.
 FulOut=F Deriv=T AODrv=F NAtomX=     4
   MMem=         130  MDisk=          16 MDiskD=          16
  W3Min=      922896 MinDsk=     1491158 NBas6D=         204
 NBas2D=       21411    NTT=       20910    LW2=    16556320
    MDV= 16105732578 MDiskM=      394699 NBas2p=       21383
 Fully in-core method, ICMem=   510791049.
 IMap=   1   2   3   4   5   6   7   8   9  10  11  12  13  14  15  16  17  18  19  20
 IMap=  21  22  23  24  25  26
 JobTyp=1 Pass  1 fully in-core, NPsUse= 28.
 Compute canonical integrals.
 FoFCou: FMM=F IPFlag=           0 FMFlag=           0 FMFlg1=           0
         NFxFlg=           0 DoJE=F BraDBF=F KetDBF=F FulRan=T
         wScrn=  0.000000 ICntrl=       600 IOpCl=  1 I1Cent=           0 NGrid=           0
         NMat0=    1 NMatS0=  21411 NMatT0=    0 NMatD0=    1 NMtDS0=    0 NMtDT0=    0
 Symmetry not used in FoFCou.
 Spin components of T(2) and E(2):
     alpha-alpha T2 =       0.3026431657D-01 E2=     -0.9369716668D-01
     alpha-beta  T2 =       0.1613233528D+00 E2=     -0.5151740615D+00
     beta-beta   T2 =       0.3026431657D-01 E2=     -0.9369716668D-01
 The integrals were generated   1 times.
 ANorm=    0.1105374138D+01
 E2 =    -0.7025683948D+00 EUMP2 =    -0.95122349995391D+03
 Leave Link  906 at Thu Sep 30 14:39:39 2021, MaxMem= 16106127360 cpu:             164.2 elap:               5.9
 (Enter /sw/contrib/gaussian/g16/B01/g16/l1002.exe)
 Minotr:  Closed shell wavefunction.
          Computing MP2/KS-MP2 derivatives.
          Using Z-Vector for PSCF gradient.
          Skipping F1 and S1 gradient terms here.
          Frozen-core window.
          Direct CPHF calculation.
          Differentiating once with respect to electric field.
                with respect to dipole field.
          Electric field/nuclear overlap derivatives assumed to be zero.
          Requested convergence is 1.0D-10 RMS, and 1.0D-09 maximum.
          NewPWx=F KeepS1=T KeepF1=T KeepIn=T MapXYZ=F SortEE=F KeepMc=T.
 Keep R1 ints in memory in canonical form, NReq=152801945.
 FoFCou: FMM=F IPFlag=           0 FMFlag=           0 FMFlg1=           0
         NFxFlg=           0 DoJE=F BraDBF=F KetDBF=F FulRan=T
         wScrn=  0.000000 ICntrl=       600 IOpCl=  0 I1Cent=           0 NGrid=           0
         NMat0=    1 NMatS0=  15225 NMatT0=    0 NMatD0=    1 NMtDS0=    0 NMtDT0=    0
 Symmetry not used in FoFCou.
 Two-electron integral symmetry not used.
          MDV=   16106127360 using IRadAn=       5.
          Solving linear equations separately, MaxMat=       0.
          There are     1 degrees of freedom in the 1st order CPHF.  IDoFFX=0 NUNeed=     1.
 LinEq1:  Iter=  0 NonCon=     1 RMS=2.89D-03 Max=3.93D-02 NDo=     1
 AX will form     1 AO Fock derivatives at one time.
 LinEq1:  Iter=  1 NonCon=     1 RMS=4.66D-04 Max=4.48D-03 NDo=     1
 LinEq1:  Iter=  2 NonCon=     1 RMS=2.17D-04 Max=4.01D-03 NDo=     1
 LinEq1:  Iter=  3 NonCon=     1 RMS=6.91D-05 Max=9.50D-04 NDo=     1
 LinEq1:  Iter=  4 NonCon=     1 RMS=3.01D-05 Max=8.92D-04 NDo=     1
 LinEq1:  Iter=  5 NonCon=     1 RMS=1.08D-05 Max=1.47D-04 NDo=     1
 LinEq1:  Iter=  6 NonCon=     1 RMS=2.58D-06 Max=5.92D-05 NDo=     1
 LinEq1:  Iter=  7 NonCon=     1 RMS=7.61D-07 Max=1.76D-05 NDo=     1
 LinEq1:  Iter=  8 NonCon=     1 RMS=2.47D-07 Max=4.46D-06 NDo=     1
 LinEq1:  Iter=  9 NonCon=     1 RMS=6.81D-08 Max=6.86D-07 NDo=     1
 LinEq1:  Iter= 10 NonCon=     1 RMS=1.70D-08 Max=1.88D-07 NDo=     1
 LinEq1:  Iter= 11 NonCon=     1 RMS=3.73D-09 Max=6.96D-08 NDo=     1
 LinEq1:  Iter= 12 NonCon=     1 RMS=7.42D-10 Max=2.00D-08 NDo=     1
 LinEq1:  Iter= 13 NonCon=     1 RMS=2.29D-10 Max=3.79D-09 NDo=     1
 LinEq1:  Iter= 14 NonCon=     0 RMS=6.86D-11 Max=8.64D-10 NDo=     1
 Linear equations converged to 1.000D-10 1.000D-09 after    14 iterations.
 End of Minotr F.D. properties file   721 does not exist.
 End of Minotr F.D. properties file   722 does not exist.
 End of Minotr F.D. properties file   788 does not exist.
 Leave Link 1002 at Thu Sep 30 14:39:44 2021, MaxMem= 16106127360 cpu:              44.2 elap:               4.7
 (Enter /sw/contrib/gaussian/g16/B01/g16/l601.exe)
 Copying SCF densities to generalized density rwf, IOpCl= 0 IROHF=0.

 **********************************************************************

            Population analysis using the MP2 Density.

 **********************************************************************

 Alpha  occ. eigenvalues -- -104.73260 -20.46428 -10.45212  -9.55631  -7.91929
 Alpha  occ. eigenvalues --   -7.91663  -7.91652  -7.30430  -7.30365  -7.30363
 Alpha  occ. eigenvalues --   -2.85532  -2.85509  -2.85506  -2.85444  -2.85444
 Alpha  occ. eigenvalues --   -1.23148  -0.89704  -0.75392  -0.54178  -0.44419
 Alpha  occ. eigenvalues --   -0.43582  -0.30933  -0.28228  -0.18109  -0.17201
 Alpha  occ. eigenvalues --   -0.17171
 Alpha virt. eigenvalues --    0.15547   0.18118   0.22360   0.23106   0.25174
 Alpha virt. eigenvalues --    0.26549   0.26838   0.28567   0.30334   0.30676
 Alpha virt. eigenvalues --    0.32816   0.33219   0.35982   0.42206   0.43876
 Alpha virt. eigenvalues --    0.45958   0.48049   0.48507   0.50698   0.54028
 Alpha virt. eigenvalues --    0.55010   0.56453   0.58329   0.59389   0.59828
 Alpha virt. eigenvalues --    0.61206   0.65403   0.70774   0.75566   0.77964
 Alpha virt. eigenvalues --    0.80936   0.83479   0.83928   0.86073   0.88621
 Alpha virt. eigenvalues --    0.89002   0.89896   0.94076   0.97981   0.98368
 Alpha virt. eigenvalues --    0.98874   0.99323   1.00267   1.02013   1.03932
 Alpha virt. eigenvalues --    1.06533   1.08687   1.09442   1.11101   1.13317
 Alpha virt. eigenvalues --    1.14506   1.15190   1.15975   1.17227   1.19498
 Alpha virt. eigenvalues --    1.21802   1.25819   1.28462   1.30103   1.34822
 Alpha virt. eigenvalues --    1.36216   1.38330   1.45749   1.46935   1.49311
 Alpha virt. eigenvalues --    1.52879   1.57355   1.61192   1.65867   1.69763
 Alpha virt. eigenvalues --    1.71123   1.75418   1.79323   1.80312   1.88797
 Alpha virt. eigenvalues --    1.97150   2.16269   2.38633   2.40254   2.44934
 Alpha virt. eigenvalues --    2.46231   2.47230   2.49656   2.51292   2.53022
 Alpha virt. eigenvalues --    2.53244   2.54048   2.54324   2.55529   2.56258
 Alpha virt. eigenvalues --    2.59906   2.61190   2.62819   2.64610   2.65724
 Alpha virt. eigenvalues --    2.67393   2.69120   2.69731   2.71442   2.72201
 Alpha virt. eigenvalues --    2.74107   2.75146   2.77916   2.78863   2.83810
 Alpha virt. eigenvalues --    2.88029   2.96408   3.04941   3.07620   3.10723
 Alpha virt. eigenvalues --    3.19121   3.20717   3.22583   3.26750   3.30187
 Alpha virt. eigenvalues --    3.33172   3.41068   3.52455   3.54835   3.59070
 Alpha virt. eigenvalues --    3.92524   4.21587   4.32122   4.48984   4.55707
 Alpha virt. eigenvalues --    4.59939   4.76193   4.98380   5.07384   5.33450
 Alpha virt. eigenvalues --    5.41240   5.66579   6.42336   6.58132   6.86745
 Alpha virt. eigenvalues --    6.90167   6.91884   6.99501   7.29941   7.33688
 Alpha virt. eigenvalues --    7.34825   7.44075   7.54530   7.74611   7.79059
 Alpha virt. eigenvalues --    8.34867  14.46703  79.88370
          Condensed to atoms (all electrons):
               1          2          3          4
     1  O    8.627837  -0.079770  -0.118343   0.042075
     2  Br  -0.079770  25.918359   0.007086   0.021701
     3  Cl  -0.118343   0.007086  17.067595  -0.006682
     4  H    0.042075   0.021701  -0.006682   0.654077
 Mulliken charges:
               1
     1  O   -0.471798
     2  Br  -0.867376
     3  Cl   0.050344
     4  H    0.288830
 Sum of Mulliken charges =  -1.00000
 Mulliken charges with hydrogens summed into heavy atoms:
               1
     1  O   -0.182969
     2  Br  -0.867376
     3  Cl   0.050344
 Electronic spatial extent (au):  <R**2>=           1138.9967
 Charge=             -1.0000 electrons
 Dipole moment (field-independent basis, Debye):
    X=            -10.6916    Y=             -0.6407    Z=              0.1743  Tot=             10.7122
 Quadrupole moment (field-independent basis, Debye-Ang):
   XX=            -79.4517   YY=            -42.9909   ZZ=            -42.7327
   XY=              0.4415   XZ=              0.0459   YZ=             -0.0814
 Traceless Quadrupole moment (field-independent basis, Debye-Ang):
   XX=            -24.3932   YY=             12.0675   ZZ=             12.3257
   XY=              0.4415   XZ=              0.0459   YZ=             -0.0814
 Octapole moment (field-independent basis, Debye-Ang**2):
  XXX=           -307.4442  YYY=            -62.9321  ZZZ=             -1.0146  XYY=            -65.3041
  XXY=            -21.7290  XXZ=             -1.6872  XZZ=            -64.7026  YZZ=            -22.2865
  YYZ=             -0.4913  XYZ=              0.0515
 Hexadecapole moment (field-independent basis, Debye-Ang**3):
 XXXX=          -1695.1954 YYYY=           -258.1925 ZZZZ=            -62.0350 XXXY=             28.3117
 XXXZ=             -6.9801 YYYX=             22.0650 YYYZ=             -0.4081 ZZZX=             -1.5764
 ZZZY=             -0.1309 XXYY=           -272.5827 XXZZ=           -237.0995 YYZZ=            -57.8603
 XXYZ=             -0.0945 YYXZ=             -0.3724 ZZXY=              9.2794
 N-N= 1.506208886096D+02 E-N=-2.610516164530D+03  KE= 8.303943279645D+02
 No NMR shielding tensors so no spin-rotation constants.
 Leave Link  601 at Thu Sep 30 14:39:44 2021, MaxMem= 16106127360 cpu:               4.7 elap:               0.2
 (Enter /sw/contrib/gaussian/g16/B01/g16/l607.exe)
 ******************************Gaussian NBO Version 3.1******************************
             N A T U R A L   A T O M I C   O R B I T A L   A N D
          N A T U R A L   B O N D   O R B I T A L   A N A L Y S I S
 ******************************Gaussian NBO Version 3.1******************************
       /RESON  / : Allow strongly delocalized NBO set

 Analyzing the MP2 density

 Job title: title                                                           

 Storage needed:     91686 in NPA,    121697 in NBO (********** available)
 GSVD:  LWork=        2436 too small for GESVD, short by       52200 words or       52200 for optimal perf.


 NATURAL POPULATIONS:  Natural atomic orbital occupancies 
                                                          
   NAO  Atom  No  lang   Type(AO)    Occupancy
 --------------------------------------------
     1    O    1  S      Cor( 1S)     1.99970
     2    O    1  S      Val( 2S)     1.79119
     3    O    1  S      Ryd( 3S)     0.00963
     4    O    1  S      Ryd( 4S)     0.00114
     5    O    1  S      Ryd( 5S)     0.00019
     6    O    1  px     Val( 2p)     1.66418
     7    O    1  px     Ryd( 3p)     0.01172
     8    O    1  px     Ryd( 4p)     0.00075
     9    O    1  px     Ryd( 5p)     0.00046
    10    O    1  py     Val( 2p)     1.26675
    11    O    1  py     Ryd( 3p)     0.00782
    12    O    1  py     Ryd( 4p)     0.00063
    13    O    1  py     Ryd( 5p)     0.00038
    14    O    1  pz     Val( 2p)     1.92679
    15    O    1  pz     Ryd( 3p)     0.01954
    16    O    1  pz     Ryd( 4p)     0.00068
    17    O    1  pz     Ryd( 5p)     0.00019
    18    O    1  dxy    Ryd( 3d)     0.00938
    19    O    1  dxy    Ryd( 4d)     0.00047
    20    O    1  dxy    Ryd( 5d)     0.00018
    21    O    1  dxz    Ryd( 3d)     0.00833
    22    O    1  dxz    Ryd( 4d)     0.00060
    23    O    1  dxz    Ryd( 5d)     0.00028
    24    O    1  dyz    Ryd( 3d)     0.00936
    25    O    1  dyz    Ryd( 4d)     0.00057
    26    O    1  dyz    Ryd( 5d)     0.00011
    27    O    1  dx2y2  Ryd( 3d)     0.01230
    28    O    1  dx2y2  Ryd( 4d)     0.00038
    29    O    1  dx2y2  Ryd( 5d)     0.00015
    30    O    1  dz2    Ryd( 3d)     0.00933
    31    O    1  dz2    Ryd( 4d)     0.00057
    32    O    1  dz2    Ryd( 5d)     0.00018
    33    O    1  f(0)   Ryd( 4f)     0.00069
    34    O    1  f(0)   Ryd( 5f)     0.00011
    35    O    1  f(C1)  Ryd( 4f)     0.00059
    36    O    1  f(C1)  Ryd( 5f)     0.00011
    37    O    1  f(S1)  Ryd( 4f)     0.00065
    38    O    1  f(S1)  Ryd( 5f)     0.00011
    39    O    1  f(C2)  Ryd( 4f)     0.00059
    40    O    1  f(C2)  Ryd( 5f)     0.00013
    41    O    1  f(S2)  Ryd( 4f)     0.00057
    42    O    1  f(S2)  Ryd( 5f)     0.00012
    43    O    1  f(C3)  Ryd( 4f)     0.00057
    44    O    1  f(C3)  Ryd( 5f)     0.00015
    45    O    1  f(S3)  Ryd( 4f)     0.00057
    46    O    1  f(S3)  Ryd( 5f)     0.00012

    47   Br    2  S      Cor( 3S)     1.99987
    48   Br    2  S      Val( 4S)     1.96968
    49   Br    2  S      Ryd( 5S)     0.00201
    50   Br    2  S      Ryd( 6S)     0.00044
    51   Br    2  S      Ryd( 7S)     0.00017
    52   Br    2  S      Ryd( 8S)     0.00000
    53   Br    2  px     Cor( 3p)     1.99993
    54   Br    2  px     Val( 4p)     1.86304
    55   Br    2  px     Ryd( 5p)     0.00972
    56   Br    2  px     Ryd( 6p)     0.00073
    57   Br    2  px     Ryd( 7p)     0.00015
    58   Br    2  py     Cor( 3p)     2.00001
    59   Br    2  py     Val( 4p)     1.95349
    60   Br    2  py     Ryd( 5p)     0.01137
    61   Br    2  py     Ryd( 6p)     0.00079
    62   Br    2  py     Ryd( 7p)     0.00010
    63   Br    2  pz     Cor( 3p)     2.00001
    64   Br    2  pz     Val( 4p)     1.95082
    65   Br    2  pz     Ryd( 5p)     0.01138
    66   Br    2  pz     Ryd( 6p)     0.00079
    67   Br    2  pz     Ryd( 7p)     0.00010
    68   Br    2  dxy    Cor( 3d)     1.99768
    69   Br    2  dxy    Ryd( 4d)     0.01870
    70   Br    2  dxy    Ryd( 5d)     0.00139
    71   Br    2  dxy    Ryd( 6d)     0.00022
    72   Br    2  dxz    Cor( 3d)     1.99768
    73   Br    2  dxz    Ryd( 4d)     0.01878
    74   Br    2  dxz    Ryd( 5d)     0.00145
    75   Br    2  dxz    Ryd( 6d)     0.00020
    76   Br    2  dyz    Cor( 3d)     1.99771
    77   Br    2  dyz    Ryd( 4d)     0.01846
    78   Br    2  dyz    Ryd( 5d)     0.00173
    79   Br    2  dyz    Ryd( 6d)     0.00022
    80   Br    2  dx2y2  Cor( 3d)     1.99764
    81   Br    2  dx2y2  Ryd( 4d)     0.01824
    82   Br    2  dx2y2  Ryd( 5d)     0.00162
    83   Br    2  dx2y2  Ryd( 6d)     0.00021
    84   Br    2  dz2    Cor( 3d)     1.99768
    85   Br    2  dz2    Ryd( 4d)     0.01839
    86   Br    2  dz2    Ryd( 5d)     0.00168
    87   Br    2  dz2    Ryd( 6d)     0.00020
    88   Br    2  f(0)   Ryd( 4f)     0.00172
    89   Br    2  f(0)   Ryd( 5f)     0.00026
    90   Br    2  f(C1)  Ryd( 4f)     0.00173
    91   Br    2  f(C1)  Ryd( 5f)     0.00028
    92   Br    2  f(S1)  Ryd( 4f)     0.00173
    93   Br    2  f(S1)  Ryd( 5f)     0.00024
    94   Br    2  f(C2)  Ryd( 4f)     0.00171
    95   Br    2  f(C2)  Ryd( 5f)     0.00026
    96   Br    2  f(S2)  Ryd( 4f)     0.00175
    97   Br    2  f(S2)  Ryd( 5f)     0.00026
    98   Br    2  f(C3)  Ryd( 4f)     0.00174
    99   Br    2  f(C3)  Ryd( 5f)     0.00028
   100   Br    2  f(S3)  Ryd( 4f)     0.00167
   101   Br    2  f(S3)  Ryd( 5f)     0.00026

   102   Cl    3  S      Cor( 1S)     2.00000
   103   Cl    3  S      Cor( 2S)     1.99979
   104   Cl    3  S      Val( 3S)     1.88188
   105   Cl    3  S      Ryd( 4S)     0.00791
   106   Cl    3  S      Ryd( 5S)     0.00053
   107   Cl    3  S      Ryd( 6S)     0.00017
   108   Cl    3  px     Cor( 2p)     2.00003
   109   Cl    3  px     Val( 3p)     1.89058
   110   Cl    3  px     Ryd( 4p)     0.00953
   111   Cl    3  px     Ryd( 5p)     0.00053
   112   Cl    3  px     Ryd( 6p)     0.00008
   113   Cl    3  py     Cor( 2p)     1.99996
   114   Cl    3  py     Val( 3p)     0.97040
   115   Cl    3  py     Ryd( 4p)     0.00694
   116   Cl    3  py     Ryd( 5p)     0.00052
   117   Cl    3  py     Ryd( 6p)     0.00023
   118   Cl    3  pz     Cor( 2p)     2.00003
   119   Cl    3  pz     Val( 3p)     1.95443
   120   Cl    3  pz     Ryd( 4p)     0.01058
   121   Cl    3  pz     Ryd( 5p)     0.00066
   122   Cl    3  pz     Ryd( 6p)     0.00003
   123   Cl    3  dxy    Ryd( 3d)     0.01748
   124   Cl    3  dxy    Ryd( 4d)     0.00070
   125   Cl    3  dxy    Ryd( 5d)     0.00026
   126   Cl    3  dxz    Ryd( 3d)     0.01718
   127   Cl    3  dxz    Ryd( 4d)     0.00076
   128   Cl    3  dxz    Ryd( 5d)     0.00019
   129   Cl    3  dyz    Ryd( 3d)     0.02071
   130   Cl    3  dyz    Ryd( 4d)     0.00104
   131   Cl    3  dyz    Ryd( 5d)     0.00036
   132   Cl    3  dx2y2  Ryd( 3d)     0.01817
   133   Cl    3  dx2y2  Ryd( 4d)     0.00065
   134   Cl    3  dx2y2  Ryd( 5d)     0.00025
   135   Cl    3  dz2    Ryd( 3d)     0.01750
   136   Cl    3  dz2    Ryd( 4d)     0.00061
   137   Cl    3  dz2    Ryd( 5d)     0.00017
   138   Cl    3  f(0)   Ryd( 4f)     0.00131
   139   Cl    3  f(0)   Ryd( 5f)     0.00013
   140   Cl    3  f(C1)  Ryd( 4f)     0.00128
   141   Cl    3  f(C1)  Ryd( 5f)     0.00013
   142   Cl    3  f(S1)  Ryd( 4f)     0.00143
   143   Cl    3  f(S1)  Ryd( 5f)     0.00014
   144   Cl    3  f(C2)  Ryd( 4f)     0.00130
   145   Cl    3  f(C2)  Ryd( 5f)     0.00013
   146   Cl    3  f(S2)  Ryd( 4f)     0.00123
   147   Cl    3  f(S2)  Ryd( 5f)     0.00014
   148   Cl    3  f(C3)  Ryd( 4f)     0.00141
   149   Cl    3  f(C3)  Ryd( 5f)     0.00013
   150   Cl    3  f(S3)  Ryd( 4f)     0.00144
   151   Cl    3  f(S3)  Ryd( 5f)     0.00014

   152    H    4  S      Val( 1S)     0.49369
   153    H    4  S      Ryd( 2S)     0.00837
   154    H    4  S      Ryd( 3S)     0.00030
   155    H    4  S      Ryd( 4S)     0.00018
   156    H    4  px     Ryd( 2p)     0.00565
   157    H    4  px     Ryd( 3p)     0.00101
   158    H    4  px     Ryd( 4p)     0.00032
   159    H    4  py     Ryd( 2p)     0.00378
   160    H    4  py     Ryd( 3p)     0.00043
   161    H    4  py     Ryd( 4p)     0.00013
   162    H    4  pz     Ryd( 2p)     0.00504
   163    H    4  pz     Ryd( 3p)     0.00042
   164    H    4  pz     Ryd( 4p)     0.00023
   165    H    4  dxy    Ryd( 3d)     0.00027
   166    H    4  dxy    Ryd( 4d)     0.00009
   167    H    4  dxz    Ryd( 3d)     0.00039
   168    H    4  dxz    Ryd( 4d)     0.00011
   169    H    4  dyz    Ryd( 3d)     0.00023
   170    H    4  dyz    Ryd( 4d)     0.00006
   171    H    4  dx2y2  Ryd( 3d)     0.00023
   172    H    4  dx2y2  Ryd( 4d)     0.00013
   173    H    4  dz2    Ryd( 3d)     0.00027
   174    H    4  dz2    Ryd( 4d)     0.00009

 [ 10 electrons found in the effective core potential]

 WARNING:  5 low occupancy (<1.9990e) core orbitals found on Br    2


 Summary of Natural Population Analysis:                  
                                                          
                                       Natural Population 
                Natural  -----------------------------------------------
    Atom  No    Charge         Core      Valence    Rydberg      Total
 -----------------------------------------------------------------------
      O    1   -0.75902      1.99970     6.64891    0.11041     8.75902
     Br    2   -0.87837     27.98822     7.73703    0.15312    35.87837
     Cl    3    0.15882      9.99981     6.69729    0.14407    16.84118
      H    4    0.47856      0.00000     0.49369    0.02774     0.52144
 =======================================================================
   * Total *   -1.00000     39.98772    21.57693    0.43535    62.00000

                                 Natural Population      
 --------------------------------------------------------
   Effective Core            10.00000
   Core                      29.98772 ( 99.9591% of  30)
   Valence                   21.57693 ( 98.0769% of  22)
   Natural Minimal Basis     61.56465 ( 99.2978% of  62)
   Natural Rydberg Basis      0.43535 (  0.7022% of  62)
 --------------------------------------------------------

    Atom  No          Natural Electron Configuration
 ----------------------------------------------------------------------------
      O    1      [core]2S( 1.79)2p( 4.86)3S( 0.01)3p( 0.04)3d( 0.05)
     Br    2      [core]4S( 1.97)4p( 5.77)4d( 0.09)5p( 0.03)4f( 0.01)5d( 0.01)
     Cl    3      [core]3S( 1.88)3p( 4.82)4S( 0.01)3d( 0.09)4p( 0.03)4f( 0.01)
      H    4            1S( 0.49)2S( 0.01)2p( 0.01)


 NATURAL BOND ORBITAL ANALYSIS:

                       Occupancies       Lewis Structure    Low   High
           Occ.    -------------------  -----------------   occ   occ
  Cycle   Thresh.   Lewis   Non-Lewis     CR  BD  3C  LP    (L)   (NL)   Dev
 =============================================================================
   1(1)    1.90    61.43388   0.56612     15   2   0   9     1      1    0.15
   2(2)    1.90    61.43388   0.56612     15   2   0   9     1      1    0.15
   3(1)    1.80    61.43388   0.56612     15   2   0   9     0      1    0.15
   4(2)    1.80    61.43388   0.56612     15   2   0   9     0      1    0.15
   5(1)    1.70    61.43388   0.56612     15   2   0   9     0      1    0.15
   6(2)    1.70    61.43388   0.56612     15   2   0   9     0      1    0.15
   7(1)    1.60    61.43388   0.56612     15   2   0   9     0      1    0.15
   8(2)    1.60    61.43388   0.56612     15   2   0   9     0      1    0.15
   9(1)    1.50    61.05974   0.94026     15   1   0  10     0      1    0.56
  10(2)    1.50    61.05974   0.94026     15   1   0  10     0      1    0.56
  11(1)    1.90    61.43388   0.56612     15   2   0   9     1      1    0.15
 -----------------------------------------------------------------------------

 Structure accepted: RESONANCE keyword permits strongly delocalized structure

 WARNING:  5 low occupancy (<1.9990e) core orbitals found on Br    2

 --------------------------------------------------------
   Effective Core           10.00000
   Core                     29.98772 ( 99.959% of  30)
   Valence Lewis            21.44616 ( 97.483% of  22)
  ==================       ============================
   Total Lewis              61.43388 ( 99.087% of  62)
  -----------------------------------------------------
   Valence non-Lewis         0.17691 (  0.285% of  62)
   Rydberg non-Lewis         0.38920 (  0.628% of  62)
  ==================       ============================
   Total non-Lewis           0.56612 (  0.913% of  62)
 --------------------------------------------------------


       (Occupancy)   Bond orbital/ Coefficients/ Hybrids
 ---------------------------------------------------------------------------------
     1. (1.93942) BD ( 1) O   1 -Cl   3  
                ( 58.91%)   0.7675* O   1 s( 10.45%)p 8.52( 89.01%)d 0.05(  0.52%)
                                                  f 0.00(  0.02%)
                                            0.0003  0.3202 -0.0419 -0.0145 -0.0009
                                           -0.1957  0.0339  0.0072  0.0024  0.9217
                                           -0.0236 -0.0089 -0.0106  0.0161  0.0080
                                            0.0014 -0.0003 -0.0060 -0.0007 -0.0031
                                            0.0039  0.0003 -0.0008  0.0088  0.0012
                                           -0.0004 -0.0575 -0.0046 -0.0009 -0.0412
                                           -0.0034  0.0004 -0.0000 -0.0000  0.0027
                                           -0.0003 -0.0104  0.0009 -0.0016  0.0010
                                            0.0027 -0.0006  0.0037  0.0019 -0.0051
                                            0.0006
                ( 41.09%)   0.6410*Cl   3 s(  8.55%)p10.54( 90.18%)d 0.14(  1.16%)
                                                  f 0.01(  0.11%)
                                           -0.0000  0.0005  0.2869 -0.0559 -0.0101
                                           -0.0025  0.0001  0.2307 -0.0135 -0.0056
                                            0.0018 -0.0004 -0.9187  0.0642  0.0129
                                           -0.0040  0.0000  0.0033  0.0000 -0.0011
                                            0.0004 -0.0513  0.0049 -0.0004  0.0038
                                           -0.0000 -0.0006 -0.0049 -0.0006 -0.0004
                                           -0.0748  0.0095  0.0007 -0.0563  0.0060
                                            0.0008 -0.0004  0.0000 -0.0053  0.0009
                                            0.0203 -0.0029  0.0000 -0.0003 -0.0009
                                            0.0005 -0.0177  0.0021  0.0188 -0.0021
     2. (1.96418) BD ( 1) O   1 - H   4  
                ( 79.69%)   0.8927* O   1 s( 28.16%)p 2.53( 71.34%)d 0.02(  0.49%)
                                                  f 0.00(  0.01%)
                                            0.0003  0.5305 -0.0065 -0.0084  0.0022
                                            0.8093 -0.0090 -0.0070 -0.0047 -0.0146
                                            0.0155  0.0015  0.0022  0.2406 -0.0006
                                           -0.0022 -0.0022  0.0255  0.0047  0.0010
                                            0.0329  0.0022 -0.0010  0.0083  0.0015
                                            0.0001  0.0476  0.0037  0.0016 -0.0277
                                           -0.0010  0.0026 -0.0056  0.0000 -0.0064
                                            0.0000 -0.0000  0.0004  0.0035  0.0012
                                            0.0003 -0.0006  0.0004  0.0028 -0.0018
                                           -0.0004
                ( 20.31%)   0.4506* H   4 s( 99.81%)p 0.00(  0.18%)d 0.00(  0.00%)
                                            0.9982  0.0427  0.0029 -0.0019  0.0126
                                           -0.0324 -0.0100  0.0140  0.0016 -0.0040
                                            0.0146 -0.0099 -0.0007  0.0011  0.0019
                                           -0.0009 -0.0006  0.0009  0.0006  0.0023
                                           -0.0005 -0.0014 -0.0026
     3. (1.99970) CR ( 1) O   1           s(100.00%)p 0.00(  0.00%)
                                            1.0000 -0.0004  0.0000  0.0000 -0.0000
                                           -0.0001 -0.0000  0.0000  0.0000 -0.0002
                                            0.0000  0.0000  0.0000 -0.0000 -0.0000
                                            0.0000  0.0000 -0.0000 -0.0000 -0.0000
                                           -0.0000 -0.0000  0.0000 -0.0000 -0.0000
                                           -0.0000  0.0000  0.0000 -0.0000  0.0000
                                            0.0000 -0.0000  0.0000  0.0000  0.0000
                                            0.0000  0.0000 -0.0000 -0.0000 -0.0000
                                           -0.0000  0.0000 -0.0000 -0.0000  0.0000
                                           -0.0000
     4. (1.99987) CR ( 1)Br   2           s(100.00%)
                                            1.0000 -0.0002  0.0000 -0.0000 -0.0000
                                            0.0000 -0.0000 -0.0000  0.0000 -0.0000
                                            0.0000  0.0000  0.0000  0.0000  0.0000
                                            0.0000  0.0000  0.0000 -0.0000  0.0000
                                           -0.0000  0.0000 -0.0000  0.0000 -0.0000
                                           -0.0000 -0.0000 -0.0000 -0.0000 -0.0000
                                            0.0000 -0.0000  0.0000  0.0000  0.0000
                                            0.0000  0.0000 -0.0000  0.0000 -0.0000
                                           -0.0000 -0.0000  0.0000 -0.0000 -0.0000
                                           -0.0000 -0.0000  0.0000 -0.0000 -0.0000
                                           -0.0000  0.0000  0.0000  0.0000  0.0000
     5. (1.99993) CR ( 2)Br   2           s(  0.00%)p 1.00(100.00%)
                                            0.0000  0.0001 -0.0000  0.0000  0.0000
                                           -0.0000 -1.0000  0.0000 -0.0000  0.0000
                                           -0.0000  0.0000  0.0000 -0.0000 -0.0000
                                           -0.0000  0.0000  0.0000  0.0000  0.0000
                                           -0.0000  0.0000 -0.0000 -0.0000  0.0000
                                            0.0000 -0.0000  0.0000  0.0000  0.0000
                                           -0.0000  0.0000 -0.0000 -0.0000 -0.0000
                                           -0.0000  0.0000  0.0000  0.0000 -0.0000
                                            0.0000 -0.0000 -0.0000 -0.0000 -0.0000
                                           -0.0000  0.0000  0.0000  0.0000 -0.0000
                                           -0.0000 -0.0000 -0.0000  0.0000 -0.0000
     6. (2.00001) CR ( 3)Br   2           s(  0.00%)p 1.00(100.00%)
                                            0.0000 -0.0000 -0.0000  0.0000  0.0000
                                            0.0000 -0.0000  0.0000  0.0000 -0.0000
                                            0.0000  1.0000 -0.0002 -0.0000 -0.0000
                                            0.0000  0.0000 -0.0000 -0.0000 -0.0000
                                           -0.0000 -0.0000  0.0000 -0.0000 -0.0000
                                           -0.0000  0.0000 -0.0000  0.0000  0.0000
                                           -0.0000  0.0000 -0.0000  0.0000 -0.0000
                                            0.0000 -0.0000 -0.0000 -0.0000  0.0000
                                           -0.0000  0.0000  0.0000 -0.0000 -0.0000
                                            0.0000  0.0000 -0.0000 -0.0000  0.0000
                                            0.0000  0.0000  0.0000 -0.0000 -0.0000
     7. (2.00001) CR ( 4)Br   2           s(  0.00%)p 1.00(100.00%)
                                            0.0000  0.0000  0.0000 -0.0000 -0.0000
                                           -0.0000 -0.0000 -0.0000 -0.0000  0.0000
                                           -0.0000  0.0000  0.0000  0.0000  0.0000
                                            0.0000  1.0000 -0.0002 -0.0000 -0.0000
                                            0.0000  0.0000 -0.0000 -0.0000 -0.0000
                                           -0.0000  0.0000 -0.0000 -0.0000 -0.0000
                                            0.0000 -0.0000  0.0000 -0.0000  0.0000
                                           -0.0000 -0.0000  0.0000 -0.0000  0.0000
                                           -0.0000  0.0000  0.0000  0.0000  0.0000
                                            0.0000 -0.0000 -0.0000 -0.0000  0.0000
                                            0.0000 -0.0000 -0.0000  0.0000  0.0000
     8. (1.99768) CR ( 5)Br   2           s(  0.00%)p 0.00(  0.00%)d 1.00(100.00%)
                                            0.0000  0.0000 -0.0000  0.0000  0.0000
                                            0.0000 -0.0000  0.0000  0.0000 -0.0000
                                            0.0000 -0.0000 -0.0000 -0.0000 -0.0000
                                            0.0000  0.0000  0.0000 -0.0000  0.0000
                                           -0.0000  1.0000  0.0000 -0.0000 -0.0000
                                           -0.0000 -0.0000 -0.0000  0.0000  0.0000
                                           -0.0000  0.0000 -0.0000  0.0000 -0.0000
                                            0.0000 -0.0000 -0.0000 -0.0000  0.0000
                                           -0.0000  0.0000  0.0000 -0.0000 -0.0000
                                            0.0000  0.0000 -0.0000 -0.0000  0.0000
                                            0.0000  0.0000  0.0000 -0.0000 -0.0000
     9. (1.99768) CR ( 6)Br   2           s(  0.00%)p 0.00(  0.00%)d 1.00(100.00%)
                                           -0.0000 -0.0000  0.0000 -0.0000 -0.0000
                                           -0.0000 -0.0000 -0.0000  0.0000 -0.0000
                                            0.0000 -0.0000 -0.0000 -0.0000 -0.0000
                                            0.0000 -0.0000 -0.0000 -0.0000 -0.0000
                                            0.0000 -0.0000  0.0000 -0.0000 -0.0000
                                            1.0000  0.0000 -0.0000 -0.0000 -0.0000
                                           -0.0000 -0.0000  0.0000  0.0000  0.0000
                                            0.0000 -0.0000 -0.0000 -0.0000  0.0000
                                           -0.0000  0.0000  0.0000  0.0000  0.0000
                                            0.0000 -0.0000 -0.0000 -0.0000  0.0000
                                            0.0000 -0.0000  0.0000 -0.0000 -0.0000
    10. (1.99771) CR ( 7)Br   2           s(  0.00%)p 0.00(  0.00%)d 1.00(100.00%)
                                           -0.0000 -0.0000  0.0000 -0.0000 -0.0000
                                           -0.0000 -0.0000 -0.0000 -0.0000  0.0000
                                           -0.0000  0.0000  0.0000  0.0000  0.0000
                                           -0.0000 -0.0000 -0.0000 -0.0000 -0.0000
                                            0.0000  0.0000 -0.0000  0.0000  0.0000
                                           -0.0000  0.0000  0.0000 -0.0000  1.0000
                                            0.0000 -0.0000  0.0000 -0.0000  0.0000
                                           -0.0000  0.0000  0.0000 -0.0000  0.0000
                                            0.0000  0.0000  0.0000  0.0000  0.0000
                                           -0.0000 -0.0000 -0.0000  0.0000 -0.0000
                                           -0.0000 -0.0000 -0.0000  0.0000  0.0000
    11. (1.99764) CR ( 8)Br   2           s(  0.00%)p 0.00(  0.00%)d 1.00(100.00%)
                                            0.0000  0.0000 -0.0000  0.0000  0.0000
                                           -0.0000  0.0000  0.0000 -0.0000  0.0000
                                           -0.0000  0.0000  0.0000  0.0000  0.0000
                                           -0.0000 -0.0000 -0.0000  0.0000 -0.0000
                                            0.0000  0.0000 -0.0000 -0.0000  0.0000
                                            0.0000  0.0000  0.0000  0.0000 -0.0000
                                            0.0000 -0.0000  0.0000  1.0000 -0.0000
                                           -0.0000 -0.0000  0.0000  0.0000  0.0000
                                            0.0000  0.0000 -0.0000  0.0000  0.0000
                                           -0.0000  0.0000 -0.0000  0.0000 -0.0000
                                            0.0000 -0.0000 -0.0000  0.0000  0.0000
    12. (1.99768) CR ( 9)Br   2           s(  0.00%)p 0.00(  0.00%)d 1.00(100.00%)
                                           -0.0000 -0.0000 -0.0000 -0.0000 -0.0000
                                            0.0000 -0.0000 -0.0000  0.0000 -0.0000
                                            0.0000 -0.0000 -0.0000 -0.0000 -0.0000
                                            0.0000  0.0000  0.0000  0.0000  0.0000
                                           -0.0000 -0.0000  0.0000  0.0000 -0.0000
                                           -0.0000 -0.0000  0.0000  0.0000  0.0000
                                           -0.0000  0.0000 -0.0000  0.0000 -0.0000
                                            0.0000  0.0000  1.0000  0.0000 -0.0000
                                           -0.0000 -0.0000 -0.0000 -0.0000 -0.0000
                                            0.0000 -0.0000  0.0000  0.0000  0.0000
                                           -0.0000  0.0000  0.0000 -0.0000 -0.0000
    13. (2.00000) CR ( 1)Cl   3           s(100.00%)
                                            1.0000  0.0000 -0.0000 -0.0000 -0.0000
                                           -0.0000  0.0000  0.0000 -0.0000 -0.0000
                                            0.0000 -0.0000 -0.0000  0.0000  0.0000
                                           -0.0000 -0.0000  0.0000  0.0000 -0.0000
                                            0.0000 -0.0000  0.0000 -0.0000  0.0000
                                           -0.0000 -0.0000 -0.0000 -0.0000 -0.0000
                                           -0.0000  0.0000  0.0000 -0.0000  0.0000
                                            0.0000 -0.0000  0.0000 -0.0000  0.0000
                                            0.0000 -0.0000 -0.0000 -0.0000 -0.0000
                                            0.0000 -0.0000  0.0000  0.0000 -0.0000
    14. (1.99979) CR ( 2)Cl   3           s(100.00%)p 0.00(  0.00%)
                                            0.0000  1.0000 -0.0004  0.0000  0.0000
                                            0.0000 -0.0000 -0.0001  0.0000  0.0000
                                           -0.0000  0.0000  0.0004 -0.0000 -0.0000
                                            0.0000 -0.0000 -0.0000 -0.0000  0.0000
                                           -0.0000  0.0000 -0.0000 -0.0000 -0.0000
                                            0.0000  0.0000  0.0000  0.0000  0.0000
                                            0.0000 -0.0000 -0.0000  0.0000 -0.0000
                                           -0.0000  0.0000 -0.0000  0.0000 -0.0000
                                           -0.0000  0.0000 -0.0000  0.0000  0.0000
                                           -0.0000  0.0000 -0.0000 -0.0000  0.0000
    15. (2.00003) CR ( 3)Cl   3           s(  0.00%)p 1.00(100.00%)
                                            0.0000 -0.0000 -0.0000  0.0000  0.0000
                                            0.0000  1.0000  0.0001  0.0000  0.0000
                                           -0.0000  0.0000  0.0001 -0.0000 -0.0000
                                            0.0000 -0.0000 -0.0000  0.0000  0.0000
                                            0.0000  0.0000  0.0000  0.0000 -0.0000
                                            0.0000  0.0000  0.0000 -0.0000  0.0000
                                            0.0000 -0.0000 -0.0000  0.0000 -0.0000
                                           -0.0000 -0.0000  0.0000  0.0000 -0.0000
                                           -0.0000  0.0000  0.0000 -0.0000  0.0000
                                           -0.0000  0.0000 -0.0000 -0.0000  0.0000
    16. (1.99996) CR ( 4)Cl   3           s(  0.00%)p 1.00(100.00%)
                                           -0.0000  0.0000  0.0001 -0.0000 -0.0000
                                           -0.0000  0.0000  0.0002 -0.0000 -0.0000
                                            0.0000  1.0000 -0.0003  0.0000  0.0000
                                           -0.0000 -0.0000  0.0000  0.0000 -0.0000
                                            0.0000 -0.0000  0.0000  0.0000  0.0000
                                           -0.0000 -0.0000 -0.0000 -0.0000 -0.0000
                                           -0.0000  0.0000 -0.0000 -0.0000  0.0000
                                            0.0000 -0.0000  0.0000 -0.0000  0.0000
                                            0.0000 -0.0000 -0.0000 -0.0000 -0.0000
                                            0.0000 -0.0000  0.0000  0.0000 -0.0000
    17. (2.00003) CR ( 5)Cl   3           s(  0.00%)p 1.00(100.00%)
                                           -0.0000 -0.0000 -0.0000  0.0000  0.0000
                                           -0.0000 -0.0000  0.0000  0.0000 -0.0000
                                            0.0000 -0.0000  0.0000 -0.0000  0.0000
                                            0.0000  1.0000  0.0002  0.0000  0.0000
                                           -0.0000 -0.0000 -0.0000 -0.0000 -0.0000
                                           -0.0000 -0.0000  0.0000  0.0000  0.0000
                                            0.0000 -0.0000 -0.0000  0.0000  0.0000
                                            0.0000 -0.0000  0.0000  0.0000 -0.0000
                                           -0.0000  0.0000 -0.0000  0.0000 -0.0000
                                            0.0000 -0.0000  0.0000 -0.0000 -0.0000
    18. (1.96678) LP ( 1) O   1           s( 61.51%)p 0.62( 38.39%)d 0.00(  0.09%)
                                                  f 0.00(  0.00%)
                                            0.0002  0.7842  0.0118  0.0083 -0.0014
                                           -0.4640 -0.0070 -0.0044 -0.0011 -0.3668
                                           -0.0049 -0.0055 -0.0024 -0.1844 -0.0028
                                           -0.0017 -0.0004 -0.0254 -0.0019  0.0045
                                           -0.0089 -0.0003  0.0007 -0.0101 -0.0012
                                            0.0007 -0.0025  0.0007  0.0018  0.0086
                                            0.0006  0.0010  0.0021 -0.0002  0.0019
                                           -0.0003  0.0002  0.0006  0.0007 -0.0006
                                           -0.0010  0.0004  0.0049 -0.0025 -0.0002
                                            0.0007
    19. (1.95241) LP ( 2) O   1           s(  0.02%)p99.99( 99.79%)d11.02(  0.18%)
                                                  f 0.83(  0.01%)
                                           -0.0000  0.0122  0.0039  0.0021 -0.0003
                                           -0.2921 -0.0059 -0.0015 -0.0015 -0.0826
                                           -0.0016 -0.0004 -0.0011  0.9514  0.0182
                                            0.0060  0.0070 -0.0117 -0.0005  0.0021
                                            0.0129 -0.0047 -0.0096  0.0334  0.0038
                                           -0.0029 -0.0030  0.0018  0.0029  0.0157
                                           -0.0005 -0.0039 -0.0084  0.0007  0.0050
                                            0.0001  0.0007 -0.0002 -0.0046  0.0021
                                           -0.0032 -0.0001  0.0014 -0.0011  0.0016
                                           -0.0003
    20. (1.97870) LP ( 1)Br   2           s( 92.92%)p 0.08(  7.08%)d 0.00(  0.00%)
                                                  f 0.00(  0.00%)
                                            0.0002  0.9639 -0.0002  0.0007  0.0005
                                           -0.0001  0.0001  0.2617 -0.0014  0.0005
                                           -0.0001 -0.0000 -0.0067 -0.0001 -0.0001
                                           -0.0001 -0.0000 -0.0477  0.0002 -0.0000
                                            0.0000 -0.0000  0.0000 -0.0001  0.0001
                                            0.0000  0.0007  0.0001  0.0001  0.0000
                                           -0.0000  0.0000 -0.0000 -0.0000 -0.0002
                                           -0.0003 -0.0000  0.0000  0.0001  0.0001
                                            0.0001 -0.0000 -0.0001  0.0002  0.0001
                                            0.0000  0.0000  0.0000  0.0001  0.0000
                                            0.0000 -0.0002 -0.0002 -0.0000 -0.0000
    21. (1.95398) LP ( 2)Br   2           s(  0.00%)p 1.00( 99.99%)d 0.00(  0.01%)
                                                  f 0.00(  0.00%)
                                           -0.0000 -0.0009 -0.0010  0.0005  0.0017
                                            0.0002  0.0000  0.1731  0.0002 -0.0003
                                            0.0001 -0.0000 -0.2144 -0.0007 -0.0003
                                            0.0001  0.0002  0.9612  0.0026  0.0016
                                           -0.0007 -0.0000  0.0020 -0.0003 -0.0003
                                            0.0000 -0.0075  0.0012  0.0017  0.0000
                                           -0.0006  0.0003 -0.0002  0.0000 -0.0019
                                            0.0003  0.0006 -0.0000  0.0035 -0.0011
                                            0.0005 -0.0017 -0.0009 -0.0019 -0.0012
                                            0.0002  0.0001  0.0022  0.0011  0.0002
                                            0.0000  0.0006  0.0001 -0.0007 -0.0004
    22. (1.95373) LP ( 3)Br   2           s(  0.00%)p 1.00( 99.98%)d 0.00(  0.01%)
                                                  f 0.00(  0.00%)
                                           -0.0000  0.0071  0.0002  0.0001 -0.0003
                                           -0.0000  0.0000  0.0375 -0.0000  0.0000
                                           -0.0000  0.0002  0.9766  0.0029  0.0014
                                           -0.0006  0.0000  0.2111  0.0006  0.0004
                                           -0.0001  0.0000 -0.0092  0.0014  0.0018
                                            0.0000 -0.0017  0.0005  0.0002 -0.0000
                                            0.0022 -0.0008  0.0006 -0.0000  0.0005
                                           -0.0005  0.0008  0.0000  0.0009 -0.0003
                                            0.0002 -0.0004 -0.0003 -0.0004 -0.0002
                                           -0.0008 -0.0004  0.0006  0.0003 -0.0011
                                           -0.0007 -0.0000 -0.0000  0.0031  0.0016
    23. (1.85235) LP ( 4)Br   2           s(  7.07%)p13.13( 92.86%)d 0.01(  0.06%)
                                                  f 0.00(  0.01%)
                                           -0.0000  0.2659  0.0008 -0.0027 -0.0018
                                            0.0003  0.0000 -0.9484  0.0060  0.0034
                                           -0.0013  0.0000 -0.0024  0.0002  0.0003
                                            0.0001 -0.0000  0.1706  0.0005 -0.0006
                                            0.0005 -0.0000 -0.0000  0.0002 -0.0005
                                            0.0000 -0.0092  0.0024 -0.0007 -0.0000
                                           -0.0001  0.0000 -0.0000  0.0000  0.0182
                                           -0.0038 -0.0011  0.0000 -0.0104  0.0024
                                           -0.0001 -0.0020 -0.0010  0.0040  0.0023
                                           -0.0000 -0.0001  0.0026  0.0013  0.0000
                                            0.0000 -0.0054 -0.0025  0.0000  0.0002
    24. (1.97384) LP ( 1)Cl   3           s( 91.58%)p 0.09(  8.40%)d 0.00(  0.02%)
                                                  f 0.00(  0.00%)
                                            0.0000  0.0003  0.9570  0.0065  0.0011
                                            0.0003 -0.0000 -0.0362  0.0002  0.0006
                                            0.0002  0.0000  0.2871 -0.0065 -0.0030
                                            0.0013 -0.0000  0.0142  0.0004  0.0001
                                            0.0000  0.0055  0.0002  0.0004  0.0003
                                            0.0001 -0.0001  0.0003  0.0003  0.0002
                                            0.0108 -0.0007 -0.0003  0.0078  0.0006
                                            0.0004 -0.0002  0.0001  0.0004  0.0001
                                           -0.0021 -0.0004  0.0001 -0.0001 -0.0003
                                            0.0001  0.0018  0.0002 -0.0029  0.0002
    25. (1.95607) LP ( 2)Cl   3           s(  0.01%)p 1.00( 99.94%)d 0.00(  0.05%)
                                                  f 0.00(  0.01%)
                                            0.0000  0.0000  0.0073 -0.0024 -0.0011
                                            0.0007 -0.0000  0.2021  0.0027  0.0011
                                           -0.0001 -0.0000  0.0498  0.0007 -0.0001
                                            0.0002  0.0002 -0.9776 -0.0150 -0.0049
                                            0.0022  0.0018  0.0033  0.0015  0.0053
                                            0.0073  0.0028 -0.0064 -0.0160 -0.0079
                                           -0.0015 -0.0020 -0.0011 -0.0003 -0.0002
                                           -0.0001  0.0052 -0.0008 -0.0011  0.0006
                                            0.0002 -0.0002  0.0056 -0.0008  0.0036
                                           -0.0010 -0.0010 -0.0000 -0.0013  0.0004
    26. (1.95471) LP ( 3)Cl   3           s(  0.13%)p99.99( 99.82%)d 0.29(  0.04%)
                                                  f 0.06(  0.01%)
                                            0.0000 -0.0000  0.0357  0.0058  0.0038
                                           -0.0017  0.0002 -0.9499 -0.0124 -0.0014
                                            0.0000  0.0001 -0.2292 -0.0032 -0.0006
                                           -0.0008  0.0000 -0.2078 -0.0033 -0.0005
                                            0.0002  0.0044 -0.0111 -0.0056 -0.0003
                                            0.0009  0.0006  0.0009 -0.0026 -0.0015
                                            0.0064  0.0110  0.0061 -0.0009 -0.0028
                                           -0.0004  0.0015 -0.0003  0.0020 -0.0001
                                            0.0007  0.0002  0.0008  0.0002  0.0009
                                           -0.0002  0.0057 -0.0010  0.0064 -0.0010
    27. (0.01972) RY*( 1) O   1           s(  0.07%)p99.99( 98.59%)d17.74(  1.28%)
                                                  f 0.73(  0.05%)
                                           -0.0000 -0.0000  0.0267  0.0026  0.0003
                                            0.0064 -0.2848  0.0102  0.0064  0.0034
                                           -0.0800  0.0027 -0.0009 -0.0228  0.9467
                                           -0.0374 -0.0097 -0.0306 -0.0060  0.0007
                                            0.0338 -0.0072 -0.0154  0.0896  0.0255
                                            0.0061 -0.0055  0.0042  0.0044  0.0401
                                            0.0028 -0.0033 -0.0112  0.0098  0.0040
                                           -0.0042  0.0015 -0.0008 -0.0108  0.0091
                                           -0.0029  0.0034  0.0049 -0.0037  0.0022
                                           -0.0025
    28. (0.01614) RY*( 2) O   1           s( 29.83%)p 2.28( 67.91%)d 0.07(  2.04%)
                                                  f 0.01(  0.21%)
                                           -0.0000  0.0030  0.5448 -0.0379 -0.0072
                                            0.0094 -0.6033  0.0041  0.0474  0.0402
                                           -0.5025 -0.0039  0.0345  0.0042 -0.2392
                                            0.0044  0.0152 -0.1159 -0.0246 -0.0092
                                           -0.0190  0.0028  0.0069 -0.0507 -0.0104
                                           -0.0042  0.0308  0.0059 -0.0010  0.0466
                                            0.0046 -0.0022 -0.0035  0.0001  0.0027
                                           -0.0043 -0.0062  0.0012  0.0161 -0.0079
                                           -0.0039  0.0026  0.0357 -0.0169 -0.0102
                                            0.0035
    29. (0.00805) RY*( 3) O   1           s( 17.39%)p 0.59( 10.34%)d 4.08( 71.03%)
                                                  f 0.07(  1.24%)
                                           -0.0000  0.0162  0.4110 -0.0666  0.0161
                                            0.0145  0.2879 -0.0232  0.0690 -0.0156
                                           -0.0882  0.0019  0.0516  0.0008  0.0654
                                           -0.0056  0.0051  0.6218  0.0058  0.0063
                                           -0.0318  0.0039 -0.0026  0.1133  0.0063
                                            0.0052 -0.5022 -0.0127 -0.0371  0.2364
                                           -0.0074  0.0073 -0.0066  0.0031  0.0084
                                           -0.0091 -0.0170  0.0109 -0.0164  0.0067
                                            0.0177 -0.0087 -0.0929  0.0384 -0.0279
                                            0.0137
    30. (0.00707) RY*( 4) O   1           s(  0.21%)p 1.62(  0.33%)d99.99( 97.73%)
                                                  f 8.40(  1.73%)
                                            0.0000  0.0027  0.0450 -0.0050 -0.0011
                                            0.0038  0.0090  0.0034  0.0012 -0.0012
                                           -0.0002  0.0028  0.0041 -0.0176 -0.0528
                                           -0.0101 -0.0024 -0.0282  0.0061 -0.0001
                                           -0.5214  0.0263 -0.0096  0.8113 -0.0341
                                            0.0130  0.1439 -0.0108  0.0008 -0.1531
                                            0.0069 -0.0064 -0.0461  0.0200 -0.0260
                                            0.0123  0.0018 -0.0007 -0.1020  0.0452
[...]
                                            0.0231  0.1040 -0.2528  0.1747  0.1156
                                            0.1860  0.0791  0.1119  0.0181 -0.1294
                                            0.0346  0.1724 -0.0406
   158. (0.00034) RY*( 8) H   4           s( 13.15%)p 4.76( 62.61%)d 1.84( 24.25%)
                                            0.0003 -0.0114  0.3604  0.0383 -0.0446
                                           -0.0385 -0.3076 -0.0607  0.5331 -0.1778
                                           -0.0643  0.3973 -0.2157  0.2905 -0.1265
                                            0.2128  0.0378 -0.0884 -0.0276 -0.1982
                                            0.1690  0.0764 -0.1146
   159. (0.00030) RY*( 9) H   4           s( 10.98%)p 6.34( 69.59%)d 1.77( 19.43%)
                                           -0.0025 -0.0326  0.3179  0.0877 -0.0629
                                            0.1099  0.0844 -0.0480  0.2049 -0.1138
                                            0.1026 -0.7729 -0.0866  0.1498 -0.0295
                                           -0.1164  0.2087  0.0550 -0.0530 -0.2835
                                           -0.0489  0.1176  0.1069
   160. (0.00025) RY*(10) H   4           s(  3.26%)p10.97( 35.73%)d18.74( 61.02%)
                                            0.0150  0.0570 -0.0376  0.1663  0.0483
                                            0.2511  0.4542 -0.0723 -0.0256 -0.0442
                                           -0.0375  0.2498  0.1179  0.1076 -0.0256
                                           -0.0112 -0.0866 -0.0069 -0.0011 -0.6114
                                           -0.1131 -0.4351  0.1200
   161. (0.00026) RY*(11) H   4           s(  5.81%)p 1.58(  9.17%)d14.63( 85.02%)
                                            0.0058  0.0043  0.1931  0.1440 -0.0068
                                            0.1424  0.0246  0.0821  0.1275  0.1265
                                           -0.0101  0.1770 -0.0186 -0.5039 -0.0458
                                           -0.1603  0.0210  0.7035 -0.1016 -0.1131
                                            0.0430  0.1988 -0.0929
   162. (0.00021) RY*(12) H   4           s(  1.78%)p15.14( 26.99%)d39.96( 71.23%)
                                            0.0150  0.0182  0.0187  0.1301  0.0033
                                            0.3136  0.3361  0.0402  0.0537  0.1192
                                            0.0460  0.1806 -0.0714 -0.0738  0.0225
                                           -0.1198 -0.0499 -0.4407  0.0771 -0.0050
                                           -0.1286  0.6873  0.0173
   163. (0.00017) RY*(13) H   4           s(  8.20%)p 1.18(  9.64%)d10.01( 82.16%)
                                           -0.0034 -0.0291  0.2751  0.0740 -0.0239
                                           -0.0893 -0.2023  0.0462 -0.0855  0.1752
                                           -0.0007 -0.0740 -0.0363 -0.6350 -0.0470
                                            0.0177  0.1055 -0.5017  0.0871 -0.2263
                                            0.1322 -0.2530 -0.1131
   164. (0.00014) RY*(14) H   4           s( 37.15%)p 0.66( 24.61%)d 1.03( 38.25%)
                                           -0.0051 -0.0239  0.1197  0.5971  0.0118
                                           -0.1439  0.0308  0.0103  0.0969 -0.1531
                                           -0.0296 -0.1509  0.4095 -0.0482  0.1571
                                            0.3318 -0.4612 -0.0048  0.0328  0.1343
                                           -0.0099  0.0467 -0.1062
   165. (0.00011) RY*(15) H   4           s( 30.16%)p 0.69( 20.89%)d 1.62( 48.95%)
                                           -0.0004 -0.0102  0.0758  0.5438 -0.0248
                                           -0.1093  0.1704  0.0098  0.1038  0.0018
                                           -0.0168  0.1243 -0.3750  0.0172  0.0451
                                           -0.2126  0.3306 -0.0372 -0.0145  0.4272
                                           -0.1633 -0.2849  0.2018
   166. (0.00010) RY*(16) H   4           s(  3.63%)p 9.55( 34.64%)d17.03( 61.74%)
   167. (0.00006) RY*(17) H   4           s(  0.03%)p33.15(  0.87%)d99.99( 99.10%)
   168. (0.00007) RY*(18) H   4           s( 32.51%)p 0.99( 32.05%)d 1.09( 35.45%)
   169. (0.00005) RY*(19) H   4           s(  5.13%)p 3.39( 17.42%)d15.08( 77.45%)
   170. (0.00005) RY*(20) H   4           s(  7.23%)p 3.83( 27.70%)d 9.01( 65.07%)
   171. (0.00005) RY*(21) H   4           s(  4.25%)p 2.17(  9.23%)d20.37( 86.52%)
   172. (0.00004) RY*(22) H   4           s(  4.32%)p10.47( 45.24%)d11.67( 50.44%)
   173. (0.05833) BD*( 1) O   1 -Cl   3  
                ( 41.09%)   0.6410* O   1 s( 10.45%)p 8.52( 89.01%)d 0.05(  0.52%)
                                                  f 0.00(  0.02%)
                                           -0.0003 -0.3202  0.0419  0.0145  0.0009
                                            0.1957 -0.0339 -0.0072 -0.0024 -0.9217
                                            0.0236  0.0089  0.0106 -0.0161 -0.0080
                                           -0.0014  0.0003  0.0060  0.0007  0.0031
                                           -0.0039 -0.0003  0.0008 -0.0088 -0.0012
                                            0.0004  0.0575  0.0046  0.0009  0.0412
                                            0.0034 -0.0004  0.0000  0.0000 -0.0027
                                            0.0003  0.0104 -0.0009  0.0016 -0.0010
                                           -0.0027  0.0006 -0.0037 -0.0019  0.0051
                                           -0.0006
                ( 58.91%)  -0.7675*Cl   3 s(  8.55%)p10.54( 90.18%)d 0.14(  1.16%)
                                                  f 0.01(  0.11%)
                                            0.0000 -0.0005 -0.2869  0.0559  0.0101
                                            0.0025 -0.0001 -0.2307  0.0135  0.0056
                                           -0.0018  0.0004  0.9187 -0.0642 -0.0129
                                            0.0040 -0.0000 -0.0033 -0.0000  0.0011
                                           -0.0004  0.0513 -0.0049  0.0004 -0.0038
                                            0.0000  0.0006  0.0049  0.0006  0.0004
                                            0.0748 -0.0095 -0.0007  0.0563 -0.0060
                                           -0.0008  0.0004 -0.0000  0.0053 -0.0009
                                           -0.0203  0.0029 -0.0000  0.0003  0.0009
                                           -0.0005  0.0177 -0.0021 -0.0188  0.0021
   174. (0.11858) BD*( 1) O   1 - H   4  
                ( 20.31%)   0.4506* O   1 s( 28.16%)p 2.53( 71.34%)d 0.02(  0.49%)
                                                  f 0.00(  0.01%)
                                           -0.0003 -0.5305  0.0065  0.0084 -0.0022
                                           -0.8093  0.0090  0.0070  0.0047  0.0146
                                           -0.0155 -0.0015 -0.0022 -0.2406  0.0006
                                            0.0022  0.0022 -0.0255 -0.0047 -0.0010
                                           -0.0329 -0.0022  0.0010 -0.0083 -0.0015
                                           -0.0001 -0.0476 -0.0037 -0.0016  0.0277
                                            0.0010 -0.0026  0.0056 -0.0000  0.0064
                                           -0.0000  0.0000 -0.0004 -0.0035 -0.0012
                                           -0.0003  0.0006 -0.0004 -0.0028  0.0018
                                            0.0004
                ( 79.69%)  -0.8927* H   4 s( 99.81%)p 0.00(  0.18%)d 0.00(  0.00%)
                                           -0.9982 -0.0427 -0.0029  0.0019 -0.0126
                                            0.0324  0.0100 -0.0140 -0.0016  0.0040
                                           -0.0146  0.0099  0.0007 -0.0011 -0.0019
                                            0.0009  0.0006 -0.0009 -0.0006 -0.0023
                                            0.0005  0.0014  0.0026


 NHO Directionality and "Bond Bending" (deviations from line of nuclear centers)

         [Thresholds for printing:  angular deviation  >  1.0 degree]
                                    hybrid p-character > 25.0%
                                    orbital occupancy  >  0.10e

                                Line of Centers        Hybrid 1              Hybrid 2
                                ---------------  -------------------   ------------------
                NBO               Theta   Phi    Theta   Phi    Dev    Theta   Phi    Dev
 ========================================================================================
     1. BD (   1) O   1 -Cl   3    90.0  103.5    88.4   99.8   4.0      --     --    --
     2. BD (   1) O   1 - H   4    75.0    0.0    73.4    0.3   1.7      --     --    --
    18. LP (   1) O   1             --     --    107.3  218.5   --       --     --    --
    19. LP (   2) O   1             --     --     17.7  195.9   --       --     --    --
    21. LP (   2)Br   2             --     --     16.0  308.8   --       --     --    --
    22. LP (   3)Br   2             --     --     77.8   87.8   --       --     --    --
    23. LP (   4)Br   2             --     --     79.7  180.1   --       --     --    --
    25. LP (   2)Cl   3             --     --    168.0   13.8   --       --     --    --
    26. LP (   3)Cl   3             --     --    102.0  193.6   --       --     --    --
   174. BD*(   1) O   1 - H   4    75.0    0.0    73.4    0.3   1.7      --     --    --


 Natural Bond Orbitals (Summary):

           NBO                  Occupancy  
 -----------------------------------------------
 Molecular unit  1  (HOCl)
     1. BD (   1) O   1 -Cl   3          1.93942
     2. BD (   1) O   1 - H   4          1.96418
     3. CR (   1) O   1                  1.99970
    13. CR (   1)Cl   3                  2.00000
    14. CR (   2)Cl   3                  1.99979
    15. CR (   3)Cl   3                  2.00003
    16. CR (   4)Cl   3                  1.99996
    17. CR (   5)Cl   3                  2.00003
    18. LP (   1) O   1                  1.96678
    19. LP (   2) O   1                  1.95241
    24. LP (   1)Cl   3                  1.97384
    25. LP (   2)Cl   3                  1.95607
    26. LP (   3)Cl   3                  1.95471
    27. RY*(   1) O   1                  0.01972
    28. RY*(   2) O   1                  0.01614
    29. RY*(   3) O   1                  0.00805
    30. RY*(   4) O   1                  0.00707
    31. RY*(   5) O   1                  0.00638
    32. RY*(   6) O   1                  0.00615
    33. RY*(   7) O   1                  0.00574
    34. RY*(   8) O   1                  0.00336
    35. RY*(   9) O   1                  0.00249
    36. RY*(  10) O   1                  0.00081
    37. RY*(  11) O   1                  0.00065
    38. RY*(  12) O   1                  0.00061
    39. RY*(  13) O   1                  0.00060
    40. RY*(  14) O   1                  0.00051
    41. RY*(  15) O   1                  0.00050
    42. RY*(  16) O   1                  0.00048
    43. RY*(  17) O   1                  0.00048
    44. RY*(  18) O   1                  0.00048
    45. RY*(  19) O   1                  0.00045
    46. RY*(  20) O   1                  0.00045
    47. RY*(  21) O   1                  0.00045
    48. RY*(  22) O   1                  0.00042
    49. RY*(  23) O   1                  0.00035
    50. RY*(  24) O   1                  0.00030
    51. RY*(  25) O   1                  0.00025
    52. RY*(  26) O   1                  0.00021
    53. RY*(  27) O   1                  0.00014
    54. RY*(  28) O   1                  0.00013
    55. RY*(  29) O   1                  0.00013
    56. RY*(  30) O   1                  0.00009
    57. RY*(  31) O   1                  0.00009
    58. RY*(  32) O   1                  0.00008
    59. RY*(  33) O   1                  0.00008
    60. RY*(  34) O   1                  0.00008
    61. RY*(  35) O   1                  0.00006
    62. RY*(  36) O   1                  0.00006
    63. RY*(  37) O   1                  0.00007
    64. RY*(  38) O   1                  0.00006
    65. RY*(  39) O   1                  0.00004
    66. RY*(  40) O   1                  0.00003
    67. RY*(  41) O   1                  0.00001
   110. RY*(   1)Cl   3                  0.02263
   111. RY*(   2)Cl   3                  0.01753
   112. RY*(   3)Cl   3                  0.01680
   113. RY*(   4)Cl   3                  0.01661
   114. RY*(   5)Cl   3                  0.01166
   115. RY*(   6)Cl   3                  0.00926
   116. RY*(   7)Cl   3                  0.00907
   117. RY*(   8)Cl   3                  0.00630
   118. RY*(   9)Cl   3                  0.00168
   119. RY*(  10)Cl   3                  0.00127
   120. RY*(  11)Cl   3                  0.00127
   121. RY*(  12)Cl   3                  0.00119
   122. RY*(  13)Cl   3                  0.00120
   123. RY*(  14)Cl   3                  0.00116
   124. RY*(  15)Cl   3                  0.00111
   125. RY*(  16)Cl   3                  0.00094
   126. RY*(  17)Cl   3                  0.00077
   127. RY*(  18)Cl   3                  0.00076
   128. RY*(  19)Cl   3                  0.00064
   129. RY*(  20)Cl   3                  0.00056
   130. RY*(  21)Cl   3                  0.00044
   131. RY*(  22)Cl   3                  0.00037
   132. RY*(  23)Cl   3                  0.00034
   133. RY*(  24)Cl   3                  0.00031
   134. RY*(  25)Cl   3                  0.00019
   135. RY*(  26)Cl   3                  0.00016
   136. RY*(  27)Cl   3                  0.00015
   137. RY*(  28)Cl   3                  0.00013
   138. RY*(  29)Cl   3                  0.00013
   139. RY*(  30)Cl   3                  0.00011
   140. RY*(  31)Cl   3                  0.00011
   141. RY*(  32)Cl   3                  0.00012
   142. RY*(  33)Cl   3                  0.00009
   143. RY*(  34)Cl   3                  0.00009
   144. RY*(  35)Cl   3                  0.00009
   145. RY*(  36)Cl   3                  0.00010
   146. RY*(  37)Cl   3                  0.00007
   147. RY*(  38)Cl   3                  0.00004
   148. RY*(  39)Cl   3                  0.00004
   149. RY*(  40)Cl   3                  0.00003
   150. RY*(  41)Cl   3                  0.00000
   151. RY*(   1) H   4                  0.01043
   152. RY*(   2) H   4                  0.00545
   153. RY*(   3) H   4                  0.00477
   154. RY*(   4) H   4                  0.00361
   155. RY*(   5) H   4                  0.00065
   156. RY*(   6) H   4                  0.00050
   157. RY*(   7) H   4                  0.00046
   158. RY*(   8) H   4                  0.00034
   159. RY*(   9) H   4                  0.00030
   160. RY*(  10) H   4                  0.00025
   161. RY*(  11) H   4                  0.00026
   162. RY*(  12) H   4                  0.00021
   163. RY*(  13) H   4                  0.00017
   164. RY*(  14) H   4                  0.00014
   165. RY*(  15) H   4                  0.00011
   166. RY*(  16) H   4                  0.00010
   167. RY*(  17) H   4                  0.00006
   168. RY*(  18) H   4                  0.00007
   169. RY*(  19) H   4                  0.00005
   170. RY*(  20) H   4                  0.00005
   171. RY*(  21) H   4                  0.00005
   172. RY*(  22) H   4                  0.00004
   173. BD*(   1) O   1 -Cl   3          0.05833
   174. BD*(   1) O   1 - H   4          0.11858
       -------------------------------
              Total Lewis   25.70691  ( 98.4123%)
        Valence non-Lewis    0.17691  (  0.6773%)
        Rydberg non-Lewis    0.23781  (  0.9104%)
       -------------------------------
            Total unit  1   26.12163  (100.0000%)
           Charge unit  1   -0.12163

 Molecular unit  2  (Br)
     4. CR (   1)Br   2                  1.99987
     5. CR (   2)Br   2                  1.99993
     6. CR (   3)Br   2                  2.00001
     7. CR (   4)Br   2                  2.00001
     8. CR (   5)Br   2                  1.99768
     9. CR (   6)Br   2                  1.99768
    10. CR (   7)Br   2                  1.99771
    11. CR (   8)Br   2                  1.99764
    12. CR (   9)Br   2                  1.99768
    20. LP (   1)Br   2                  1.97870
    21. LP (   2)Br   2                  1.95398
    22. LP (   3)Br   2                  1.95373
    23. LP (   4)Br   2                  1.85235
    68. RY*(   1)Br   2                  0.01861
    69. RY*(   2)Br   2                  0.01854
    70. RY*(   3)Br   2                  0.01846
    71. RY*(   4)Br   2                  0.01845
    72. RY*(   5)Br   2                  0.01769
    73. RY*(   6)Br   2                  0.01141
    74. RY*(   7)Br   2                  0.01134
    75. RY*(   8)Br   2                  0.00935
    76. RY*(   9)Br   2                  0.00235
    77. RY*(  10)Br   2                  0.00178
    78. RY*(  11)Br   2                  0.00177
    79. RY*(  12)Br   2                  0.00173
    80. RY*(  13)Br   2                  0.00173
    81. RY*(  14)Br   2                  0.00173
    82. RY*(  15)Br   2                  0.00173
    83. RY*(  16)Br   2                  0.00173
    84. RY*(  17)Br   2                  0.00173
    85. RY*(  18)Br   2                  0.00173
    86. RY*(  19)Br   2                  0.00138
    87. RY*(  20)Br   2                  0.00136
    88. RY*(  21)Br   2                  0.00120
    89. RY*(  22)Br   2                  0.00077
    90. RY*(  23)Br   2                  0.00077
    91. RY*(  24)Br   2                  0.00071
    92. RY*(  25)Br   2                  0.00038
    93. RY*(  26)Br   2                  0.00029
    94. RY*(  27)Br   2                  0.00025
    95. RY*(  28)Br   2                  0.00025
    96. RY*(  29)Br   2                  0.00025
    97. RY*(  30)Br   2                  0.00025
    98. RY*(  31)Br   2                  0.00025
    99. RY*(  32)Br   2                  0.00024
   100. RY*(  33)Br   2                  0.00021
   101. RY*(  34)Br   2                  0.00021
   102. RY*(  35)Br   2                  0.00017
   103. RY*(  36)Br   2                  0.00014
   104. RY*(  37)Br   2                  0.00012
   105. RY*(  38)Br   2                  0.00012
   106. RY*(  39)Br   2                  0.00008
   107. RY*(  40)Br   2                  0.00008
   108. RY*(  41)Br   2                  0.00006
   109. RY*(  42)Br   2                  0.00000
       -------------------------------
              Total Lewis   35.72697  ( 99.5780%)
        Valence non-Lewis    0.00000  (  0.0000%)
        Rydberg non-Lewis    0.15139  (  0.4220%)
       -------------------------------
            Total unit  2   35.87837  (100.0000%)
           Charge unit  2   -0.87837
 Leave Link  607 at Thu Sep 30 14:39:47 2021, MaxMem= 16106127360 cpu:              78.2 elap:               2.8
 (Enter /sw/contrib/gaussian/g16/B01/g16/l9999.exe)
 1\1\GINC-N2174\SP\RMP2-FC\Gen\Br1Cl1H1O1(1-)\CGAVINH\30-Sep-2021\0\\#p
  pop=NBO SP NoSymm mp2/gen Pseudo=read density=current\\title\\-1,1\O,
 0,0.,0.,0.\Br,0,3.06793175,0.,0.\Cl,0,-0.391809624,1.638263908,0.\H,0,
 0.97633851,0.,0.26160911\\Version=ES64L-G16RevB.01\HF=-950.5209316\MP2
 =-951.2235\RMSD=7.522e-09\Dipole=-1.5751012,0.7798938,0.07828\Quadrupo
 le=-18.1357572,8.971888,9.1638693,0.3282793,0.0341626,-0.0604839\PG=C0
 1 [X(Br1Cl1H1O1)]\\@


 HE THAT FOLLOWS NATURE IS NEVER LOST.

                             -- BACON
 Job cpu time:       0 days  0 hours  6 minutes  2.8 seconds.
 Elapsed time:       0 days  0 hours  0 minutes 19.2 seconds.
 File lengths (MBytes):  RWF=     15 Int=      0 D2E=      0 Chk=      8 Scr=      1
 Normal termination of Gaussian 16 at Thu Sep 30 14:39:47 2021.
