title                                                                   
SP        RMP2-FC                                                     Gen                 
Number of atoms                            I                4
Info1-9                                    I   N=           9
         136         123           0           0           0         110
           1           2           1
Full Title                                 C   N=           1
title       
Route                                      C   N=           5
#p pop=NBO SP NoSymm mp2/gen Pseudo=read density=current    
Charge                                     I               -1
Multiplicity                               I                1
Number of electrons                        I               52
Number of alpha electrons                  I               26
Number of beta electrons                   I               26
Number of basis functions                  I              174
Number of independent functions            I              174
Number of point charges in /Mol/           I                0
Number of translation vectors              I                0
Atomic numbers                             I   N=           4
           8          35          17           1
Nuclear charges                            R   N=           4
  8.00000000E+00  2.50000000E+01  1.70000000E+01  1.00000000E+00
Current cartesian coordinates              R   N=          12
  0.00000000E+00  0.00000000E+00  0.00000000E+00  5.79755078E+00  0.00000000E+00
  0.00000000E+00 -7.40412882E-01  3.09587011E+00  0.00000000E+00  1.84501239E+00
  0.00000000E+00  4.94369570E-01
Number of symbols in /Mol/                 I                0
Force Field                                I                0
Atom Types                                 C   N=           4
                                                
Int Atom Types                             I   N=           4
           0           0           0           0
MM charges                                 R   N=           4
  0.00000000E+00  0.00000000E+00  0.00000000E+00  0.00000000E+00
Integer atomic weights                     I   N=           4
          16          79          35           1
Real atomic weights                        R   N=           4
  1.59949146E+01  7.89183361E+01  3.49688527E+01  1.00782504E+00
Atom fragment info                         I   N=           4
           0           0           0           0
Atom residue num                           I   N=           4
           0           0           0           0
Nuclear spins                              I   N=           4
           0           3           3           1
Nuclear ZEff                               R   N=           4
 -5.60000000E+00 -1.43500000E+03 -1.42400000E+01 -1.00000000E+00
Nuclear ZNuc                               R   N=           4
  8.00000000E+00  3.50000000E+01  1.70000000E+01  1.00000000E+00
Nuclear QMom                               R   N=           4
  0.00000000E+00  3.13000000E+01 -8.16500000E+00  0.00000000E+00
Nuclear GFac                               R   N=           4
  0.00000000E+00  2.10639900E+00  8.21874000E-01  2.79284600E+00
MicOpt                                     I   N=           4
          -1          -1          -1          -1
Number of residues                         I                0
Number of secondary structures             I                0
Number of contracted shells                I               56
Number of primitive shells                 I              138
Pure/Cartesian d shells                    I                0
Pure/Cartesian f shells                    I                0
Highest angular momentum                   I                3
Largest degree of contraction              I               11
Shell types                                I   N=          56
           0           0           0           0           0           1
           1           1           1          -2          -2          -2
          -3          -3           0           0           0           0
           0           0           1           1           1           1
           1          -2          -2          -2          -2          -3
          -3           0           0           0           0           0
           0           1           1           1           1           1
          -2          -2          -2          -3          -3           0
           0           0           0           1           1           1
          -2          -2
Number of primitives per shell             I   N=          56
           7           6           1           1           1           3
           1           1           1           1           1           1
           1           1           7           6           1           1
           1           1           8           8           1           1
           1           8           1           1           1           1
           1          11           9           8           1           1
           1           6           6           1           1           1
           1           1           1           1           1           3
           1           1           1           1           1           1
           1           1
Shell to atom map                          I   N=          56
           1           1           1           1           1           1
           1           1           1           1           1           1
           1           1           2           2           2           2
           2           2           2           2           2           2
           2           2           2           2           2           2
           2           3           3           3           3           3
           3           3           3           3           3           3
           3           3           3           3           3           4
           4           4           4           4           4           4
           4           4
Primitive exponents                        R   N=         138
  1.53300000E+04  2.29900000E+03  5.22400000E+02  1.47300000E+02  4.75500000E+01
  1.67600000E+01  6.20700000E+00  5.22400000E+02  1.47300000E+02  4.75500000E+01
  1.67600000E+01  6.20700000E+00  6.88200000E-01  1.75200000E+00  2.38400000E-01
  7.37600000E-02  3.44600000E+01  7.74900000E+00  2.28000000E+00  7.15600000E-01
  2.14000000E-01  5.97400000E-02  2.31400000E+00  6.45000000E-01  2.14000000E-01
  1.42800000E+00  5.00000000E-01  9.65939000E+03  1.45596000E+03  3.25914000E+02
  4.65657000E+01  1.82469000E+01  3.80201000E+00  1.78632000E+00  9.65939000E+03
  3.25914000E+02  4.65657000E+01  1.82469000E+01  3.80201000E+00  1.78632000E+00
  6.02714000E-01  2.84014000E-01  1.20271000E-01  4.45000000E-02  4.92187000E+02
  9.23642000E+01  2.70718000E+01  7.26539000E+00  3.48481000E+00  1.64048000E+00
  6.48570000E-01  9.53040000E-02  4.92187000E+02  2.70718000E+01  7.26539000E+00
  3.48481000E+00  1.64048000E+00  6.48570000E-01  2.56407000E-01  9.53040000E-02
  7.66600000E-01  1.18200000E-01  3.96000000E-02  3.38996000E+02  1.03217000E+02
  4.23638000E+01  1.84356000E+01  8.37254000E+00  3.80222000E+00  1.68677000E+00
  6.77520000E-01  6.77520000E-01  2.55300000E-01  1.00900000E-01  5.60600000E-01
  2.45400000E-01  4.56100000E+05  6.83300000E+04  1.55500000E+04  4.40500000E+03
  1.43900000E+03  5.20400000E+02  2.03100000E+02  8.39600000E+01  3.62000000E+01
  1.58300000E+01  6.33400000E+00  4.40500000E+03  1.43900000E+03  5.20400000E+02
  2.03100000E+02  8.39600000E+01  3.62000000E+01  1.58300000E+01  6.33400000E+00
  2.69400000E+00  1.43900000E+03  2.03100000E+02  8.39600000E+01  3.62000000E+01
  1.58300000E+01  6.33400000E+00  2.69400000E+00  4.31300000E-01  9.76800000E-01
  1.62500000E-01  5.91000000E-02  6.63300000E+02  1.56800000E+02  4.99800000E+01
  1.84200000E+01  7.24000000E+00  2.92200000E+00  1.56800000E+02  4.99800000E+01
  1.84200000E+01  7.24000000E+00  2.92200000E+00  3.81800000E-01  1.02200000E+00
  1.30100000E-01  4.19000000E-02  1.04600000E+00  3.44000000E-01  1.35000000E-01
  7.06000000E-01  3.12000000E-01  3.38700000E+01  5.09500000E+00  1.15900000E+00
  3.25800000E-01  1.02700000E-01  2.52600000E-02  1.40700000E+00  3.88000000E-01
  1.02000000E-01  1.05700000E+00  2.47000000E-01
Contraction coefficients                   R   N=         138
  5.19808943E-04  4.02025621E-03  2.07128267E-02  8.10105536E-02  2.35962985E-01
  4.42653446E-01  3.57064423E-01 -4.42115008E-05 -1.22591041E-03 -1.05517725E-02
 -6.74452633E-02 -1.71198607E-01  1.07329856E+00  1.00000000E+00  1.00000000E+00
  1.00000000E+00  4.11634896E-02  2.57762836E-01  8.02419274E-01  1.00000000E+00
  1.00000000E+00  1.00000000E+00  1.00000000E+00  1.00000000E+00  1.00000000E+00
  1.00000000E+00  1.00000000E+00  3.80701661E-04  2.63868635E-03  8.70555302E-03
  8.03093709E-02 -4.07648708E-01  7.03092632E-01  4.97431509E-01 -2.19689157E-05
 -9.47832571E-04  9.38727693E-03 -1.47428152E-02 -2.77285578E-01 -7.38047787E-01
  1.00000000E+00  1.00000000E+00  1.00000000E+00  1.00000000E+00  4.71881392E-04
  5.49299123E-03 -8.80115226E-02  3.43400525E-01  5.10073044E-01  2.48575707E-01
  2.24628895E-02  8.56099489E-04 -4.13161033E-05  2.99292350E-03 -2.76886294E-02
 -5.33882855E-02 -1.24705505E-02  3.44020817E-01  5.41867327E-01  2.58979876E-01
  1.00000000E+00  1.00000000E+00  1.00000000E+00  1.52399887E-03  1.56729884E-02
  7.23999463E-02  1.86302862E-01  3.23880760E-01  3.74533722E-01  2.57417809E-01
  6.80509495E-02  1.00000000E+00  1.00000000E+00  1.00000000E+00  1.00000000E+00
  1.00000000E+00  4.93229477E-05  3.83207967E-04  2.00947816E-03  8.38950124E-03
  2.94843950E-02  8.78759948E-02  2.11589759E-01  3.65611554E-01  3.41246350E-01
  1.02162570E-01  2.14249949E-03 -2.21747925E-06 -1.71189708E-04 -1.27922846E-03
 -9.32956265E-03 -3.98910062E-02 -1.05536085E-01  9.36202446E-03  5.10511140E-01
  5.73150737E-01  4.03949245E-06  2.12481765E-04  8.59484452E-04  4.63248159E-03
  4.47343490E-04 -7.38438245E-02 -3.62271994E-01  1.16620337E+00  1.00000000E+00
  1.00000000E+00  1.00000000E+00  2.47206402E-03  1.97550234E-02  9.09917355E-02
  2.63187834E-01  4.49078073E-01  3.60183072E-01  3.03427809E-05 -1.22475826E-03
 -6.01429772E-03 -2.76401323E-02  4.35105612E-04  1.00307272E+00  1.00000000E+00
  1.00000000E+00  1.00000000E+00  1.00000000E+00  1.00000000E+00  1.00000000E+00
  1.00000000E+00  1.00000000E+00  2.54948632E-02  1.90362766E-01  8.52162022E-01
  1.00000000E+00  1.00000000E+00  1.00000000E+00  1.00000000E+00  1.00000000E+00
  1.00000000E+00  1.00000000E+00  1.00000000E+00
Coordinates of each shell                  R   N=         168
  0.00000000E+00  0.00000000E+00  0.00000000E+00  0.00000000E+00  0.00000000E+00
  0.00000000E+00  0.00000000E+00  0.00000000E+00  0.00000000E+00  0.00000000E+00
  0.00000000E+00  0.00000000E+00  0.00000000E+00  0.00000000E+00  0.00000000E+00
  0.00000000E+00  0.00000000E+00  0.00000000E+00  0.00000000E+00  0.00000000E+00
  0.00000000E+00  0.00000000E+00  0.00000000E+00  0.00000000E+00  0.00000000E+00
  0.00000000E+00  0.00000000E+00  0.00000000E+00  0.00000000E+00  0.00000000E+00
  0.00000000E+00  0.00000000E+00  0.00000000E+00  0.00000000E+00  0.00000000E+00
  0.00000000E+00  0.00000000E+00  0.00000000E+00  0.00000000E+00  0.00000000E+00
  0.00000000E+00  0.00000000E+00  5.79755078E+00  0.00000000E+00  0.00000000E+00
  5.79755078E+00  0.00000000E+00  0.00000000E+00  5.79755078E+00  0.00000000E+00
  0.00000000E+00  5.79755078E+00  0.00000000E+00  0.00000000E+00  5.79755078E+00
  0.00000000E+00  0.00000000E+00  5.79755078E+00  0.00000000E+00  0.00000000E+00
  5.79755078E+00  0.00000000E+00  0.00000000E+00  5.79755078E+00  0.00000000E+00
  0.00000000E+00  5.79755078E+00  0.00000000E+00  0.00000000E+00  5.79755078E+00
  0.00000000E+00  0.00000000E+00  5.79755078E+00  0.00000000E+00  0.00000000E+00
  5.79755078E+00  0.00000000E+00  0.00000000E+00  5.79755078E+00  0.00000000E+00
  0.00000000E+00  5.79755078E+00  0.00000000E+00  0.00000000E+00  5.79755078E+00
  0.00000000E+00  0.00000000E+00  5.79755078E+00  0.00000000E+00  0.00000000E+00
  5.79755078E+00  0.00000000E+00  0.00000000E+00 -7.40412882E-01  3.09587011E+00
  0.00000000E+00 -7.40412882E-01  3.09587011E+00  0.00000000E+00 -7.40412882E-01
  3.09587011E+00  0.00000000E+00 -7.40412882E-01  3.09587011E+00  0.00000000E+00
 -7.40412882E-01  3.09587011E+00  0.00000000E+00 -7.40412882E-01  3.09587011E+00
  0.00000000E+00 -7.40412882E-01  3.09587011E+00  0.00000000E+00 -7.40412882E-01
  3.09587011E+00  0.00000000E+00 -7.40412882E-01  3.09587011E+00  0.00000000E+00
 -7.40412882E-01  3.09587011E+00  0.00000000E+00 -7.40412882E-01  3.09587011E+00
  0.00000000E+00 -7.40412882E-01  3.09587011E+00  0.00000000E+00 -7.40412882E-01
  3.09587011E+00  0.00000000E+00 -7.40412882E-01  3.09587011E+00  0.00000000E+00
 -7.40412882E-01  3.09587011E+00  0.00000000E+00 -7.40412882E-01  3.09587011E+00
  0.00000000E+00  1.84501239E+00  0.00000000E+00  4.94369570E-01  1.84501239E+00
  0.00000000E+00  4.94369570E-01  1.84501239E+00  0.00000000E+00  4.94369570E-01
  1.84501239E+00  0.00000000E+00  4.94369570E-01  1.84501239E+00  0.00000000E+00
  4.94369570E-01  1.84501239E+00  0.00000000E+00  4.94369570E-01  1.84501239E+00
  0.00000000E+00  4.94369570E-01  1.84501239E+00  0.00000000E+00  4.94369570E-01
  1.84501239E+00  0.00000000E+00  4.94369570E-01
Num ILSW                                   I              100
ILSW                                       I   N=         100
           0           0           0           0           2           0
           0           0           0           0           0          -1
           5           0           0           0           0           0
           0           0           0           0           0           0
           1           1           0           0           0           0
           0           0      100000           0          -1           0
           0           0           0           0           0           0
           0           0           0           1           0           0
           0 -2000000000           1           0           0           0
           0           0           4          52           0           0
           0           0           0           0           0           0
           0           0           0           4           0           1
           0           0           0           0           0           0
           0           0           0           0           0           0
           0           0           0           0           0           0
           0           0           0           0           0           0
           0           0           0           0
Num RLSW                                   I               52
RLSW                                       R   N=          52
  1.00000000E+00  1.00000000E+00  1.00000000E+00  1.00000000E+00  1.00000000E+00
  0.00000000E+00  0.00000000E+00  1.00000000E+00  0.00000000E+00  0.00000000E+00
  0.00000000E+00  0.00000000E+00  1.00000000E+00  0.00000000E+00  0.00000000E+00
  0.00000000E+00  0.00000000E+00  1.00000000E+00  0.00000000E+00  0.00000000E+00
  0.00000000E+00  0.00000000E+00  1.00000000E+00  0.00000000E+00  0.00000000E+00
  0.00000000E+00  0.00000000E+00  1.00000000E+00  0.00000000E+00  0.00000000E+00
  0.00000000E+00  0.00000000E+00  1.00000000E+00  0.00000000E+00  0.00000000E+00
  0.00000000E+00  0.00000000E+00  0.00000000E+00  1.00000000E+00  1.00000000E+00
  0.00000000E+00  1.00000000E+00  0.00000000E+00  0.00000000E+00  0.00000000E+00
  0.00000000E+00  0.00000000E+00  0.00000000E+00  0.00000000E+00  0.00000000E+00
  0.00000000E+00  0.00000000E+00
ECP-MxAtEC                                 I           250000
ECP-MaxLECP                                I               10
ECP-MaxAtL                                 I          2250000
ECP-MxTECP                                 I         11250000
ECP-LenNCZ                                 I               16
ECP-KFirst                                 I   N=          40
           0           1           0           0           0           2
           0           0           0           5           0           0
           0           9           0           0           0          15
           0           0           0           0           0           0
           0           0           0           0           0           0
           0           0           0           0           0           0
           0           0           0           0
ECP-KLast                                  I   N=          40
           0           1           0           0           0           4
           0           0           0           8           0           0
           0          14           0           0           0          16
           0           0           0           0           0           0
           0           0           0           0           0           0
           0           0           0           0           0           0
           0           0           0           0
ECP-LMax                                   I   N=           4
           0           4           0           0
ECP-LPSkip                                 I   N=           4
           1           0           1           1
ECP-RNFroz                                 R   N=           4
  0.00000000E+00  1.00000000E+01  0.00000000E+00  0.00000000E+00
ECP-NLP                                    I   N=          16
           2           2           2           2           2           2
           2           2           2           2           2           2
           2           2           2           2
ECP-CLP1                                   R   N=          16
  0.00000000E+00  4.99628340E+01  3.70014205E+02  1.02414390E+01  9.91122440E+01
  1.98253046E+02  2.82617400E+01  5.66233660E+01 -1.86058530E+01 -2.79232800E+01
 -3.79693000E-01 -7.80583000E-01  3.59680000E-02  9.43970000E-02 -1.09126900E+00
 -2.88769100E+00
ECP-CLP2                                   R   N=          16
  0.00000000E+00  0.00000000E+00  0.00000000E+00  0.00000000E+00  0.00000000E+00
  0.00000000E+00  0.00000000E+00  0.00000000E+00  0.00000000E+00  0.00000000E+00
  0.00000000E+00  0.00000000E+00  0.00000000E+00  0.00000000E+00  0.00000000E+00
  0.00000000E+00
ECP-ZLP                                    R   N=          16
  1.00000000E+00  7.00242570E+01  3.11784120E+01  7.15659300E+00  4.67734710E+01
  4.61841200E+01  2.17138580E+01  2.09417920E+01  5.06988390E+01  5.06447640E+01
  1.54475090E+01  1.55002590E+01  2.80039100E+00  1.07748000E+00  1.44656060E+01
  2.12340650E+01
MxBond                                     I                2
NBond                                      I   N=           4
           2           0           1           1
IBond                                      I   N=           8
           3           4           0           0           1           0
           1           0
RBond                                      R   N=           8
  1.00000000E+00  1.00000000E+00  0.00000000E+00  0.00000000E+00  1.00000000E+00
  0.00000000E+00  1.00000000E+00  0.00000000E+00
Virial Ratio                               R      2.144430543237063E+00
SCF Energy                                 R     -9.505209315590754E+02
MP2 Energy                                 R     -9.512234999539056E+02
Total Energy                               R     -9.512234999539056E+02
Post-SCF wavefunction norm                 R      1.105374138419873E+00
RMS Density                                R      7.521553771578155E-09
Job Status                                 I                1
Nuclear derivative order                   I                0
External E-field                           R   N=          35
  0.00000000E+00  0.00000000E+00  0.00000000E+00  0.00000000E+00  0.00000000E+00
  0.00000000E+00  0.00000000E+00  0.00000000E+00  0.00000000E+00  0.00000000E+00
  0.00000000E+00  0.00000000E+00  0.00000000E+00  0.00000000E+00  0.00000000E+00
  0.00000000E+00  0.00000000E+00  0.00000000E+00  0.00000000E+00  0.00000000E+00
  0.00000000E+00  0.00000000E+00  0.00000000E+00  0.00000000E+00  0.00000000E+00
  0.00000000E+00  0.00000000E+00  0.00000000E+00  0.00000000E+00  0.00000000E+00
  0.00000000E+00  0.00000000E+00  0.00000000E+00  0.00000000E+00  0.00000000E+00
IOpCl                                      I                0
IROHF                                      I                0
Alpha Orbital Energies                     R   N=         174
 -1.04732600E+02 -2.04642770E+01 -1.04521151E+01 -9.55631223E+00 -7.91928691E+00
 -7.91663314E+00 -7.91652418E+00 -7.30429700E+00 -7.30365202E+00 -7.30362798E+00
 -2.85532028E+00 -2.85508611E+00 -2.85505820E+00 -2.85444009E+00 -2.85443944E+00
 -1.23148325E+00 -8.97035166E-01 -7.53920319E-01 -5.41775640E-01 -4.44187869E-01
 -4.35815461E-01 -3.09327545E-01 -2.82278207E-01 -1.81086797E-01 -1.72010266E-01
 -1.71707548E-01  1.55472394E-01  1.81180514E-01  2.23596936E-01  2.31061827E-01
  2.51740078E-01  2.65491625E-01  2.68380791E-01  2.85669632E-01  3.03339817E-01
  3.06757681E-01  3.28164350E-01  3.32192079E-01  3.59823728E-01  4.22058015E-01
  4.38763032E-01  4.59582121E-01  4.80489018E-01  4.85065167E-01  5.06979124E-01
  5.40277628E-01  5.50097238E-01  5.64527575E-01  5.83286898E-01  5.93890349E-01
  5.98278757E-01  6.12055092E-01  6.54031035E-01  7.07741842E-01  7.55657036E-01
  7.79643295E-01  8.09359481E-01  8.34791590E-01  8.39280868E-01  8.60732804E-01
  8.86213418E-01  8.90023416E-01  8.98960875E-01  9.40760025E-01  9.79809827E-01
  9.83675651E-01  9.88741623E-01  9.93232486E-01  1.00266609E+00  1.02013426E+00
  1.03931741E+00  1.06532731E+00  1.08687301E+00  1.09441821E+00  1.11100581E+00
  1.13316542E+00  1.14506498E+00  1.15189998E+00  1.15975033E+00  1.17227131E+00
  1.19498125E+00  1.21801510E+00  1.25818988E+00  1.28461696E+00  1.30102956E+00
  1.34821564E+00  1.36215710E+00  1.38329549E+00  1.45749430E+00  1.46935213E+00
  1.49310919E+00  1.52878791E+00  1.57354841E+00  1.61192276E+00  1.65867318E+00
  1.69762723E+00  1.71123031E+00  1.75417689E+00  1.79323392E+00  1.80311625E+00
  1.88796620E+00  1.97150267E+00  2.16268677E+00  2.38633046E+00  2.40254346E+00
  2.44934330E+00  2.46230918E+00  2.47230024E+00  2.49656352E+00  2.51292379E+00
  2.53022061E+00  2.53244025E+00  2.54047959E+00  2.54324160E+00  2.55528877E+00
  2.56257605E+00  2.59906404E+00  2.61189508E+00  2.62818863E+00  2.64609890E+00
  2.65724267E+00  2.67393494E+00  2.69120423E+00  2.69730836E+00  2.71441843E+00
  2.72200698E+00  2.74107484E+00  2.75145935E+00  2.77915787E+00  2.78863160E+00
  2.83810058E+00  2.88029293E+00  2.96407600E+00  3.04940929E+00  3.07620277E+00
  3.10722840E+00  3.19120629E+00  3.20717333E+00  3.22583220E+00  3.26750109E+00
  3.30187432E+00  3.33172147E+00  3.41067571E+00  3.52455051E+00  3.54835100E+00
  3.59069512E+00  3.92523651E+00  4.21587128E+00  4.32122008E+00  4.48983789E+00
  4.55707376E+00  4.59938984E+00  4.76193322E+00  4.98379842E+00  5.07383968E+00
  5.33450228E+00  5.41239830E+00  5.66578788E+00  6.42335755E+00  6.58131860E+00
  6.86745299E+00  6.90166525E+00  6.91884260E+00  6.99500671E+00  7.29940796E+00
  7.33687802E+00  7.34825464E+00  7.44075200E+00  7.54530316E+00  7.74610648E+00
  7.79059334E+00  8.34866893E+00  1.44670338E+01  7.98837035E+01
Alpha MO coefficients                      R   N=       30276
  5.27804902E-06  2.94264003E-05  2.20557713E-06 -1.52521537E-04 -1.00865574E-04
  3.63436091E-07  3.01653471E-06  5.58052901E-07 -3.88188170E-06 -8.91943595E-06
 -2.73165428E-06  4.90761556E-05 -1.54207155E-04  8.62020068E-07  1.11654943E-05
 -3.70586408E-05  2.38722583E-06 -2.15310100E-06  1.98007490E-07  2.28541310E-08
 -3.06823039E-06 -1.42547023E-06  1.42106044E-05 -9.82610124E-07 -2.77384757E-07
  2.06423240E-05  9.52858066E-06  2.56699354E-05  4.00258816E-06 -2.86511098E-06
  5.90656846E-05  1.25858549E-05 -1.77022604E-07 -2.37237708E-07 -8.43346866E-09
 -3.80379400E-07  3.39831941E-07 -1.59753012E-06  9.61932210E-07  2.66473558E-07
 -2.63485273E-06  1.30037971E-05  1.66784648E-06 -1.50825154E-06 -5.27705510E-06
  9.03183155E-06  6.20294695E-08 -1.62303714E-07 -2.14874067E-06  1.29896270E-05
 -3.42725074E-05 -7.40839354E-06  5.52139943E-07  1.42167901E-07 -2.24311034E-07
  3.32159344E-06  1.78365552E-06 -1.49037875E-06 -2.18555701E-06 -4.74929129E-07
  8.42397718E-07  2.42353924E-05 -5.50929688E-06 -3.59449291E-06  4.12985347E-06
 -3.38816483E-07  2.28403478E-07  6.45050875E-08  6.32076303E-08 -4.98665403E-09
 -1.05145946E-07  8.96671948E-08 -5.65915104E-07 -5.44828207E-07  1.52641296E-08
  9.11642902E-07 -6.78555680E-07  3.26434675E-06  2.95856238E-06  1.48082818E-07
 -5.61659620E-06  1.69023293E-06  4.04509584E-06  1.51380926E-06 -1.15262866E-06
 -6.48520455E-06  2.82016404E-06 -5.77821989E-08  3.88176799E-09  1.01949332E-08
 -1.12621970E-07 -5.66863623E-07 -1.92946304E-07  2.34730887E-07  1.16412918E-06
 -1.67963259E-06  2.84521789E-07 -1.08905284E-06  1.17621418E-06  2.23878691E-06
 -1.58660610E-06  9.99534864E-01  1.95389498E-03  1.84639546E-04 -4.17911629E-04
  7.26194715E-05  7.59756869E-05  1.75400696E-05 -7.54153185E-05  1.11728945E-06
  3.72763092E-05 -1.34773407E-04  1.90250452E-06 -1.81174486E-05  7.17811776E-05
 -1.05263034E-06  3.35827674E-06 -5.75471426E-05 -2.53427958E-06  2.52513370E-06
 -1.15327834E-05 -9.09053837E-07 -3.65462005E-06  7.48970841E-08 -1.23253598E-07
 -5.00998384E-06 -3.34290176E-06 -2.86296522E-05  3.35958490E-07 -4.77664639E-07
 -4.37931752E-05 -2.39102186E-05 -1.21925689E-06 -2.48283826E-06  8.48534805E-07
 -1.02938111E-05  8.31898280E-07 -4.40646052E-07 -1.92117819E-06  6.15102588E-06
  2.94783415E-07 -6.44169334E-07 -4.65958391E-06  4.06898601E-06  8.81427487E-07
  2.05109543E-07  3.12687832E-06 -8.10740275E-07  1.35989775E-06 -4.28140387E-06
  7.42086084E-06 -1.57087185E-06 -1.76257304E-05  5.94943389E-05 -7.46212753E-06
  6.96773295E-07 -2.56558970E-06  1.71952060E-07 -1.01085454E-05  1.59633785E-05
 -1.81510213E-06  1.08856381E-05  2.37757224E-05 -3.72580001E-06 -4.50714225E-07
  1.19763166E-07 -1.65142528E-08 -7.83044510E-07 -9.90192602E-07 -1.41418261E-05
  3.10063948E-06 -1.31595175E-06  1.04430088E-05 -2.60894221E-06  9.76811691E-01
 -9.21476096E-03  4.33843090E-02  1.63575906E-03  6.51831679E-04  8.41337102E-04
  1.57450289E-03  4.02451567E-04 -1.00985131E-03 -1.19916750E-03 -4.22446866E-04
 -9.38127701E-05  4.18482508E-04 -1.88452212E-04 -1.63144220E-04  2.09167753E-04
 -2.83203775E-05  4.30090237E-05  1.41521631E-05 -1.73472741E-06  9.95601350E-05
  4.08278988E-05  4.09690740E-04 -2.44510511E-04 -9.09463650E-06  2.96041960E-05
  1.56077627E-04 -1.76767599E-04 -2.12490921E-05 -2.67314471E-05 -1.03496103E-04
 -1.09495903E-04  7.25059689E-06  5.53214373E-06  1.82889763E-05 -2.63958743E-06
 -5.26128096E-06 -4.79548917E-06  8.31527214E-06  3.54313789E-05  1.25876287E-05
  1.18211873E-05 -6.44038152E-05 -2.00694906E-05 -1.09663532E-04 -5.00542622E-05
  1.39165986E-07  3.21551779E-06  8.38498134E-05  3.27206504E-05 -1.13724175E-03
 -4.03650328E-04  4.86405987E-05  2.47602479E-07 -8.17139453E-06  4.84988067E-04
 -5.26350717E-06 -5.17861451E-05 -1.76865228E-04 -1.18643118E-06  3.41659145E-05
  6.50368016E-04  4.99532065E-05 -3.19974877E-04  1.17746904E-04 -1.29704158E-05
 -3.72205299E-05 -2.43716352E-06  3.37419038E-06  1.42555028E-07  1.51248526E-06
 -1.60390886E-06  1.75642841E-05 -3.12181019E-05 -8.11099703E-07 -1.03508937E-05
  1.12113152E-05  6.34203641E-05  1.83030923E-04  8.86027991E-07 -1.78286938E-04
 -3.16552265E-05  6.79264577E-05  1.92870588E-04  9.24461812E-06 -1.64016014E-04
 -7.66891915E-06 -6.99544291E-06 -1.94056132E-05 -1.85648819E-06  1.40702720E-05
  4.60706067E-06  6.92705596E-06 -2.26601066E-06  8.42398450E-05  4.55899537E-05
  4.76419183E-07 -1.23281090E-04 -1.11551617E-05  2.81469182E-05  1.70358967E-05
  4.26514037E-06  7.13753399E-05  7.78821383E-05 -2.88595491E-04  1.96930655E-04
 -6.22258978E-04 -1.92754467E-06 -1.19180733E-05 -1.54326571E-06  6.46967863E-05
 -6.35441727E-04 -2.49476701E-05 -4.37113919E-05  2.70031881E-04  6.91357580E-06
  1.30587915E-04  2.76863103E-04  7.42130800E-05 -2.10115346E-06  1.43820104E-04
 -1.49408659E-06  1.59998038E-05 -4.43070781E-06 -7.81188148E-07  6.06610589E-06
  7.77834246E-06 -3.27122954E-04  1.05389848E-05  1.74227886E-05 -4.76349480E-04
 -1.84201401E-04  1.07326529E-04  1.49442934E-05 -5.37746469E-05  2.44051805E-04
 -3.96860363E-05  9.06415782E-06 -2.57278881E-05  1.62720983E-04  3.17648042E-06
  6.14406689E-06 -1.24834569E-04  1.90896769E-04 -1.66015642E-05 -4.85615593E-05
  1.05718895E-04  7.58060776E-06 -1.38155049E-05 -6.70053829E-05  5.90161577E-05
  3.18157527E-04  1.20244788E-03  1.29368686E-03  1.68652371E-04 -2.40886405E-04
  4.42363793E-05 -6.64472585E-05 -1.20910726E-03  3.30914092E-05 -2.05795320E-04
  1.07467188E-03 -1.79151174E-04  2.06546117E-04 -4.86028545E-06 -7.41500969E-06
 -1.90206182E-05 -2.87030275E-07 -6.59156000E-05 -5.14034775E-04  2.99820264E-04
  2.18606224E-06  1.04959603E-03 -2.48043042E-05 -6.97806470E-05 -6.10694223E-05
 -1.07499126E-04  2.88625073E-03  2.48655060E-03 -2.58588804E-05  3.92753262E-05
 -8.08124461E-06 -3.76491645E-05  5.72234802E-04  4.63936177E-05 -5.12253174E-04
  2.50782511E-03  6.29380112E-05 -2.04467682E-04  9.45949737E-04 -4.89721222E-05
 -2.33490578E-05 -4.90334827E-06 -3.35058912E-06 -4.41199436E-05 -3.39414350E-05
 -2.05282681E-04  3.58377880E-05  2.73934042E-05 -2.49920790E-04 -4.44080035E-05
 -2.78921443E-04 -3.65592304E-05  6.44259040E-05 -7.51144508E-04  1.08611400E-04
 -1.56481933E-06  5.14537985E-06 -2.24794073E-05  8.95860405E-06 -3.35183392E-06
  5.07711061E-05 -4.03842947E-05 -9.28830291E-06 -1.23602423E-06 -5.19590361E-05
 -1.58387622E-05  6.17951716E-05 -7.22182888E-05  1.39704901E-04 -9.63767820E-07
  2.30043725E-06  3.59063465E-05 -2.18604700E-04  4.86787305E-04  3.68091370E-05