title                                                                   
SP        RMP2-FC                                                     Gen                 
Number of atoms                            I                4
Info1-9                                    I   N=           9
         136         123           0           0           0         110
           1           2           1
Full Title                                 C   N=           1
title       
Route                                      C   N=           5
#p pop=NBO SP NoSymm mp2/gen Pseudo=read density=current    
Charge                                     I               -1
Multiplicity                               I                1
Number of electrons                        I               52
Number of alpha electrons                  I               26
Number of beta electrons                   I               26
Number of basis functions                  I              174
Number of independent functions            I              174
Number of point charges in /Mol/           I                0
Number of translation vectors              I                0
Atomic numbers                             I   N=           4
           8          35          17           1
Nuclear charges                            R   N=           4
  8.00000000E+00  2.50000000E+01  1.70000000E+01  1.00000000E+00
Current cartesian coordinates              R   N=          12
  0.00000000E+00  0.00000000E+00  0.00000000E+00  5.79755078E+00  0.00000000E+00
  0.00000000E+00 -7.40412882E-01  3.09587011E+00  0.00000000E+00  1.91574306E+00
  0.00000000E+00  1.67605800E-01
Number of symbols in /Mol/                 I                0
Force Field                                I                0
Atom Types                                 C   N=           4
                                                
Int Atom Types                             I   N=           4
           0           0           0           0
MM charges                                 R   N=           4
  0.00000000E+00  0.00000000E+00  0.00000000E+00  0.00000000E+00
Integer atomic weights                     I   N=           4
          16          79          35           1
Real atomic weights                        R   N=           4
  1.59949146E+01  7.89183361E+01  3.49688527E+01  1.00782504E+00
Atom fragment info                         I   N=           4
           0           0           0           0
Atom residue num                           I   N=           4
           0           0           0           0
Nuclear spins                              I   N=           4
           0           3           3           1
Nuclear ZEff                               R   N=           4
 -5.60000000E+00 -1.43500000E+03 -1.42400000E+01 -1.00000000E+00
Nuclear ZNuc                               R   N=           4
  8.00000000E+00  3.50000000E+01  1.70000000E+01  1.00000000E+00
Nuclear QMom                               R   N=           4
  0.00000000E+00  3.13000000E+01 -8.16500000E+00  0.00000000E+00
Nuclear GFac                               R   N=           4
  0.00000000E+00  2.10639900E+00  8.21874000E-01  2.79284600E+00
MicOpt                                     I   N=           4
          -1          -1          -1          -1
Number of residues                         I                0
Number of secondary structures             I                0
Number of contracted shells                I               56
Number of primitive shells                 I              138
Pure/Cartesian d shells                    I                0
Pure/Cartesian f shells                    I                0
Highest angular momentum                   I                3
Largest degree of contraction              I               11
Shell types                                I   N=          56
           0           0           0           0           0           1
           1           1           1          -2          -2          -2
          -3          -3           0           0           0           0
           0           0           1           1           1           1
           1          -2          -2          -2          -2          -3
          -3           0           0           0           0           0
           0           1           1           1           1           1
          -2          -2          -2          -3          -3           0
           0           0           0           1           1           1
          -2          -2
Number of primitives per shell             I   N=          56
           7           6           1           1           1           3
           1           1           1           1           1           1
           1           1           7           6           1           1
           1           1           8           8           1           1
           1           8           1           1           1           1
           1          11           9           8           1           1
           1           6           6           1           1           1
           1           1           1           1           1           3
           1           1           1           1           1           1
           1           1
Shell to atom map                          I   N=          56
           1           1           1           1           1           1
           1           1           1           1           1           1
           1           1           2           2           2           2
           2           2           2           2           2           2
           2           2           2           2           2           2
           2           3           3           3           3           3
           3           3           3           3           3           3
           3           3           3           3           3           4
           4           4           4           4           4           4
           4           4
Primitive exponents                        R   N=         138
  1.53300000E+04  2.29900000E+03  5.22400000E+02  1.47300000E+02  4.75500000E+01
  1.67600000E+01  6.20700000E+00  5.22400000E+02  1.47300000E+02  4.75500000E+01
  1.67600000E+01  6.20700000E+00  6.88200000E-01  1.75200000E+00  2.38400000E-01
  7.37600000E-02  3.44600000E+01  7.74900000E+00  2.28000000E+00  7.15600000E-01
  2.14000000E-01  5.97400000E-02  2.31400000E+00  6.45000000E-01  2.14000000E-01
  1.42800000E+00  5.00000000E-01  9.65939000E+03  1.45596000E+03  3.25914000E+02
  4.65657000E+01  1.82469000E+01  3.80201000E+00  1.78632000E+00  9.65939000E+03
  3.25914000E+02  4.65657000E+01  1.82469000E+01  3.80201000E+00  1.78632000E+00
  6.02714000E-01  2.84014000E-01  1.20271000E-01  4.45000000E-02  4.92187000E+02
  9.23642000E+01  2.70718000E+01  7.26539000E+00  3.48481000E+00  1.64048000E+00
  6.48570000E-01  9.53040000E-02  4.92187000E+02  2.70718000E+01  7.26539000E+00
  3.48481000E+00  1.64048000E+00  6.48570000E-01  2.56407000E-01  9.53040000E-02
  7.66600000E-01  1.18200000E-01  3.96000000E-02  3.38996000E+02  1.03217000E+02
  4.23638000E+01  1.84356000E+01  8.37254000E+00  3.80222000E+00  1.68677000E+00
  6.77520000E-01  6.77520000E-01  2.55300000E-01  1.00900000E-01  5.60600000E-01
  2.45400000E-01  4.56100000E+05  6.83300000E+04  1.55500000E+04  4.40500000E+03
  1.43900000E+03  5.20400000E+02  2.03100000E+02  8.39600000E+01  3.62000000E+01
  1.58300000E+01  6.33400000E+00  4.40500000E+03  1.43900000E+03  5.20400000E+02
  2.03100000E+02  8.39600000E+01  3.62000000E+01  1.58300000E+01  6.33400000E+00
  2.69400000E+00  1.43900000E+03  2.03100000E+02  8.39600000E+01  3.62000000E+01
  1.58300000E+01  6.33400000E+00  2.69400000E+00  4.31300000E-01  9.76800000E-01
  1.62500000E-01  5.91000000E-02  6.63300000E+02  1.56800000E+02  4.99800000E+01
  1.84200000E+01  7.24000000E+00  2.92200000E+00  1.56800000E+02  4.99800000E+01
  1.84200000E+01  7.24000000E+00  2.92200000E+00  3.81800000E-01  1.02200000E+00
  1.30100000E-01  4.19000000E-02  1.04600000E+00  3.44000000E-01  1.35000000E-01
  7.06000000E-01  3.12000000E-01  3.38700000E+01  5.09500000E+00  1.15900000E+00
  3.25800000E-01  1.02700000E-01  2.52600000E-02  1.40700000E+00  3.88000000E-01
  1.02000000E-01  1.05700000E+00  2.47000000E-01
Contraction coefficients                   R   N=         138
  5.19808943E-04  4.02025621E-03  2.07128267E-02  8.10105536E-02  2.35962985E-01
  4.42653446E-01  3.57064423E-01 -4.42115008E-05 -1.22591041E-03 -1.05517725E-02
 -6.74452633E-02 -1.71198607E-01  1.07329856E+00  1.00000000E+00  1.00000000E+00
  1.00000000E+00  4.11634896E-02  2.57762836E-01  8.02419274E-01  1.00000000E+00
  1.00000000E+00  1.00000000E+00  1.00000000E+00  1.00000000E+00  1.00000000E+00
  1.00000000E+00  1.00000000E+00  3.80701661E-04  2.63868635E-03  8.70555302E-03
  8.03093709E-02 -4.07648708E-01  7.03092632E-01  4.97431509E-01 -2.19689157E-05
 -9.47832571E-04  9.38727693E-03 -1.47428152E-02 -2.77285578E-01 -7.38047787E-01
  1.00000000E+00  1.00000000E+00  1.00000000E+00  1.00000000E+00  4.71881392E-04
  5.49299123E-03 -8.80115226E-02  3.43400525E-01  5.10073044E-01  2.48575707E-01
  2.24628895E-02  8.56099489E-04 -4.13161033E-05  2.99292350E-03 -2.76886294E-02
 -5.33882855E-02 -1.24705505E-02  3.44020817E-01  5.41867327E-01  2.58979876E-01
  1.00000000E+00  1.00000000E+00  1.00000000E+00  1.52399887E-03  1.56729884E-02
  7.23999463E-02  1.86302862E-01  3.23880760E-01  3.74533722E-01  2.57417809E-01
  6.80509495E-02  1.00000000E+00  1.00000000E+00  1.00000000E+00  1.00000000E+00
  1.00000000E+00  4.93229477E-05  3.83207967E-04  2.00947816E-03  8.38950124E-03
  2.94843950E-02  8.78759948E-02  2.11589759E-01  3.65611554E-01  3.41246350E-01
  1.02162570E-01  2.14249949E-03 -2.21747925E-06 -1.71189708E-04 -1.27922846E-03
 -9.32956265E-03 -3.98910062E-02 -1.05536085E-01  9.36202446E-03  5.10511140E-01
  5.73150737E-01  4.03949245E-06  2.12481765E-04  8.59484452E-04  4.63248159E-03
  4.47343490E-04 -7.38438245E-02 -3.62271994E-01  1.16620337E+00  1.00000000E+00
  1.00000000E+00  1.00000000E+00  2.47206402E-03  1.97550234E-02  9.09917355E-02
  2.63187834E-01  4.49078073E-01  3.60183072E-01  3.03427809E-05 -1.22475826E-03
 -6.01429772E-03 -2.76401323E-02  4.35105612E-04  1.00307272E+00  1.00000000E+00
  1.00000000E+00  1.00000000E+00  1.00000000E+00  1.00000000E+00  1.00000000E+00
  1.00000000E+00  1.00000000E+00  2.54948632E-02  1.90362766E-01  8.52162022E-01
  1.00000000E+00  1.00000000E+00  1.00000000E+00  1.00000000E+00  1.00000000E+00
  1.00000000E+00  1.00000000E+00  1.00000000E+00
Coordinates of each shell                  R   N=         168
  0.00000000E+00  0.00000000E+00  0.00000000E+00  0.00000000E+00  0.00000000E+00
  0.00000000E+00  0.00000000E+00  0.00000000E+00  0.00000000E+00  0.00000000E+00
  0.00000000E+00  0.00000000E+00  0.00000000E+00  0.00000000E+00  0.00000000E+00
  0.00000000E+00  0.00000000E+00  0.00000000E+00  0.00000000E+00  0.00000000E+00
  0.00000000E+00  0.00000000E+00  0.00000000E+00  0.00000000E+00  0.00000000E+00
  0.00000000E+00  0.00000000E+00  0.00000000E+00  0.00000000E+00  0.00000000E+00
  0.00000000E+00  0.00000000E+00  0.00000000E+00  0.00000000E+00  0.00000000E+00
  0.00000000E+00  0.00000000E+00  0.00000000E+00  0.00000000E+00  0.00000000E+00
  0.00000000E+00  0.00000000E+00  5.79755078E+00  0.00000000E+00  0.00000000E+00
  5.79755078E+00  0.00000000E+00  0.00000000E+00  5.79755078E+00  0.00000000E+00
  0.00000000E+00  5.79755078E+00  0.00000000E+00  0.00000000E+00  5.79755078E+00
  0.00000000E+00  0.00000000E+00  5.79755078E+00  0.00000000E+00  0.00000000E+00
  5.79755078E+00  0.00000000E+00  0.00000000E+00  5.79755078E+00  0.00000000E+00
  0.00000000E+00  5.79755078E+00  0.00000000E+00  0.00000000E+00  5.79755078E+00
  0.00000000E+00  0.00000000E+00  5.79755078E+00  0.00000000E+00  0.00000000E+00
  5.79755078E+00  0.00000000E+00  0.00000000E+00  5.79755078E+00  0.00000000E+00
  0.00000000E+00  5.79755078E+00  0.00000000E+00  0.00000000E+00  5.79755078E+00
  0.00000000E+00  0.00000000E+00  5.79755078E+00  0.00000000E+00  0.00000000E+00
  5.79755078E+00  0.00000000E+00  0.00000000E+00 -7.40412882E-01  3.09587011E+00
  0.00000000E+00 -7.40412882E-01  3.09587011E+00  0.00000000E+00 -7.40412882E-01
  3.09587011E+00  0.00000000E+00 -7.40412882E-01  3.09587011E+00  0.00000000E+00
 -7.40412882E-01  3.09587011E+00  0.00000000E+00 -7.40412882E-01  3.09587011E+00
  0.00000000E+00 -7.40412882E-01  3.09587011E+00  0.00000000E+00 -7.40412882E-01
  3.09587011E+00  0.00000000E+00 -7.40412882E-01  3.09587011E+00  0.00000000E+00
 -7.40412882E-01  3.09587011E+00  0.00000000E+00 -7.40412882E-01  3.09587011E+00
  0.00000000E+00 -7.40412882E-01  3.09587011E+00  0.00000000E+00 -7.40412882E-01
  3.09587011E+00  0.00000000E+00 -7.40412882E-01  3.09587011E+00  0.00000000E+00
 -7.40412882E-01  3.09587011E+00  0.00000000E+00 -7.40412882E-01  3.09587011E+00
  0.00000000E+00  1.91574306E+00  0.00000000E+00  1.67605800E-01  1.91574306E+00
  0.00000000E+00  1.67605800E-01  1.91574306E+00  0.00000000E+00  1.67605800E-01
  1.91574306E+00  0.00000000E+00  1.67605800E-01  1.91574306E+00  0.00000000E+00
  1.67605800E-01  1.91574306E+00  0.00000000E+00  1.67605800E-01  1.91574306E+00
  0.00000000E+00  1.67605800E-01  1.91574306E+00  0.00000000E+00  1.67605800E-01
  1.91574306E+00  0.00000000E+00  1.67605800E-01
Num ILSW                                   I              100
ILSW                                       I   N=         100
           0           0           0           0           2           0
           0           0           0           0           0          -1
           5           0           0           0           0           0
           0           0           0           0           0           0
           1           1           0           0           0           0
           0           0      100000           0          -1           0
           0           0           0           0           0           0
           0           0           0           1           0           0
           0 -2000000000           1           0           0           0
           0           0           4          52           0           0
           0           0           0           0           0           0
           0           0           0           4           0           1
           0           0           0           0           0           0
           0           0           0           0           0           0
           0           0           0           0           0           0
           0           0           0           0           0           0
           0           0           0           0
Num RLSW                                   I               52
RLSW                                       R   N=          52
  1.00000000E+00  1.00000000E+00  1.00000000E+00  1.00000000E+00  1.00000000E+00
  0.00000000E+00  0.00000000E+00  1.00000000E+00  0.00000000E+00  0.00000000E+00
  0.00000000E+00  0.00000000E+00  1.00000000E+00  0.00000000E+00  0.00000000E+00
  0.00000000E+00  0.00000000E+00  1.00000000E+00  0.00000000E+00  0.00000000E+00
  0.00000000E+00  0.00000000E+00  1.00000000E+00  0.00000000E+00  0.00000000E+00
  0.00000000E+00  0.00000000E+00  1.00000000E+00  0.00000000E+00  0.00000000E+00
  0.00000000E+00  0.00000000E+00  1.00000000E+00  0.00000000E+00  0.00000000E+00
  0.00000000E+00  0.00000000E+00  0.00000000E+00  1.00000000E+00  1.00000000E+00
  0.00000000E+00  1.00000000E+00  0.00000000E+00  0.00000000E+00  0.00000000E+00
  0.00000000E+00  0.00000000E+00  0.00000000E+00  0.00000000E+00  0.00000000E+00
  0.00000000E+00  0.00000000E+00
ECP-MxAtEC                                 I           250000
ECP-MaxLECP                                I               10
ECP-MaxAtL                                 I          2250000
ECP-MxTECP                                 I         11250000
ECP-LenNCZ                                 I               16
ECP-KFirst                                 I   N=          40
           0           1           0           0           0           2
           0           0           0           5           0           0
           0           9           0           0           0          15
           0           0           0           0           0           0
           0           0           0           0           0           0
           0           0           0           0           0           0
           0           0           0           0
ECP-KLast                                  I   N=          40
           0           1           0           0           0           4
           0           0           0           8           0           0
           0          14           0           0           0          16
           0           0           0           0           0           0
           0           0           0           0           0           0
           0           0           0           0           0           0
           0           0           0           0
ECP-LMax                                   I   N=           4
           0           4           0           0
ECP-LPSkip                                 I   N=           4
           1           0           1           1
ECP-RNFroz                                 R   N=           4
  0.00000000E+00  1.00000000E+01  0.00000000E+00  0.00000000E+00
ECP-NLP                                    I   N=          16
           2           2           2           2           2           2
           2           2           2           2           2           2
           2           2           2           2
ECP-CLP1                                   R   N=          16
  0.00000000E+00  4.99628340E+01  3.70014205E+02  1.02414390E+01  9.91122440E+01
  1.98253046E+02  2.82617400E+01  5.66233660E+01 -1.86058530E+01 -2.79232800E+01
 -3.79693000E-01 -7.80583000E-01  3.59680000E-02  9.43970000E-02 -1.09126900E+00
 -2.88769100E+00
ECP-CLP2                                   R   N=          16
  0.00000000E+00  0.00000000E+00  0.00000000E+00  0.00000000E+00  0.00000000E+00
  0.00000000E+00  0.00000000E+00  0.00000000E+00  0.00000000E+00  0.00000000E+00
  0.00000000E+00  0.00000000E+00  0.00000000E+00  0.00000000E+00  0.00000000E+00
  0.00000000E+00
ECP-ZLP                                    R   N=          16
  1.00000000E+00  7.00242570E+01  3.11784120E+01  7.15659300E+00  4.67734710E+01
  4.61841200E+01  2.17138580E+01  2.09417920E+01  5.06988390E+01  5.06447640E+01
  1.54475090E+01  1.55002590E+01  2.80039100E+00  1.07748000E+00  1.44656060E+01
  2.12340650E+01
MxBond                                     I                2
NBond                                      I   N=           4
           2           0           1           1
IBond                                      I   N=           8
           3           4           0           0           1           0
           1           0
RBond                                      R   N=           8
  1.00000000E+00  1.00000000E+00  0.00000000E+00  0.00000000E+00  1.00000000E+00
  0.00000000E+00  1.00000000E+00  0.00000000E+00
Virial Ratio                               R      2.144436962340430E+00
SCF Energy                                 R     -9.505225128866680E+02
MP2 Energy                                 R     -9.512259138025373E+02
Total Energy                               R     -9.512259138025373E+02
Post-SCF wavefunction norm                 R      1.105469150952837E+00
RMS Density                                R      6.122039329118019E-09
Job Status                                 I                1
Nuclear derivative order                   I                0
External E-field                           R   N=          35
  0.00000000E+00  0.00000000E+00  0.00000000E+00  0.00000000E+00  0.00000000E+00
  0.00000000E+00  0.00000000E+00  0.00000000E+00  0.00000000E+00  0.00000000E+00
  0.00000000E+00  0.00000000E+00  0.00000000E+00  0.00000000E+00  0.00000000E+00
  0.00000000E+00  0.00000000E+00  0.00000000E+00  0.00000000E+00  0.00000000E+00
  0.00000000E+00  0.00000000E+00  0.00000000E+00  0.00000000E+00  0.00000000E+00
  0.00000000E+00  0.00000000E+00  0.00000000E+00  0.00000000E+00  0.00000000E+00
  0.00000000E+00  0.00000000E+00  0.00000000E+00  0.00000000E+00  0.00000000E+00
IOpCl                                      I                0
IROHF                                      I                0
Alpha Orbital Energies                     R   N=         174
 -1.04730553E+02 -2.04606953E+01 -1.04500483E+01 -9.55911195E+00 -7.91721601E+00
 -7.91458105E+00 -7.91448125E+00 -7.30712267E+00 -7.30644358E+00 -7.30643181E+00
 -2.85814452E+00 -2.85787880E+00 -2.85786348E+00 -2.85723721E+00 -2.85723627E+00
 -1.22713597E+00 -8.94527115E-01 -7.57581076E-01 -5.38021990E-01 -4.41171369E-01
 -4.32973541E-01 -3.07268967E-01 -2.79853280E-01 -1.84640979E-01 -1.74749489E-01
 -1.74687354E-01  1.56196990E-01  1.82009538E-01  2.23922649E-01  2.31985587E-01
  2.51045885E-01  2.65008347E-01  2.67144312E-01  2.86754503E-01  3.03152774E-01
  3.15665586E-01  3.26420187E-01  3.27596175E-01  3.58538682E-01  4.31726890E-01
  4.36750469E-01  4.62628577E-01  4.78872576E-01  4.83620722E-01  5.01496268E-01
  5.41620751E-01  5.48594739E-01  5.69973433E-01  5.88403156E-01  5.96474494E-01
  5.98138238E-01  6.09503055E-01  6.56159446E-01  7.23833606E-01  7.56098588E-01
  7.77107994E-01  8.07385731E-01  8.31779460E-01  8.36104314E-01  8.53194286E-01
  8.93889001E-01  8.99315634E-01  9.14784049E-01  9.43646386E-01  9.83154491E-01
  9.84495110E-01  9.92869404E-01  9.97106942E-01  1.00417371E+00  1.02751421E+00
  1.03278015E+00  1.06112030E+00  1.08958918E+00  1.09800136E+00  1.10395536E+00
  1.13196926E+00  1.14327644E+00  1.14951554E+00  1.15971651E+00  1.19937296E+00
  1.21808112E+00  1.22053087E+00  1.26968240E+00  1.28428566E+00  1.31695676E+00
  1.33525332E+00  1.34723077E+00  1.38361141E+00  1.46675826E+00  1.47789638E+00
  1.50272123E+00  1.53367950E+00  1.58583224E+00  1.62949932E+00  1.66457754E+00
  1.70237985E+00  1.70929885E+00  1.77037205E+00  1.79554863E+00  1.80725983E+00
  1.90347442E+00  1.97400920E+00  2.19434227E+00  2.38178924E+00  2.39817324E+00
  2.45663172E+00  2.46228063E+00  2.47983512E+00  2.49603598E+00  2.51328086E+00
  2.53185645E+00  2.53775620E+00  2.54101503E+00  2.54300759E+00  2.56201486E+00
  2.57410024E+00  2.60780837E+00  2.61769352E+00  2.63188808E+00  2.63839804E+00
  2.64804074E+00  2.67570405E+00  2.68774002E+00  2.70334781E+00  2.70973186E+00
  2.72369454E+00  2.74338753E+00  2.75810533E+00  2.77175509E+00  2.79207117E+00
  2.84688058E+00  2.88122531E+00  3.03636387E+00  3.07992925E+00  3.10421482E+00
  3.10969541E+00  3.20321512E+00  3.21707547E+00  3.22641589E+00  3.29166428E+00
  3.31046487E+00  3.33752726E+00  3.47335882E+00  3.53309084E+00  3.54935193E+00
  3.61508578E+00  3.93606988E+00  4.26466025E+00  4.30982321E+00  4.46466933E+00
  4.53947777E+00  4.59062972E+00  4.78330717E+00  4.99114795E+00  5.10858917E+00
  5.32417565E+00  5.37642504E+00  5.65648023E+00  6.43787957E+00  6.58946864E+00
  6.85296213E+00  6.90294747E+00  6.91771849E+00  6.99976183E+00  7.27504658E+00
  7.33114502E+00  7.34765209E+00  7.44868286E+00  7.55810103E+00  7.74664523E+00
  7.81645335E+00  8.34977356E+00  1.45400717E+01  7.98829928E+01
Alpha MO coefficients                      R   N=       30276
  5.03657770E-06  2.83049510E-05  2.51608712E-06 -1.58007944E-04 -1.05725624E-04
  5.46945336E-07  2.92807161E-06  2.11365152E-07 -5.11042862E-06 -8.54990962E-06
 -1.05037323E-06  4.56298747E-05 -1.53512933E-04  3.74290353E-07  9.98780660E-06
 -3.85046219E-05  9.02143527E-07 -2.25398835E-06  7.04715697E-08 -2.72748870E-10
 -3.08973826E-06 -1.50070773E-06  1.48370164E-05 -3.97628218E-07 -6.08804245E-08
  2.03676236E-05  9.87410786E-06  2.60603057E-05  1.32762212E-06 -7.66294282E-07
  5.86188865E-05  1.24793282E-05 -7.65770641E-08 -3.46618676E-07 -7.36516651E-08
 -1.25592367E-07  9.27651761E-08 -1.69797022E-06  1.00241563E-06  1.39988834E-07
 -2.35356082E-06  1.33225386E-05  5.49237127E-07 -4.39390444E-07 -5.06472345E-06
  8.92991055E-06  3.99647800E-08 -1.05932896E-07 -1.29623304E-06  1.12933141E-05
 -3.83081583E-05 -7.18038560E-06  1.00253269E-06  1.74037420E-07 -1.27546345E-07
  7.37786096E-06  2.23316046E-06 -8.84830496E-07 -3.66438872E-06 -5.59613817E-07
  4.66444063E-07  2.46158597E-05 -7.51109710E-06 -1.39837999E-06  4.03061889E-06
 -2.41838195E-07  1.01084051E-07  7.71605855E-08  2.88103312E-08 -2.71492814E-09
 -6.90433474E-08  1.42277516E-07 -6.57168207E-07 -2.47064963E-07  1.24396748E-08
  6.69247123E-07 -1.05095375E-06  4.21891068E-06  1.38753399E-06  3.37140077E-08
 -6.06091337E-06  2.71993513E-06  4.13008319E-06  5.89396286E-07 -4.63983251E-07
 -6.46185824E-06  3.65730306E-06 -3.03244365E-08  1.34110169E-08 -8.36535334E-08
 -5.03284028E-08 -2.21752010E-07  7.38325929E-08  4.97872602E-07  5.67987964E-07
 -2.23029862E-06  6.09479108E-07 -5.15235672E-07  4.85135984E-07  1.65110807E-06
 -2.66509042E-06  9.99534867E-01  1.95412860E-03  1.85020839E-04 -4.18232224E-04
  7.26023274E-05  7.62502746E-05  1.77911819E-05 -7.51717741E-05  3.86105994E-07
  3.82068677E-05 -1.34845193E-04  6.81573086E-07 -1.85169545E-05  7.17136348E-05
 -3.72837205E-07  1.70138064E-06 -5.76033543E-05 -1.02719016E-06  2.64529188E-06
 -1.13000081E-05 -3.65113750E-07 -3.62143950E-06  1.92504199E-08 -4.26963014E-08
 -4.92109965E-06 -3.29405415E-06 -2.88458382E-05  1.40917717E-07 -1.68163625E-07
 -4.38239851E-05 -2.42904248E-05 -5.55036156E-07 -9.32578221E-07  3.89751528E-07
 -1.09607221E-05  1.43720026E-06 -1.70332477E-07 -2.10530507E-06  6.24141091E-06
  1.02342491E-07 -2.21018100E-07 -4.56816687E-06  3.92825481E-06  3.39920319E-07
  5.85621942E-07  3.00696146E-06 -2.78882401E-07  4.74753552E-07 -4.59493670E-06
  7.71374773E-06 -1.81125441E-06 -1.36625599E-05  7.15029955E-05 -7.84501783E-06
  6.26284924E-07 -2.58046332E-06  6.69079743E-08 -1.19283207E-05  1.53060043E-05
 -9.85888911E-07  1.20944614E-05  2.65520987E-05 -1.55134301E-06 -4.95711265E-07
  7.30665461E-08  7.44641267E-09 -5.68666378E-07 -1.00355370E-06 -1.62956307E-05
  1.52611815E-06 -5.66159172E-07  1.19283501E-05 -1.10680469E-06  9.76804320E-01
 -9.25723357E-03  4.33914094E-02  1.40132932E-03  8.16803806E-04  8.77455179E-04
  1.57930540E-03  1.36048463E-04 -1.08958695E-03 -1.19559316E-03 -1.49322196E-04
 -2.30732524E-04  2.72969751E-04 -5.60890432E-05 -1.72638329E-04  2.22723411E-04
  2.92622244E-06  3.84047144E-05  4.77941225E-06 -8.89440429E-07  9.95104506E-05
  4.06813807E-05  4.76349543E-04 -8.55355226E-05 -2.37683309E-06  2.77719239E-06
  1.50549492E-04 -1.19117579E-04 -6.48563865E-06 -1.71345427E-05 -1.49304398E-04
 -8.77300492E-05  2.29492188E-06  9.08415532E-06  1.84519152E-05 -8.21985749E-07
 -1.45044956E-06 -6.79729069E-07  8.40195739E-06  1.42222048E-05  4.25364201E-05
  2.19171994E-05 -2.26606735E-05 -8.11875566E-06 -1.44003770E-04 -5.16489664E-05
  8.77038706E-07  1.93231217E-06  9.03943732E-05  1.00430454E-04 -1.89628621E-03
 -6.68636101E-04  6.90344532E-05  8.74775735E-07 -4.21259090E-06  6.82936805E-04
 -2.09899217E-06 -2.91838856E-05 -2.45319189E-04 -3.56106868E-06  1.68703225E-05
  1.10299900E-03  5.69411061E-05 -1.49852455E-04  2.02850577E-04 -1.35672662E-05
 -1.81709655E-05 -2.25095325E-06  1.40990098E-06  8.45541906E-08  2.46190174E-06
 -1.88141976E-06  1.48593168E-05 -1.31005092E-05 -5.37088057E-07 -1.56182958E-05
  1.35683387E-05  1.31361931E-04  8.36092671E-05  1.08610524E-06 -2.57512335E-04
 -4.05640774E-05  1.48234088E-04  8.83053368E-05  3.25528326E-06 -2.58976815E-04
 -1.42979049E-05 -3.42893436E-06 -1.83859438E-05 -1.94920178E-07  5.43472221E-06
  1.76819595E-06  1.83061667E-05 -3.93888023E-06  3.90029976E-05  5.34615805E-06
 -4.72183391E-06 -5.30192820E-05 -4.90047590E-06  2.13461635E-05  2.78031003E-05
  3.84372372E-06  6.61404371E-05  6.13771550E-05 -2.93807484E-04  3.67440551E-04
 -6.84964708E-04  1.88402713E-07 -1.48118675E-05 -5.57809799E-07  8.92395663E-05
 -6.82865218E-04 -8.93330929E-06 -5.19299471E-05  2.81720998E-04  2.46954431E-06
  9.86495494E-05  1.81714203E-04  3.32677164E-05  6.63841299E-06  1.64261715E-04
 -4.45473082E-06  1.73398417E-05 -1.85403120E-06 -2.17581536E-07  3.90452935E-06
  6.88955885E-06 -3.45470244E-04  4.71838012E-06  5.66544392E-06 -4.92092319E-04
 -1.83721459E-04  1.01272655E-04  5.41674399E-06 -2.33460202E-05  1.93929927E-04
 -4.20848779E-05  3.30942054E-06 -2.46904743E-05  1.63554938E-04  1.71819112E-06
  2.60531606E-06 -1.22783411E-04  1.93327601E-04 -6.39612071E-06 -5.17690224E-05
  1.12674907E-04  1.45930229E-06 -5.95383453E-06 -6.66263305E-05  6.75319512E-05
  2.87806700E-04  1.30269543E-03  2.07891390E-03  2.54313361E-04 -2.52924337E-04
  4.09682966E-05 -2.15064704E-05 -1.30178287E-03  4.89669418E-05 -8.60844747E-05
  1.82949975E-03 -1.52487997E-04  5.41560686E-05 -5.13319003E-06  8.43567159E-07
 -6.23958069E-06  3.45594763E-06 -6.74863313E-05 -6.09410368E-04  1.18108102E-04
  4.49285189E-07  1.22548461E-03 -5.76271133E-05 -6.73112999E-05 -4.77717649E-05
 -1.09310032E-04  2.99598172E-03  2.67162355E-03 -2.78382119E-05  4.08305384E-05
 -2.94448355E-06 -1.91280333E-05  5.63637856E-04  1.73621587E-05 -4.30356455E-04
  2.46706086E-03  2.46595645E-05 -1.63531418E-04  9.91160722E-04 -1.62190242E-05
 -2.11112270E-05 -1.83832577E-06 -1.03794784E-06 -4.39232099E-05 -3.27529949E-05
 -2.20796016E-04  1.39327504E-05  8.70754608E-06 -2.43711541E-04 -5.04738328E-05
 -2.84721610E-04 -1.02041140E-05  1.61585160E-05 -7.40596418E-04  1.30126901E-04
 -4.16838967E-07  5.21118628E-06 -2.23993975E-05  3.03015475E-06 -6.19412878E-07
  5.35138078E-05 -4.12345573E-05 -4.63549662E-06 -1.23148744E-05 -6.22955130E-05
 -4.64423822E-06  1.94438360E-05 -7.99453864E-05  1.47790169E-04 -2.91699667E-07
  6.53893743E-07  1.36968269E-05 -1.59251083E-04  4.41927650E-04 -3.56074111E-05