 Entering Gaussian System, Link 0=g16
 Input=brhocl_pp_50_sp.gjf
 Output=brhocl_pp_50_sp.log
 Initial command:
 /sw/contrib/gaussian/g16/B01/g16/l1.exe "/scr/Gau-6798.inp" -scrdir="/scr/"
 Entering Link 1 = /sw/contrib/gaussian/g16/B01/g16/l1.exe PID=      6799.
  
 Copyright (c) 1988-2017, Gaussian, Inc.  All Rights Reserved.
  
 This is part of the Gaussian(R) 16 program.  It is based on
 the Gaussian(R) 09 system (copyright 2009, Gaussian, Inc.),
 the Gaussian(R) 03 system (copyright 2003, Gaussian, Inc.),
 the Gaussian(R) 98 system (copyright 1998, Gaussian, Inc.),
 the Gaussian(R) 94 system (copyright 1995, Gaussian, Inc.),
 the Gaussian 92(TM) system (copyright 1992, Gaussian, Inc.),
 the Gaussian 90(TM) system (copyright 1990, Gaussian, Inc.),
 the Gaussian 88(TM) system (copyright 1988, Gaussian, Inc.),
 the Gaussian 86(TM) system (copyright 1986, Carnegie Mellon
 University), and the Gaussian 82(TM) system (copyright 1983,
 Carnegie Mellon University). Gaussian is a federally registered
 trademark of Gaussian, Inc.
  
 This software contains proprietary and confidential information,
 including trade secrets, belonging to Gaussian, Inc.
  
 This software is provided under written license and may be
 used, copied, transmitted, or stored only in accord with that
 written license.
  
 The following legend is applicable only to US Government
 contracts under FAR:
  
                    RESTRICTED RIGHTS LEGEND
  
 Use, reproduction and disclosure by the US Government is
 subject to restrictions as set forth in subparagraphs (a)
 and (c) of the Commercial Computer Software - Restricted
 Rights clause in FAR 52.227-19.
  
 Gaussian, Inc.
 340 Quinnipiac St., Bldg. 40, Wallingford CT 06492
  
  
 ---------------------------------------------------------------
 Warning -- This program may not be used in any manner that
 competes with the business of Gaussian, Inc. or will provide
 assistance to any competitor of Gaussian, Inc.  The licensee
 of this program is prohibited from giving any competitor of
 Gaussian, Inc. access to this program.  By using this program,
 the user acknowledges that Gaussian, Inc. is engaged in the
 business of creating and licensing software in the field of
 computational chemistry and represents and warrants to the
 licensee that it is not a competitor of Gaussian, Inc. and that
 it will not use this program in any manner prohibited above.
 ---------------------------------------------------------------
  

 Cite this work as:
 Gaussian 16, Revision B.01,
 M. J. Frisch, G. W. Trucks, H. B. Schlegel, G. E. Scuseria, 
 M. A. Robb, J. R. Cheeseman, G. Scalmani, V. Barone, 
 G. A. Petersson, H. Nakatsuji, X. Li, M. Caricato, A. V. Marenich, 
 J. Bloino, B. G. Janesko, R. Gomperts, B. Mennucci, H. P. Hratchian, 
 J. V. Ortiz, A. F. Izmaylov, J. L. Sonnenberg, D. Williams-Young, 
 F. Ding, F. Lipparini, F. Egidi, J. Goings, B. Peng, A. Petrone, 
 T. Henderson, D. Ranasinghe, V. G. Zakrzewski, J. Gao, N. Rega, 
 G. Zheng, W. Liang, M. Hada, M. Ehara, K. Toyota, R. Fukuda, 
 J. Hasegawa, M. Ishida, T. Nakajima, Y. Honda, O. Kitao, H. Nakai, 
 T. Vreven, K. Throssell, J. A. Montgomery, Jr., J. E. Peralta, 
 F. Ogliaro, M. J. Bearpark, J. J. Heyd, E. N. Brothers, K. N. Kudin, 
 V. N. Staroverov, T. A. Keith, R. Kobayashi, J. Normand, 
 K. Raghavachari, A. P. Rendell, J. C. Burant, S. S. Iyengar, 
 J. Tomasi, M. Cossi, J. M. Millam, M. Klene, C. Adamo, R. Cammi, 
 J. W. Ochterski, R. L. Martin, K. Morokuma, O. Farkas, 
 J. B. Foresman, and D. J. Fox, Gaussian, Inc., Wallingford CT, 2016.
 
 ******************************************
 Gaussian 16:  ES64L-G16RevB.01 20-Dec-2017
                30-Sep-2021 
 ******************************************
 %nproc=28
 Will use up to   28 processors via shared memory.
 %mem=120GB
 %chk=/gscratch/ilahie/mccoygrp/coire_hocl/brhocl_pp/brhocl_pp_50_sp.chk
 --------------------------------------------------------
 #p pop=NBO SP NoSymm mp2/gen Pseudo=read density=current
 --------------------------------------------------------
 1/30=1,38=1,172=1/1;
 2/12=2,15=1,17=6,18=5,40=1/2;
 3/5=7,11=9,16=1,17=8,25=1,30=1,71=1/1,2,3;
 4//1;
 5/5=2,38=5/2;
 8/6=4,10=1/1;
 9/15=1,16=-3/6;
 10/5=1,13=10,31=1/2;
 6/7=2,8=2,9=2,10=2,22=-1,40=1/1,7;
 99/5=1,9=1/99;
 Leave Link    1 at Thu Sep 30 14:41:54 2021, MaxMem= 16106127360 cpu:               0.9 elap:               0.0
 (Enter /sw/contrib/gaussian/g16/B01/g16/l101.exe)
 -----
 title
 -----
 Symbolic Z-matrix:
 Charge = -1 Multiplicity = 1
 O                     0.        0.        0. 
 Br                    3.06793   0.        0. 
 Cl                   -0.39181   1.63826   0. 
 H                     0.62903   0.        0.74965 
 
 ITRead=  0  0  0  0
 MicOpt= -1 -1 -1 -1
 NAtoms=      4 NQM=        4 NQMF=       0 NMMI=      0 NMMIF=      0
                NMic=       0 NMicF=      0.
                    Isotopes and Nuclear Properties:
 (Nuclear quadrupole moments (NQMom) in fm**2, nuclear magnetic moments (NMagM)
  in nuclear magnetons)

  Atom         1           2           3           4
 IAtWgt=          16          79          35           1
 AtmWgt=  15.9949146  78.9183361  34.9688527   1.0078250
 NucSpn=           0           3           3           1
 AtZEff=  -0.0000000  -0.0000000  -0.0000000  -0.0000000
 NQMom=    0.0000000  31.3000000  -8.1650000   0.0000000
 NMagM=    0.0000000   2.1063990   0.8218740   2.7928460
 AtZNuc=   8.0000000  35.0000000  17.0000000   1.0000000
 Leave Link  101 at Thu Sep 30 14:41:54 2021, MaxMem= 16106127360 cpu:               3.1 elap:               0.2
 (Enter /sw/contrib/gaussian/g16/B01/g16/l202.exe)
                          Input orientation:                          
 ---------------------------------------------------------------------
 Center     Atomic      Atomic             Coordinates (Angstroms)
 Number     Number       Type             X           Y           Z
 ---------------------------------------------------------------------
      1          8           0        0.000000    0.000000    0.000000
      2         35           0        3.067932    0.000000    0.000000
      3         17           0       -0.391810    1.638264    0.000000
      4          1           0        0.629032    0.000000    0.749651
 ---------------------------------------------------------------------
                    Distance matrix (angstroms):
                    1          2          3          4
     1  O    0.000000
     2  Br   3.067932   0.000000
     3  Cl   1.684465   3.828018   0.000000
     4  H    0.978600   2.551511   2.070749   0.000000
 Symmetry turned off by external request.
 Stoichiometry    BrClHO(1-)
 Framework group  C1[X(BrClHO)]
 Deg. of freedom     6
 Full point group                 C1      NOp   1
 Rotational constants (GHZ):          21.9215743           1.2808248           1.2132812
 Leave Link  202 at Thu Sep 30 14:41:54 2021, MaxMem= 16106127360 cpu:               0.3 elap:               0.0
 (Enter /sw/contrib/gaussian/g16/B01/g16/l301.exe)
 General basis read from cards:  (5D, 7F)
 Centers:       4      1      3
 aug-cc-pVTZ
 ****
 Centers:       2
 S 10 1.00
     Exponent=  9.6593900000D+03 Coefficients=  3.7100000000D-04
     Exponent=  1.4559600000D+03 Coefficients=  2.5710000000D-03
     Exponent=  3.2591400000D+02 Coefficients=  8.4850000000D-03
     Exponent=  4.6565700000D+01 Coefficients=  7.8222000000D-02
     Exponent=  1.8246900000D+01 Coefficients= -3.9714900000D-01
     Exponent=  3.8020100000D+00 Coefficients=  6.8586400000D-01
     Exponent=  1.7863200000D+00 Coefficients=  4.8681900000D-01
     Exponent=  6.0271400000D-01 Coefficients=  3.4913000000D-02
     Exponent=  2.8401400000D-01 Coefficients= -6.5730000000D-03
     Exponent=  1.2027100000D-01 Coefficients=  1.6420000000D-03
 S 10 1.00
     Exponent=  9.6593900000D+03 Coefficients= -1.5200000000D-04
     Exponent=  1.4559600000D+03 Coefficients= -1.0080000000D-03
     Exponent=  3.2591400000D+02 Coefficients= -3.6090000000D-03
     Exponent=  4.6565700000D+01 Coefficients= -2.7872000000D-02
     Exponent=  1.8246900000D+01 Coefficients=  1.5131700000D-01
     Exponent=  3.8020100000D+00 Coefficients= -3.5149700000D-01
     Exponent=  1.7863200000D+00 Coefficients= -4.1070300000D-01
     Exponent=  6.0271400000D-01 Coefficients=  3.4731600000D-01
     Exponent=  2.8401400000D-01 Coefficients=  6.7549100000D-01
     Exponent=  1.2027100000D-01 Coefficients=  2.4400800000D-01
 S 1 1.00
     Exponent=  6.0271400000D-01 Coefficients=  1.0000000000D+00
 S 1 1.00
     Exponent=  2.8401400000D-01 Coefficients=  1.0000000000D+00
 S 1 1.00
     Exponent=  1.2027100000D-01 Coefficients=  1.0000000000D+00
 S 1 1.00
     Exponent=  4.4500000000D-02 Coefficients=  1.0000000000D+00
 P 9 1.00
     Exponent=  4.9218700000D+02 Coefficients=  4.7200000000D-04
     Exponent=  9.2364200000D+01 Coefficients=  5.4940000000D-03
     Exponent=  2.7071800000D+01 Coefficients= -8.8030000000D-02
     Exponent=  7.2653900000D+00 Coefficients=  3.4348500000D-01
     Exponent=  3.4848100000D+00 Coefficients=  5.1020800000D-01
     Exponent=  1.6404800000D+00 Coefficients=  2.4863100000D-01
     Exponent=  6.4857000000D-01 Coefficients=  2.2201000000D-02
     Exponent=  2.5640700000D-01 Coefficients= -4.1900000000D-04
     Exponent=  9.5304000000D-02 Coefficients=  6.5600000000D-04
 P 9 1.00
     Exponent=  4.9218700000D+02 Coefficients= -1.5800000000D-04
     Exponent=  9.2364200000D+01 Coefficients= -1.3440000000D-03
     Exponent=  2.7071800000D+01 Coefficients=  2.4616000000D-02
     Exponent=  7.2653900000D+00 Coefficients= -1.1253200000D-01
     Exponent=  3.4848100000D+00 Coefficients= -1.7977500000D-01
     Exponent=  1.6404800000D+00 Coefficients= -7.3661000000D-02
     Exponent=  6.4857000000D-01 Coefficients=  3.4873400000D-01
     Exponent=  2.5640700000D-01 Coefficients=  5.5794800000D-01
     Exponent=  9.5304000000D-02 Coefficients=  2.6645600000D-01
 P 1 1.00
     Exponent=  7.6660000000D-01 Coefficients=  1.0000000000D+00
 P 1 1.00
     Exponent=  1.1820000000D-01 Coefficients=  1.0000000000D+00
 P 1 1.00
     Exponent=  3.9600000000D-02 Coefficients=  1.0000000000D+00
 D 8 1.00
     Exponent=  3.3899600000D+02 Coefficients=  1.5240000000D-03
     Exponent=  1.0321700000D+02 Coefficients=  1.5673000000D-02
     Exponent=  4.2363800000D+01 Coefficients=  7.2400000000D-02
     Exponent=  1.8435600000D+01 Coefficients=  1.8630300000D-01
     Exponent=  8.3725400000D+00 Coefficients=  3.2388100000D-01
     Exponent=  3.8022200000D+00 Coefficients=  3.7453400000D-01
     Exponent=  1.6867700000D+00 Coefficients=  2.5741800000D-01
     Exponent=  6.7752000000D-01 Coefficients=  6.8051000000D-02
 D 1 1.00
     Exponent=  6.7752000000D-01 Coefficients=  1.0000000000D+00
 D 1 1.00
     Exponent=  2.5530000000D-01 Coefficients=  1.0000000000D+00
 D 1 1.00
     Exponent=  1.0090000000D-01 Coefficients=  1.0000000000D+00
 F 1 1.00
     Exponent=  5.6060000000D-01 Coefficients=  1.0000000000D+00
 F 1 1.00
     Exponent=  2.4540000000D-01 Coefficients=  1.0000000000D+00
 ****
 ======================================================================================================
                                       Pseudopotential Parameters
 ======================================================================================================
  Center     Atomic      Valence      Angular      Power
  Number     Number     Electrons     Momentum     of R      Exponent        Coefficient   SO-Coeffient
 ======================================================================================================
    1          8
                                   No pseudopotential on this center.
    2         35           25
                                      G and up 
                                                     2        1.0000000        0.00000000    0.00000000
                                      S - G
                                                     2       70.0242570       49.96283400    0.00000000
                                                     2       31.1784120      370.01420500    0.00000000
                                                     2        7.1565930       10.24143900    0.00000000
                                      P - G
                                                     2       46.7734710       99.11224400    0.00000000
                                                     2       46.1841200      198.25304600    0.00000000
                                                     2       21.7138580       28.26174000    0.00000000
                                                     2       20.9417920       56.62336600    0.00000000
                                      D - G
                                                     2       50.6988390      -18.60585300    0.00000000
                                                     2       50.6447640      -27.92328000    0.00000000
                                                     2       15.4475090       -0.37969300    0.00000000
                                                     2       15.5002590       -0.78058300    0.00000000
                                                     2        2.8003910        0.03596800    0.00000000
                                                     2        1.0774800        0.09439700    0.00000000
                                      F - G
                                                     2       14.4656060       -1.09126900    0.00000000
                                                     2       21.2340650       -2.88769100    0.00000000
    3         17
                                   No pseudopotential on this center.
    4          1
                                   No pseudopotential on this center.
 ======================================================================================================
 Ernie: Thresh=  0.10000D-02 Tol=  0.10000D-05 Strict=F.
 Ernie:  25 primitive shells out of 163 were deleted.
   174 basis functions,   373 primitive gaussians,   204 cartesian basis functions
    26 alpha electrons       26 beta electrons
       nuclear repulsion energy       149.8283005050 Hartrees.
 IExCor=    0 DFT=F Ex=HF Corr=None ExCW=0 ScaHFX=  1.000000
 ScaDFX=  1.000000  1.000000  1.000000  1.000000 ScalE2=  1.000000  1.000000
 IRadAn=      5 IRanWt=     -1 IRanGd=            0 ICorTp=0 IEmpDi=  4
 NAtoms=    4 NActive=    4 NUniq=    4 SFac= 1.00D+00 NAtFMM=   60 NAOKFM=F Big=F
 Integral buffers will be    131072 words long.
 Raffenetti 1 integral format.
 Two-electron integral symmetry is turned off.
 Leave Link  301 at Thu Sep 30 14:41:54 2021, MaxMem= 16106127360 cpu:               2.4 elap:               0.1
 (Enter /sw/contrib/gaussian/g16/B01/g16/l302.exe)
 NPDir=0 NMtPBC=     1 NCelOv=     1 NCel=       1 NClECP=     1 NCelD=      1
         NCelK=      1 NCelE2=     1 NClLst=     1 CellRange=     0.0.
 One-electron integrals computed using PRISM.
   1 Symmetry operations used in ECPInt.
 ECPInt:  NShTT=    1596 NPrTT=    9902 LenC2=    1595 LenP2D=    7756.
 LDataN:  DoStor=T MaxTD1= 7 Len=  274
 NBasis=   174 RedAO= T EigKep=  3.00D-04  NBF=   174
 NBsUse=   174 1.00D-06 EigRej= -1.00D+00 NBFU=   174
 Leave Link  302 at Thu Sep 30 14:41:54 2021, MaxMem= 16106127360 cpu:               7.1 elap:               0.3
 (Enter /sw/contrib/gaussian/g16/B01/g16/l303.exe)
 DipDrv:  MaxL=1.
 Leave Link  303 at Thu Sep 30 14:41:54 2021, MaxMem= 16106127360 cpu:               0.8 elap:               0.1
 (Enter /sw/contrib/gaussian/g16/B01/g16/l401.exe)
 ExpMin= 2.53D-02 ExpMax= 4.56D+05 ExpMxC= 1.44D+03 IAcc=3 IRadAn=         5 AccDes= 0.00D+00
 Harris functional with IExCor=  205 and IRadAn=       5 diagonalized for initial guess.
 HarFok:  IExCor=  205 AccDes= 0.00D+00 IRadAn=         5 IDoV= 1 UseB2=F ITyADJ=14
 ICtDFT=  3500011 ScaDFX=  1.000000  1.000000  1.000000  1.000000
 FoFCou: FMM=F IPFlag=           0 FMFlag=      100000 FMFlg1=           0
         NFxFlg=           0 DoJE=T BraDBF=F KetDBF=T FulRan=T
         wScrn=  0.000000 ICntrl=       500 IOpCl=  0 I1Cent=   200000004 NGrid=           0
         NMat0=    1 NMatS0=      1 NMatT0=    0 NMatD0=    1 NMtDS0=    0 NMtDT0=    0
 Symmetry not used in FoFCou.
 Harris En= -951.938362566092    
 JPrj=0 DoOrth=F DoCkMO=F.
 Leave Link  401 at Thu Sep 30 14:41:55 2021, MaxMem= 16106127360 cpu:               7.4 elap:               0.3
 (Enter /sw/contrib/gaussian/g16/B01/g16/l502.exe)
 Keep R1 ints in memory in canonical form, NReq=152796880.
 FoFCou: FMM=F IPFlag=           0 FMFlag=           0 FMFlg1=           0
         NFxFlg=           0 DoJE=F BraDBF=F KetDBF=F FulRan=T
         wScrn=  0.000000 ICntrl=       600 IOpCl=  0 I1Cent=           0 NGrid=           0
         NMat0=    1 NMatS0=  15225 NMatT0=    0 NMatD0=    1 NMtDS0=    0 NMtDT0=    0
 Symmetry not used in FoFCou.
 Two-electron integral symmetry not used.
 Closed shell SCF:
 Using DIIS extrapolation, IDIIS=  1040.
 NGot= 16106127360 LenX= 15990129197 LenY= 15990087140
 Requested convergence on RMS density matrix=1.00D-08 within 128 cycles.
 Requested convergence on MAX density matrix=1.00D-06.
 Requested convergence on             energy=1.00D-06.
 No special actions if energy rises.

 Cycle   1  Pass 1  IDiag  1:
 E= -950.341790113530    
 DIIS: error= 2.87D-02 at cycle   1 NSaved=   1.
 NSaved= 1 IEnMin= 1 EnMin= -950.341790113530     IErMin= 1 ErrMin= 2.87D-02
 ErrMax= 2.87D-02  0.00D+00 EMaxC= 1.00D-01 BMatC= 3.52D-01 BMatP= 3.52D-01
 IDIUse=3 WtCom= 7.13D-01 WtEn= 2.87D-01
 Coeff-Com:  0.100D+01
 Coeff-En:   0.100D+01
 Coeff:      0.100D+01
 Gap=     0.553 Goal=   None    Shift=    0.000
 GapD=    0.553 DampG=2.000 DampE=0.500 DampFc=1.0000 IDamp=-1.
 RMSDP=4.17D-03 MaxDP=2.89D-01              OVMax= 1.47D-01

 Cycle   2  Pass 1  IDiag  1:
 E= -950.473483161442     Delta-E=       -0.131693047912 Rises=F Damp=F
 DIIS: error= 9.06D-03 at cycle   2 NSaved=   2.
 NSaved= 2 IEnMin= 2 EnMin= -950.473483161442     IErMin= 2 ErrMin= 9.06D-03
 ErrMax= 9.06D-03  0.00D+00 EMaxC= 1.00D-01 BMatC= 4.77D-02 BMatP= 3.52D-01
 IDIUse=3 WtCom= 9.09D-01 WtEn= 9.06D-02
 Coeff-Com:  0.190D+00 0.810D+00
 Coeff-En:   0.000D+00 0.100D+01
 Coeff:      0.173D+00 0.827D+00
 Gap=     0.306 Goal=   None    Shift=    0.000
 RMSDP=1.16D-03 MaxDP=5.74D-02 DE=-1.32D-01 OVMax= 6.90D-02

 Cycle   3  Pass 1  IDiag  1:
 E= -950.499555614999     Delta-E=       -0.026072453557 Rises=F Damp=F
 DIIS: error= 4.30D-03 at cycle   3 NSaved=   3.
 NSaved= 3 IEnMin= 3 EnMin= -950.499555614999     IErMin= 3 ErrMin= 4.30D-03
 ErrMax= 4.30D-03  0.00D+00 EMaxC= 1.00D-01 BMatC= 9.63D-03 BMatP= 4.77D-02
 IDIUse=3 WtCom= 9.57D-01 WtEn= 4.30D-02
 Coeff-Com: -0.101D-01 0.298D+00 0.712D+00
 Coeff-En:   0.000D+00 0.119D-01 0.988D+00
 Coeff:     -0.966D-02 0.286D+00 0.724D+00
 Gap=     0.304 Goal=   None    Shift=    0.000
 RMSDP=3.15D-04 MaxDP=1.18D-02 DE=-2.61D-02 OVMax= 3.05D-02

 Cycle   4  Pass 1  IDiag  1:
 E= -950.506025437823     Delta-E=       -0.006469822824 Rises=F Damp=F
 DIIS: error= 6.52D-04 at cycle   4 NSaved=   4.
 NSaved= 4 IEnMin= 4 EnMin= -950.506025437823     IErMin= 4 ErrMin= 6.52D-04
 ErrMax= 6.52D-04  0.00D+00 EMaxC= 1.00D-01 BMatC= 1.99D-04 BMatP= 9.63D-03
 IDIUse=3 WtCom= 9.93D-01 WtEn= 6.52D-03
 Coeff-Com: -0.449D-02 0.397D-01 0.158D+00 0.807D+00
 Coeff-En:   0.000D+00 0.000D+00 0.000D+00 0.100D+01
 Coeff:     -0.446D-02 0.395D-01 0.157D+00 0.808D+00
 Gap=     0.298 Goal=   None    Shift=    0.000
 RMSDP=6.52D-05 MaxDP=2.10D-03 DE=-6.47D-03 OVMax= 3.09D-03

 Cycle   5  Pass 1  IDiag  1:
 E= -950.506204126609     Delta-E=       -0.000178688786 Rises=F Damp=F
 DIIS: error= 1.88D-04 at cycle   5 NSaved=   5.
 NSaved= 5 IEnMin= 5 EnMin= -950.506204126609     IErMin= 5 ErrMin= 1.88D-04
 ErrMax= 1.88D-04  0.00D+00 EMaxC= 1.00D-01 BMatC= 1.91D-05 BMatP= 1.99D-04
 IDIUse=3 WtCom= 9.98D-01 WtEn= 1.88D-03
 Coeff-Com: -0.630D-03-0.293D-01-0.551D-01 0.745D-01 0.101D+01
 Coeff-En:   0.000D+00 0.000D+00 0.000D+00 0.000D+00 0.100D+01
 Coeff:     -0.629D-03-0.292D-01-0.550D-01 0.743D-01 0.101D+01
 Gap=     0.299 Goal=   None    Shift=    0.000
 RMSDP=3.44D-05 MaxDP=1.23D-03 DE=-1.79D-04 OVMax= 3.08D-03

 Cycle   6  Pass 1  IDiag  1:
 E= -950.506242690497     Delta-E=       -0.000038563887 Rises=F Damp=F
 DIIS: error= 9.08D-05 at cycle   6 NSaved=   6.
 NSaved= 6 IEnMin= 6 EnMin= -950.506242690497     IErMin= 6 ErrMin= 9.08D-05
 ErrMax= 9.08D-05  0.00D+00 EMaxC= 1.00D-01 BMatC= 2.60D-06 BMatP= 1.91D-05
 IDIUse=1 WtCom= 1.00D+00 WtEn= 0.00D+00
 Coeff-Com:  0.910D-03 0.764D-04-0.784D-03-0.950D-01-0.286D+00 0.138D+01
 Coeff:      0.910D-03 0.764D-04-0.784D-03-0.950D-01-0.286D+00 0.138D+01
 Gap=     0.300 Goal=   None    Shift=    0.000
 RMSDP=1.84D-05 MaxDP=5.90D-04 DE=-3.86D-05 OVMax= 1.68D-03

 Cycle   7  Pass 1  IDiag  1:
 E= -950.506251176577     Delta-E=       -0.000008486080 Rises=F Damp=F
 DIIS: error= 2.28D-05 at cycle   7 NSaved=   7.
 NSaved= 7 IEnMin= 7 EnMin= -950.506251176577     IErMin= 7 ErrMin= 2.28D-05
 ErrMax= 2.28D-05  0.00D+00 EMaxC= 1.00D-01 BMatC= 1.83D-07 BMatP= 2.60D-06
 IDIUse=1 WtCom= 1.00D+00 WtEn= 0.00D+00
 Coeff-Com: -0.282D-03 0.236D-02 0.591D-02 0.176D-01 0.201D-01-0.451D+00
 Coeff-Com:  0.140D+01
 Coeff:     -0.282D-03 0.236D-02 0.591D-02 0.176D-01 0.201D-01-0.451D+00
 Coeff:      0.140D+01
 Gap=     0.300 Goal=   None    Shift=    0.000
 RMSDP=5.89D-06 MaxDP=1.95D-04 DE=-8.49D-06 OVMax= 5.64D-04

 Cycle   8  Pass 1  IDiag  1:
 E= -950.506251921605     Delta-E=       -0.000000745028 Rises=F Damp=F
 DIIS: error= 6.71D-06 at cycle   8 NSaved=   8.
 NSaved= 8 IEnMin= 8 EnMin= -950.506251921605     IErMin= 8 ErrMin= 6.71D-06
 ErrMax= 6.71D-06  0.00D+00 EMaxC= 1.00D-01 BMatC= 1.56D-08 BMatP= 1.83D-07
 IDIUse=1 WtCom= 1.00D+00 WtEn= 0.00D+00
 Coeff-Com: -0.656D-04-0.202D-03-0.196D-03 0.897D-02 0.335D-01-0.152D+00
 Coeff-Com:  0.624D-01 0.105D+01
 Coeff:     -0.656D-04-0.202D-03-0.196D-03 0.897D-02 0.335D-01-0.152D+00
 Coeff:      0.624D-01 0.105D+01
 Gap=     0.300 Goal=   None    Shift=    0.000
 RMSDP=1.34D-06 MaxDP=3.41D-05 DE=-7.45D-07 OVMax= 1.19D-04

 Cycle   9  Pass 1  IDiag  1:
 E= -950.506251967751     Delta-E=       -0.000000046146 Rises=F Damp=F
 DIIS: error= 2.33D-06 at cycle   9 NSaved=   9.
 NSaved= 9 IEnMin= 9 EnMin= -950.506251967751     IErMin= 9 ErrMin= 2.33D-06
 ErrMax= 2.33D-06  0.00D+00 EMaxC= 1.00D-01 BMatC= 1.79D-09 BMatP= 1.56D-08
 IDIUse=1 WtCom= 1.00D+00 WtEn= 0.00D+00
 Coeff-Com:  0.327D-04-0.247D-03-0.474D-03-0.263D-02-0.857D-02 0.700D-01
 Coeff-Com: -0.149D+00-0.186D+00 0.128D+01
 Coeff:      0.327D-04-0.247D-03-0.474D-03-0.263D-02-0.857D-02 0.700D-01
 Coeff:     -0.149D+00-0.186D+00 0.128D+01
 Gap=     0.300 Goal=   None    Shift=    0.000
 RMSDP=6.00D-07 MaxDP=1.99D-05 DE=-4.61D-08 OVMax= 5.87D-05

 Cycle  10  Pass 1  IDiag  1:
 E= -950.506251975256     Delta-E=       -0.000000007506 Rises=F Damp=F
 DIIS: error= 1.20D-06 at cycle  10 NSaved=  10.
 NSaved=10 IEnMin=10 EnMin= -950.506251975256     IErMin=10 ErrMin= 1.20D-06
 ErrMax= 1.20D-06  0.00D+00 EMaxC= 1.00D-01 BMatC= 2.70D-10 BMatP= 1.79D-09
 IDIUse=1 WtCom= 1.00D+00 WtEn= 0.00D+00
 Coeff-Com: -0.916D-06 0.107D-03 0.151D-03-0.424D-03-0.843D-03-0.376D-02
 Coeff-Com:  0.366D-01-0.557D-01-0.442D+00 0.147D+01
 Coeff:     -0.916D-06 0.107D-03 0.151D-03-0.424D-03-0.843D-03-0.376D-02
 Coeff:      0.366D-01-0.557D-01-0.442D+00 0.147D+01
 Gap=     0.300 Goal=   None    Shift=    0.000
 RMSDP=2.82D-07 MaxDP=7.07D-06 DE=-7.51D-09 OVMax= 3.01D-05

 Cycle  11  Pass 1  IDiag  1:
 E= -950.506251976729     Delta-E=       -0.000000001472 Rises=F Damp=F
 DIIS: error= 4.57D-07 at cycle  11 NSaved=  11.
 NSaved=11 IEnMin=11 EnMin= -950.506251976729     IErMin=11 ErrMin= 4.57D-07
 ErrMax= 4.57D-07  0.00D+00 EMaxC= 1.00D-01 BMatC= 3.31D-11 BMatP= 2.70D-10
 IDIUse=1 WtCom= 1.00D+00 WtEn= 0.00D+00
 Coeff-Com: -0.317D-05 0.127D-05 0.102D-04 0.391D-03 0.989D-03-0.599D-02
 Coeff-Com:  0.612D-02 0.357D-01-0.219D-01-0.454D+00 0.144D+01
 Coeff:     -0.317D-05 0.127D-05 0.102D-04 0.391D-03 0.989D-03-0.599D-02
 Coeff:      0.612D-02 0.357D-01-0.219D-01-0.454D+00 0.144D+01
 Gap=     0.300 Goal=   None    Shift=    0.000
 RMSDP=1.12D-07 MaxDP=2.98D-06 DE=-1.47D-09 OVMax= 1.06D-05

 Cycle  12  Pass 1  IDiag  1:
 E= -950.506251976929     Delta-E=       -0.000000000200 Rises=F Damp=F
 DIIS: error= 1.43D-07 at cycle  12 NSaved=  12.
 NSaved=12 IEnMin=12 EnMin= -950.506251976929     IErMin=12 ErrMin= 1.43D-07
 ErrMax= 1.43D-07  0.00D+00 EMaxC= 1.00D-01 BMatC= 4.19D-12 BMatP= 3.31D-11
 IDIUse=1 WtCom= 1.00D+00 WtEn= 0.00D+00
 Coeff-Com:  0.525D-06-0.166D-04-0.253D-04 0.309D-04-0.153D-04 0.132D-02
 Coeff-Com: -0.675D-02 0.625D-02 0.684D-01-0.199D+00-0.162D-01 0.115D+01
 Coeff:      0.525D-06-0.166D-04-0.253D-04 0.309D-04-0.153D-04 0.132D-02
 Coeff:     -0.675D-02 0.625D-02 0.684D-01-0.199D+00-0.162D-01 0.115D+01
 Gap=     0.300 Goal=   None    Shift=    0.000
 RMSDP=3.39D-08 MaxDP=8.11D-07 DE=-2.00D-10 OVMax= 3.52D-06

 Cycle  13  Pass 1  IDiag  1:
 E= -950.506251976953     Delta-E=       -0.000000000024 Rises=F Damp=F
 DIIS: error= 5.36D-08 at cycle  13 NSaved=  13.
 NSaved=13 IEnMin=13 EnMin= -950.506251976953     IErMin=13 ErrMin= 5.36D-08
 ErrMax= 5.36D-08  0.00D+00 EMaxC= 1.00D-01 BMatC= 7.07D-13 BMatP= 4.19D-12
 IDIUse=1 WtCom= 1.00D+00 WtEn= 0.00D+00
 Coeff-Com:  0.330D-06 0.517D-05 0.584D-05-0.767D-04-0.126D-03 0.497D-03
 Coeff-Com:  0.942D-03-0.550D-02-0.205D-01 0.120D+00-0.145D+00-0.529D+00
 Coeff-Com:  0.158D+01
 Coeff:      0.330D-06 0.517D-05 0.584D-05-0.767D-04-0.126D-03 0.497D-03
 Coeff:      0.942D-03-0.550D-02-0.205D-01 0.120D+00-0.145D+00-0.529D+00
 Coeff:      0.158D+01
 Gap=     0.300 Goal=   None    Shift=    0.000
 RMSDP=1.67D-08 MaxDP=3.62D-07 DE=-2.41D-11 OVMax= 1.98D-06

 Cycle  14  Pass 1  IDiag  1:
 E= -950.506251976962     Delta-E=       -0.000000000009 Rises=F Damp=F
 DIIS: error= 2.80D-08 at cycle  14 NSaved=  14.
 NSaved=14 IEnMin=14 EnMin= -950.506251976962     IErMin=14 ErrMin= 2.80D-08
 ErrMax= 2.80D-08  0.00D+00 EMaxC= 1.00D-01 BMatC= 1.18D-13 BMatP= 7.07D-13
 IDIUse=1 WtCom= 1.00D+00 WtEn= 0.00D+00
 Coeff-Com: -0.138D-06 0.396D-06 0.135D-05 0.186D-04 0.356D-04-0.283D-03
 Coeff-Com:  0.459D-03 0.111D-02-0.169D-02-0.184D-01 0.736D-01-0.308D-01
 Coeff-Com: -0.521D+00 0.150D+01
 Coeff:     -0.138D-06 0.396D-06 0.135D-05 0.186D-04 0.356D-04-0.283D-03
 Coeff:      0.459D-03 0.111D-02-0.169D-02-0.184D-01 0.736D-01-0.308D-01
 Coeff:     -0.521D+00 0.150D+01
 Gap=     0.300 Goal=   None    Shift=    0.000
 RMSDP=7.09D-09 MaxDP=1.56D-07 DE=-9.09D-12 OVMax= 8.26D-07

 SCF Done:  E(RHF) =  -950.506251977     A.U. after   14 cycles
            NFock= 14  Conv=0.71D-08     -V/T= 2.1444
 KE= 8.305922424277D+02 PE=-2.610229279443D+03 EE= 6.793024845338D+02
 Leave Link  502 at Thu Sep 30 14:41:59 2021, MaxMem= 16106127360 cpu:              43.3 elap:               4.3
 (Enter /sw/contrib/gaussian/g16/B01/g16/l801.exe)
 ExpMin= 2.53D-02 ExpMax= 4.56D+05 ExpMxC= 1.44D+03 IAcc=3 IRadAn=         5 AccDes= 0.00D+00
 HarFok:  IExCor=  205 AccDes= 0.00D+00 IRadAn=         5 IDoV=-2 UseB2=F ITyADJ=14
 ICtDFT= 12500011 ScaDFX=  1.000000  1.000000  1.000000  1.000000
 DSYEVD-2 returned Info=         111 IAlg= 4 N=    55 NDim=    55 NE2=   292836798 trying  DSYEV.
 Largest valence mixing into a core orbital is  4.47D-04
 Largest core mixing into a valence orbital is  1.60D-04
 Range of M.O.s used for correlation:    11   174
 NBasis=   174 NAE=    26 NBE=    26 NFC=    10 NFV=     0
 NROrb=    164 NOA=    16 NOB=    16 NVA=   148 NVB=   148

 **** Warning!!: The largest alpha MO coefficient is  0.11963332D+02

 Leave Link  801 at Thu Sep 30 14:41:59 2021, MaxMem= 16106127360 cpu:               2.2 elap:               0.1
 (Enter /sw/contrib/gaussian/g16/B01/g16/l906.exe)
 Frozen-core derivative calculation, NFC=  10 NFV=   0.
 FulOut=F Deriv=T AODrv=F NAtomX=     4
   MMem=         130  MDisk=          16 MDiskD=          16
  W3Min=      922896 MinDsk=     1491158 NBas6D=         204
 NBas2D=       21411    NTT=       20910    LW2=    16556320
    MDV= 16105732816 MDiskM=      394699 NBas2p=       21383
 Fully in-core method, ICMem=   510791049.
 IMap=   1   2   3   4   5   6   7   8   9  10  11  12  13  14  15  16  17  18  19  20
 IMap=  21  22  23  24  25  26
 JobTyp=1 Pass  1 fully in-core, NPsUse= 28.
 Compute canonical integrals.
 FoFCou: FMM=F IPFlag=           0 FMFlag=           0 FMFlg1=           0
         NFxFlg=           0 DoJE=F BraDBF=F KetDBF=F FulRan=T
         wScrn=  0.000000 ICntrl=       600 IOpCl=  1 I1Cent=           0 NGrid=           0
         NMat0=    1 NMatS0=  21411 NMatT0=    0 NMatD0=    1 NMtDS0=    0 NMtDT0=    0
 Symmetry not used in FoFCou.
 Spin components of T(2) and E(2):
     alpha-alpha T2 =       0.2997486126D-01 E2=     -0.9278436176D-01
     alpha-beta  T2 =       0.1609568560D+00 E2=     -0.5128875295D+00
     beta-beta   T2 =       0.2997486126D-01 E2=     -0.9278436176D-01
 The integrals were generated   1 times.
 ANorm=    0.1104946414D+01
 E2 =    -0.6984562530D+00 EUMP2 =    -0.95120470822998D+03
 Leave Link  906 at Thu Sep 30 14:42:05 2021, MaxMem= 16106127360 cpu:             160.6 elap:               5.8
 (Enter /sw/contrib/gaussian/g16/B01/g16/l1002.exe)
 Minotr:  Closed shell wavefunction.
          Computing MP2/KS-MP2 derivatives.
          Using Z-Vector for PSCF gradient.
          Skipping F1 and S1 gradient terms here.
          Frozen-core window.
          Direct CPHF calculation.
          Differentiating once with respect to electric field.
                with respect to dipole field.
          Electric field/nuclear overlap derivatives assumed to be zero.
          Requested convergence is 1.0D-10 RMS, and 1.0D-09 maximum.
          NewPWx=F KeepS1=T KeepF1=T KeepIn=T MapXYZ=F SortEE=F KeepMc=T.
 Keep R1 ints in memory in canonical form, NReq=152801857.
 FoFCou: FMM=F IPFlag=           0 FMFlag=           0 FMFlg1=           0
         NFxFlg=           0 DoJE=F BraDBF=F KetDBF=F FulRan=T
         wScrn=  0.000000 ICntrl=       600 IOpCl=  0 I1Cent=           0 NGrid=           0
         NMat0=    1 NMatS0=  15225 NMatT0=    0 NMatD0=    1 NMtDS0=    0 NMtDT0=    0
 Symmetry not used in FoFCou.
 Two-electron integral symmetry not used.
          MDV=   16106127360 using IRadAn=       5.
          Solving linear equations separately, MaxMat=       0.
          There are     1 degrees of freedom in the 1st order CPHF.  IDoFFX=0 NUNeed=     1.
 LinEq1:  Iter=  0 NonCon=     1 RMS=2.85D-03 Max=3.55D-02 NDo=     1
 AX will form     1 AO Fock derivatives at one time.
 LinEq1:  Iter=  1 NonCon=     1 RMS=4.65D-04 Max=4.47D-03 NDo=     1
 LinEq1:  Iter=  2 NonCon=     1 RMS=2.22D-04 Max=2.93D-03 NDo=     1
 LinEq1:  Iter=  3 NonCon=     1 RMS=7.01D-05 Max=7.86D-04 NDo=     1
 LinEq1:  Iter=  4 NonCon=     1 RMS=2.77D-05 Max=5.59D-04 NDo=     1
 LinEq1:  Iter=  5 NonCon=     1 RMS=1.29D-05 Max=2.46D-04 NDo=     1
 LinEq1:  Iter=  6 NonCon=     1 RMS=3.85D-06 Max=6.20D-05 NDo=     1
 LinEq1:  Iter=  7 NonCon=     1 RMS=1.00D-06 Max=1.09D-05 NDo=     1
 LinEq1:  Iter=  8 NonCon=     1 RMS=2.93D-07 Max=3.70D-06 NDo=     1
 LinEq1:  Iter=  9 NonCon=     1 RMS=7.89D-08 Max=1.39D-06 NDo=     1
 LinEq1:  Iter= 10 NonCon=     1 RMS=2.04D-08 Max=3.05D-07 NDo=     1
 LinEq1:  Iter= 11 NonCon=     1 RMS=5.10D-09 Max=7.88D-08 NDo=     1
 LinEq1:  Iter= 12 NonCon=     1 RMS=1.10D-09 Max=1.24D-08 NDo=     1
 LinEq1:  Iter= 13 NonCon=     1 RMS=2.96D-10 Max=3.18D-09 NDo=     1
 LinEq1:  Iter= 14 NonCon=     0 RMS=7.34D-11 Max=6.79D-10 NDo=     1
 Linear equations converged to 1.000D-10 1.000D-09 after    14 iterations.
 End of Minotr F.D. properties file   721 does not exist.
 End of Minotr F.D. properties file   722 does not exist.
 End of Minotr F.D. properties file   788 does not exist.
 Leave Link 1002 at Thu Sep 30 14:42:10 2021, MaxMem= 16106127360 cpu:              39.6 elap:               4.6
 (Enter /sw/contrib/gaussian/g16/B01/g16/l601.exe)
 Copying SCF densities to generalized density rwf, IOpCl= 0 IROHF=0.

 **********************************************************************

            Population analysis using the MP2 Density.

 **********************************************************************

 Alpha  occ. eigenvalues -- -104.74402 -20.48599 -10.46374  -9.53783  -7.93093
 Alpha  occ. eigenvalues --   -7.92818  -7.92801  -7.28565  -7.28529  -7.28509
 Alpha  occ. eigenvalues --   -2.83673  -2.83666  -2.83640  -2.83604  -2.83601
 Alpha  occ. eigenvalues --   -1.25768  -0.91049  -0.73140  -0.56381  -0.46168
 Alpha  occ. eigenvalues --   -0.45243  -0.32234  -0.29564  -0.15768  -0.15400
 Alpha  occ. eigenvalues --   -0.15231
 Alpha virt. eigenvalues --    0.14747   0.17516   0.21881   0.22967   0.25758
 Alpha virt. eigenvalues --    0.26641   0.27091   0.27897   0.28371   0.31102
 Alpha virt. eigenvalues --    0.31816   0.33409   0.35790   0.39431   0.43802
 Alpha virt. eigenvalues --    0.45259   0.48722   0.49490   0.50693   0.53223
 Alpha virt. eigenvalues --    0.54038   0.55539   0.56495   0.58283   0.59085
 Alpha virt. eigenvalues --    0.59978   0.61930   0.64460   0.75206   0.77167
 Alpha virt. eigenvalues --    0.80888   0.83807   0.84509   0.85897   0.86541
 Alpha virt. eigenvalues --    0.87814   0.89365   0.92913   0.95759   0.98320
 Alpha virt. eigenvalues --    0.99931   1.00695   1.01369   1.02315   1.03851
 Alpha virt. eigenvalues --    1.05267   1.06735   1.08629   1.10121   1.11671
 Alpha virt. eigenvalues --    1.12422   1.15496   1.16281   1.18401   1.18735
 Alpha virt. eigenvalues --    1.20242   1.20869   1.22022   1.25822   1.30216
 Alpha virt. eigenvalues --    1.31895   1.35913   1.38372   1.41795   1.46640
 Alpha virt. eigenvalues --    1.49503   1.53984   1.58312   1.63069   1.65129
 Alpha virt. eigenvalues --    1.67918   1.69654   1.71748   1.74711   1.85724
 Alpha virt. eigenvalues --    1.96670   2.09748   2.31773   2.39633   2.43314
 Alpha virt. eigenvalues --    2.46116   2.47607   2.47762   2.49286   2.50355
 Alpha virt. eigenvalues --    2.52420   2.53754   2.55160   2.55936   2.56406
 Alpha virt. eigenvalues --    2.58765   2.60586   2.62499   2.62939   2.63996
 Alpha virt. eigenvalues --    2.65103   2.66911   2.68179   2.70229   2.70480
 Alpha virt. eigenvalues --    2.73046   2.74208   2.77440   2.80886   2.82476
 Alpha virt. eigenvalues --    2.83501   2.89933   2.91921   3.00627   3.09096
 Alpha virt. eigenvalues --    3.12362   3.20150   3.21172   3.22121   3.25307
 Alpha virt. eigenvalues --    3.29030   3.35275   3.48047   3.54133   3.55548
 Alpha virt. eigenvalues --    3.90712   3.96879   4.35527   4.44469   4.52082
 Alpha virt. eigenvalues --    4.59045   4.72639   4.89965   5.00325   5.36766
 Alpha virt. eigenvalues --    5.45264   5.68209   6.36410   6.62352   6.83918
 Alpha virt. eigenvalues --    6.89625   6.90910   6.96421   7.33056   7.36080
 Alpha virt. eigenvalues --    7.37190   7.45073   7.46809   7.68226   7.70351
 Alpha virt. eigenvalues --    8.39505  14.67244  79.89721
          Condensed to atoms (all electrons):
               1          2          3          4
     1  O    8.491083  -0.077114  -0.123617   0.084896
     2  Br  -0.077114  25.955913   0.002455   0.053556
     3  Cl  -0.123617   0.002455  17.048170  -0.000580
     4  H    0.084896   0.053556  -0.000580   0.625641
 Mulliken charges:
               1
     1  O   -0.375249
     2  Br  -0.934810
     3  Cl   0.073572
     4  H    0.236487
 Sum of Mulliken charges =  -1.00000
 Mulliken charges with hydrogens summed into heavy atoms:
               1
     1  O   -0.138761
     2  Br  -0.934810
     3  Cl   0.073572
 Electronic spatial extent (au):  <R**2>=           1142.5184
 Charge=             -1.0000 electrons
 Dipole moment (field-independent basis, Debye):
    X=            -12.2781    Y=             -0.4862    Z=              0.7137  Tot=             12.3085
 Quadrupole moment (field-independent basis, Debye-Ang):
   XX=            -85.2978   YY=            -42.9987   ZZ=            -41.9230
   XY=              0.4656   XZ=              0.1772   YZ=             -0.2566
 Traceless Quadrupole moment (field-independent basis, Debye-Ang):
   XX=            -28.5580   YY=             13.7412   ZZ=             14.8168
   XY=              0.4656   XZ=              0.1772   YZ=             -0.2566
 Octapole moment (field-independent basis, Debye-Ang**2):
  XXX=           -329.4885  YYY=            -61.3995  ZZZ=             -1.8111  XYY=            -67.0436
  XXY=            -21.7251  XXZ=             -3.4557  XZZ=            -65.9879  YZZ=            -22.0853
  YYZ=             -1.2775  XYZ=              0.1297
 Hexadecapole moment (field-independent basis, Debye-Ang**3):
 XXXX=          -1796.2683 YYYY=           -256.6910 ZZZZ=            -65.2759 XXXY=             28.2912
 XXXZ=            -12.2136 YYYX=             22.1375 YYYZ=             -1.0883 ZZZX=             -2.7911
 ZZZY=             -0.3581 XXYY=           -279.7706 XXZZ=           -244.2703 YYZZ=            -58.3995
 XXYZ=             -0.2309 YYXZ=             -0.7536 ZZXY=              9.2265
 N-N= 1.498283005050D+02 E-N=-2.609017153869D+03  KE= 8.304264523848D+02
 No NMR shielding tensors so no spin-rotation constants.
 Leave Link  601 at Thu Sep 30 14:42:10 2021, MaxMem= 16106127360 cpu:               4.8 elap:               0.2
 (Enter /sw/contrib/gaussian/g16/B01/g16/l607.exe)
 ******************************Gaussian NBO Version 3.1******************************
             N A T U R A L   A T O M I C   O R B I T A L   A N D
          N A T U R A L   B O N D   O R B I T A L   A N A L Y S I S
 ******************************Gaussian NBO Version 3.1******************************
       /RESON  / : Allow strongly delocalized NBO set

 Analyzing the MP2 density

 Job title: title                                                           

 Storage needed:     91686 in NPA,    121697 in NBO (********** available)
 GSVD:  LWork=        2436 too small for GESVD, short by       52200 words or       52200 for optimal perf.


 NATURAL POPULATIONS:  Natural atomic orbital occupancies 
                                                          
   NAO  Atom  No  lang   Type(AO)    Occupancy
 --------------------------------------------
     1    O    1  S      Cor( 1S)     1.99971
     2    O    1  S      Val( 2S)     1.79512
     3    O    1  S      Ryd( 3S)     0.00910
     4    O    1  S      Ryd( 4S)     0.00105
     5    O    1  S      Ryd( 5S)     0.00016
     6    O    1  px     Val( 2p)     1.76565
     7    O    1  px     Ryd( 3p)     0.01561
     8    O    1  px     Ryd( 4p)     0.00070
     9    O    1  px     Ryd( 5p)     0.00038
    10    O    1  py     Val( 2p)     1.27939
    11    O    1  py     Ryd( 3p)     0.00762
    12    O    1  py     Ryd( 4p)     0.00060
    13    O    1  py     Ryd( 5p)     0.00030
    14    O    1  pz     Val( 2p)     1.74260
    15    O    1  pz     Ryd( 3p)     0.01449
    16    O    1  pz     Ryd( 4p)     0.00071
    17    O    1  pz     Ryd( 5p)     0.00023
    18    O    1  dxy    Ryd( 3d)     0.00916
    19    O    1  dxy    Ryd( 4d)     0.00053
    20    O    1  dxy    Ryd( 5d)     0.00019
    21    O    1  dxz    Ryd( 3d)     0.01096
    22    O    1  dxz    Ryd( 4d)     0.00053
    23    O    1  dxz    Ryd( 5d)     0.00012
    24    O    1  dyz    Ryd( 3d)     0.01012
    25    O    1  dyz    Ryd( 4d)     0.00055
    26    O    1  dyz    Ryd( 5d)     0.00009
    27    O    1  dx2y2  Ryd( 3d)     0.01033
    28    O    1  dx2y2  Ryd( 4d)     0.00055
    29    O    1  dx2y2  Ryd( 5d)     0.00021
    30    O    1  dz2    Ryd( 3d)     0.01035
    31    O    1  dz2    Ryd( 4d)     0.00055
    32    O    1  dz2    Ryd( 5d)     0.00019
    33    O    1  f(0)   Ryd( 4f)     0.00056
    34    O    1  f(0)   Ryd( 5f)     0.00012
    35    O    1  f(C1)  Ryd( 4f)     0.00057
    36    O    1  f(C1)  Ryd( 5f)     0.00012
    37    O    1  f(S1)  Ryd( 4f)     0.00059
    38    O    1  f(S1)  Ryd( 5f)     0.00012
    39    O    1  f(C2)  Ryd( 4f)     0.00066
    40    O    1  f(C2)  Ryd( 5f)     0.00014
    41    O    1  f(S2)  Ryd( 4f)     0.00059
    42    O    1  f(S2)  Ryd( 5f)     0.00012
    43    O    1  f(C3)  Ryd( 4f)     0.00068
    44    O    1  f(C3)  Ryd( 5f)     0.00013
    45    O    1  f(S3)  Ryd( 4f)     0.00065
    46    O    1  f(S3)  Ryd( 5f)     0.00011

    47   Br    2  S      Cor( 3S)     2.00002
    48   Br    2  S      Val( 4S)     1.98060
    49   Br    2  S      Ryd( 5S)     0.00377
    50   Br    2  S      Ryd( 6S)     0.00058
    51   Br    2  S      Ryd( 7S)     0.00019
    52   Br    2  S      Ryd( 8S)     0.00000
    53   Br    2  px     Cor( 3p)     2.00001
    54   Br    2  px     Val( 4p)     1.93394
    55   Br    2  px     Ryd( 5p)     0.01121
    56   Br    2  px     Ryd( 6p)     0.00079
    57   Br    2  px     Ryd( 7p)     0.00011
    58   Br    2  py     Cor( 3p)     2.00002
    59   Br    2  py     Val( 4p)     1.95343
    60   Br    2  py     Ryd( 5p)     0.01229
    61   Br    2  py     Ryd( 6p)     0.00082
    62   Br    2  py     Ryd( 7p)     0.00011
    63   Br    2  pz     Cor( 3p)     2.00002
    64   Br    2  pz     Val( 4p)     1.94858
    65   Br    2  pz     Ryd( 5p)     0.01225
    66   Br    2  pz     Ryd( 6p)     0.00082
    67   Br    2  pz     Ryd( 7p)     0.00009
    68   Br    2  dxy    Cor( 3d)     1.99770
    69   Br    2  dxy    Ryd( 4d)     0.01887
    70   Br    2  dxy    Ryd( 5d)     0.00163
    71   Br    2  dxy    Ryd( 6d)     0.00023
    72   Br    2  dxz    Cor( 3d)     1.99770
    73   Br    2  dxz    Ryd( 4d)     0.01914
    74   Br    2  dxz    Ryd( 5d)     0.00166
    75   Br    2  dxz    Ryd( 6d)     0.00027
    76   Br    2  dyz    Cor( 3d)     1.99771
    77   Br    2  dyz    Ryd( 4d)     0.01866
    78   Br    2  dyz    Ryd( 5d)     0.00178
    79   Br    2  dyz    Ryd( 6d)     0.00022
    80   Br    2  dx2y2  Cor( 3d)     1.99769
    81   Br    2  dx2y2  Ryd( 4d)     0.01859
    82   Br    2  dx2y2  Ryd( 5d)     0.00169
    83   Br    2  dx2y2  Ryd( 6d)     0.00026
    84   Br    2  dz2    Cor( 3d)     1.99770
    85   Br    2  dz2    Ryd( 4d)     0.01862
    86   Br    2  dz2    Ryd( 5d)     0.00173
    87   Br    2  dz2    Ryd( 6d)     0.00021
    88   Br    2  f(0)   Ryd( 4f)     0.00175
    89   Br    2  f(0)   Ryd( 5f)     0.00026
    90   Br    2  f(C1)  Ryd( 4f)     0.00174
    91   Br    2  f(C1)  Ryd( 5f)     0.00027
    92   Br    2  f(S1)  Ryd( 4f)     0.00175
    93   Br    2  f(S1)  Ryd( 5f)     0.00025
    94   Br    2  f(C2)  Ryd( 4f)     0.00175
    95   Br    2  f(C2)  Ryd( 5f)     0.00028
    96   Br    2  f(S2)  Ryd( 4f)     0.00176
    97   Br    2  f(S2)  Ryd( 5f)     0.00026
    98   Br    2  f(C3)  Ryd( 4f)     0.00173
    99   Br    2  f(C3)  Ryd( 5f)     0.00028
   100   Br    2  f(S3)  Ryd( 4f)     0.00174
   101   Br    2  f(S3)  Ryd( 5f)     0.00027

   102   Cl    3  S      Cor( 1S)     2.00000
   103   Cl    3  S      Cor( 2S)     1.99981
   104   Cl    3  S      Val( 3S)     1.88453
   105   Cl    3  S      Ryd( 4S)     0.00856
   106   Cl    3  S      Ryd( 5S)     0.00055
   107   Cl    3  S      Ryd( 6S)     0.00018
   108   Cl    3  px     Cor( 2p)     2.00003
   109   Cl    3  px     Val( 3p)     1.89432
   110   Cl    3  px     Ryd( 4p)     0.00989
   111   Cl    3  px     Ryd( 5p)     0.00061
   112   Cl    3  px     Ryd( 6p)     0.00009
   113   Cl    3  py     Cor( 2p)     1.99997
   114   Cl    3  py     Val( 3p)     0.95763
   115   Cl    3  py     Ryd( 4p)     0.00713
   116   Cl    3  py     Ryd( 5p)     0.00051
   117   Cl    3  py     Ryd( 6p)     0.00020
   118   Cl    3  pz     Cor( 2p)     2.00003
   119   Cl    3  pz     Val( 3p)     1.95399
   120   Cl    3  pz     Ryd( 4p)     0.01008
   121   Cl    3  pz     Ryd( 5p)     0.00058
   122   Cl    3  pz     Ryd( 6p)     0.00003
   123   Cl    3  dxy    Ryd( 3d)     0.01914
   124   Cl    3  dxy    Ryd( 4d)     0.00075
   125   Cl    3  dxy    Ryd( 5d)     0.00026
   126   Cl    3  dxz    Ryd( 3d)     0.01712
   127   Cl    3  dxz    Ryd( 4d)     0.00082
   128   Cl    3  dxz    Ryd( 5d)     0.00021
   129   Cl    3  dyz    Ryd( 3d)     0.01818
   130   Cl    3  dyz    Ryd( 4d)     0.00079
   131   Cl    3  dyz    Ryd( 5d)     0.00032
   132   Cl    3  dx2y2  Ryd( 3d)     0.01901
   133   Cl    3  dx2y2  Ryd( 4d)     0.00073
   134   Cl    3  dx2y2  Ryd( 5d)     0.00026
   135   Cl    3  dz2    Ryd( 3d)     0.01737
   136   Cl    3  dz2    Ryd( 4d)     0.00063
   137   Cl    3  dz2    Ryd( 5d)     0.00017
   138   Cl    3  f(0)   Ryd( 4f)     0.00126
   139   Cl    3  f(0)   Ryd( 5f)     0.00013
   140   Cl    3  f(C1)  Ryd( 4f)     0.00127
   141   Cl    3  f(C1)  Ryd( 5f)     0.00013
   142   Cl    3  f(S1)  Ryd( 4f)     0.00139
   143   Cl    3  f(S1)  Ryd( 5f)     0.00013
   144   Cl    3  f(C2)  Ryd( 4f)     0.00127
   145   Cl    3  f(C2)  Ryd( 5f)     0.00014
   146   Cl    3  f(S2)  Ryd( 4f)     0.00122
   147   Cl    3  f(S2)  Ryd( 5f)     0.00013
   148   Cl    3  f(C3)  Ryd( 4f)     0.00148
   149   Cl    3  f(C3)  Ryd( 5f)     0.00014
   150   Cl    3  f(S3)  Ryd( 4f)     0.00148
   151   Cl    3  f(S3)  Ryd( 5f)     0.00015

   152    H    4  S      Val( 1S)     0.48678
   153    H    4  S      Ryd( 2S)     0.00391
   154    H    4  S      Ryd( 3S)     0.00034
   155    H    4  S      Ryd( 4S)     0.00015
   156    H    4  px     Ryd( 2p)     0.00585
   157    H    4  px     Ryd( 3p)     0.00058
   158    H    4  px     Ryd( 4p)     0.00024
   159    H    4  py     Ryd( 2p)     0.00241
   160    H    4  py     Ryd( 3p)     0.00042
   161    H    4  py     Ryd( 4p)     0.00011
   162    H    4  pz     Ryd( 2p)     0.00316
   163    H    4  pz     Ryd( 3p)     0.00059
   164    H    4  pz     Ryd( 4p)     0.00019
   165    H    4  dxy    Ryd( 3d)     0.00024
   166    H    4  dxy    Ryd( 4d)     0.00008
   167    H    4  dxz    Ryd( 3d)     0.00031
   168    H    4  dxz    Ryd( 4d)     0.00009
   169    H    4  dyz    Ryd( 3d)     0.00014
   170    H    4  dyz    Ryd( 4d)     0.00007
   171    H    4  dx2y2  Ryd( 3d)     0.00028
   172    H    4  dx2y2  Ryd( 4d)     0.00011
   173    H    4  dz2    Ryd( 3d)     0.00022
   174    H    4  dz2    Ryd( 4d)     0.00011

 [ 10 electrons found in the effective core potential]

 WARNING:  5 low occupancy (<1.9990e) core orbitals found on Br    2


 Summary of Natural Population Analysis:                  
                                                          
                                       Natural Population 
                Natural  -----------------------------------------------
    Atom  No    Charge         Core      Valence    Rydberg      Total
 -----------------------------------------------------------------------
      O    1   -0.69302      1.99971     6.58275    0.11055     8.69302
     Br    2   -0.96582     27.98858     7.81656    0.16068    35.96582
     Cl    3    0.16520      9.99984     6.69047    0.14449    16.83480
      H    4    0.49363      0.00000     0.48678    0.01958     0.50637
 =======================================================================
   * Total *   -1.00000     39.98813    21.57657    0.43531    62.00000

                                 Natural Population      
 --------------------------------------------------------
   Effective Core            10.00000
   Core                      29.98813 ( 99.9604% of  30)
   Valence                   21.57657 ( 98.0753% of  22)
   Natural Minimal Basis     61.56469 ( 99.2979% of  62)
   Natural Rydberg Basis      0.43531 (  0.7021% of  62)
 --------------------------------------------------------

    Atom  No          Natural Electron Configuration
 ----------------------------------------------------------------------------
      O    1      [core]2S( 1.80)2p( 4.79)3S( 0.01)3p( 0.04)3d( 0.05)
     Br    2      [core]4S( 1.98)4p( 5.84)4d( 0.09)5p( 0.04)4f( 0.01)5d( 0.01)
     Cl    3      [core]3S( 1.88)3p( 4.81)4S( 0.01)3d( 0.09)4p( 0.03)4f( 0.01)
      H    4            1S( 0.49)2p( 0.01)


 NATURAL BOND ORBITAL ANALYSIS:

                       Occupancies       Lewis Structure    Low   High
           Occ.    -------------------  -----------------   occ   occ
  Cycle   Thresh.   Lewis   Non-Lewis     CR  BD  3C  LP    (L)   (NL)   Dev
 =============================================================================
   1(1)    1.90    61.51775   0.48225     15   2   0   9     0      0    0.03
 -----------------------------------------------------------------------------

 Structure accepted: No low occupancy Lewis orbitals

 WARNING:  5 low occupancy (<1.9990e) core orbitals found on Br    2

 --------------------------------------------------------
   Effective Core           10.00000
   Core                     29.98813 ( 99.960% of  30)
   Valence Lewis            21.52962 ( 97.862% of  22)
  ==================       ============================
   Total Lewis              61.51775 ( 99.222% of  62)
  -----------------------------------------------------
   Valence non-Lewis         0.09693 (  0.156% of  62)
   Rydberg non-Lewis         0.38532 (  0.621% of  62)
  ==================       ============================
   Total non-Lewis           0.48225 (  0.778% of  62)
 --------------------------------------------------------


       (Occupancy)   Bond orbital/ Coefficients/ Hybrids
 ---------------------------------------------------------------------------------
     1. (1.94017) BD ( 1) O   1 -Cl   3  
                ( 59.29%)   0.7700* O   1 s(  9.92%)p 9.02( 89.49%)d 0.06(  0.57%)
                                                  f 0.00(  0.02%)
                                            0.0003  0.3120 -0.0413 -0.0117 -0.0021
                                           -0.2320  0.0224  0.0052  0.0021  0.9161
                                           -0.0155 -0.0074 -0.0086  0.0221  0.0225
                                            0.0041 -0.0007 -0.0177 -0.0023 -0.0022
                                            0.0080  0.0008 -0.0011  0.0259  0.0035
                                           -0.0005 -0.0601 -0.0046  0.0002 -0.0314
                                           -0.0024 -0.0006 -0.0003  0.0006  0.0011
                                            0.0008 -0.0053 -0.0003 -0.0038  0.0020
                                            0.0055 -0.0009  0.0063  0.0006 -0.0080
                                            0.0012
                ( 40.71%)   0.6380*Cl   3 s(  8.40%)p10.75( 90.30%)d 0.14(  1.19%)
                                                  f 0.01(  0.11%)
                                           -0.0000  0.0005  0.2830 -0.0616 -0.0099
                                           -0.0030  0.0001  0.2231 -0.0142 -0.0038
                                            0.0008 -0.0004 -0.9211  0.0668  0.0126
                                           -0.0028  0.0000  0.0033 -0.0005 -0.0026
                                            0.0014 -0.0453  0.0058  0.0002  0.0084
                                            0.0008 -0.0008 -0.0128 -0.0017 -0.0010
                                           -0.0818  0.0094  0.0005 -0.0523  0.0060
                                           -0.0005 -0.0008  0.0002 -0.0043  0.0004
                                            0.0189 -0.0020  0.0001 -0.0006 -0.0021
                                            0.0014 -0.0176  0.0028  0.0200 -0.0025
     2. (1.96374) BD ( 1) O   1 - H   4  
                ( 76.67%)   0.8756* O   1 s( 23.09%)p 3.31( 76.35%)d 0.02(  0.55%)
                                                  f 0.00(  0.01%)
                                            0.0002  0.4804 -0.0030 -0.0062  0.0020
                                            0.5446 -0.0137 -0.0056 -0.0004 -0.0401
                                            0.0146  0.0012  0.0015  0.6817 -0.0092
                                           -0.0068 -0.0033  0.0158  0.0033  0.0011
                                            0.0572  0.0025 -0.0006  0.0222  0.0040
                                            0.0003  0.0149  0.0009  0.0019  0.0347
                                            0.0039  0.0021 -0.0044  0.0011  0.0085
                                            0.0010  0.0020 -0.0010  0.0017  0.0025
                                           -0.0005 -0.0007 -0.0031  0.0018 -0.0017
                                            0.0002
                ( 23.33%)   0.4830* H   4 s( 99.81%)p 0.00(  0.19%)d 0.00(  0.00%)
                                            0.9990  0.0133  0.0005 -0.0003 -0.0030
                                           -0.0194 -0.0044  0.0092  0.0021 -0.0042
                                            0.0280 -0.0230 -0.0064  0.0009  0.0006
                                            0.0024 -0.0005  0.0016  0.0019 -0.0005
                                           -0.0022  0.0000 -0.0014
     3. (1.99971) CR ( 1) O   1           s(100.00%)p 0.00(  0.00%)
                                            1.0000 -0.0004  0.0000  0.0000  0.0000
                                           -0.0000 -0.0000  0.0000  0.0000 -0.0002
                                            0.0000  0.0000  0.0000 -0.0001 -0.0000
                                            0.0000  0.0000  0.0000 -0.0000 -0.0000
                                           -0.0000 -0.0000  0.0000 -0.0000 -0.0000
                                           -0.0000  0.0000  0.0000 -0.0000  0.0000
                                           -0.0000 -0.0000  0.0000 -0.0000 -0.0000
                                           -0.0000  0.0000 -0.0000 -0.0000 -0.0000
                                           -0.0000  0.0000 -0.0000 -0.0000  0.0000
                                           -0.0000
     4. (2.00002) CR ( 1)Br   2           s(100.00%)
                                            1.0000 -0.0000  0.0000  0.0000  0.0000
                                            0.0000  0.0000 -0.0000 -0.0000  0.0000
                                           -0.0000  0.0000  0.0000 -0.0000  0.0000
                                            0.0000 -0.0000  0.0000  0.0000 -0.0000
                                            0.0000  0.0000 -0.0000  0.0000 -0.0000
                                            0.0000 -0.0000  0.0000 -0.0000 -0.0000
                                           -0.0000 -0.0000  0.0000 -0.0000  0.0000
                                           -0.0000 -0.0000  0.0000 -0.0000  0.0000
                                            0.0000 -0.0000 -0.0000 -0.0000  0.0000
                                           -0.0000 -0.0000  0.0000  0.0000 -0.0000
                                           -0.0000 -0.0000 -0.0000  0.0000  0.0000
     5. (2.00001) CR ( 2)Br   2           s(  0.00%)p 1.00(100.00%)
                                            0.0000 -0.0000 -0.0000 -0.0000  0.0000
                                           -0.0000  1.0000  0.0001  0.0000 -0.0000
                                            0.0000  0.0000  0.0000  0.0000 -0.0000
                                           -0.0000  0.0000 -0.0000 -0.0000  0.0000
                                           -0.0000 -0.0000 -0.0000 -0.0000  0.0000
                                           -0.0000  0.0000 -0.0000  0.0000 -0.0000
                                            0.0000 -0.0000  0.0000  0.0000 -0.0000
                                            0.0000  0.0000 -0.0000  0.0000  0.0000
                                           -0.0000  0.0000  0.0000  0.0000 -0.0000
                                            0.0000  0.0000 -0.0000 -0.0000 -0.0000
                                            0.0000  0.0000  0.0000 -0.0000 -0.0000
     6. (2.00002) CR ( 3)Br   2           s(  0.00%)p 1.00(100.00%)
                                            0.0000  0.0000 -0.0000  0.0000 -0.0000
                                            0.0000  0.0000 -0.0000  0.0000  0.0000
                                           -0.0000  1.0000 -0.0000  0.0000 -0.0000
                                            0.0000 -0.0000 -0.0000  0.0000 -0.0000
                                           -0.0000 -0.0000  0.0000 -0.0000  0.0000
                                           -0.0000 -0.0000 -0.0000  0.0000  0.0000
                                           -0.0000  0.0000 -0.0000 -0.0000 -0.0000
                                            0.0000 -0.0000  0.0000 -0.0000  0.0000
                                           -0.0000 -0.0000  0.0000  0.0000  0.0000
                                            0.0000  0.0000 -0.0000 -0.0000  0.0000
                                            0.0000  0.0000  0.0000 -0.0000 -0.0000
     7. (2.00002) CR ( 4)Br   2           s(  0.00%)p 1.00(100.00%)
                                           -0.0000  0.0000  0.0000 -0.0000  0.0000
                                           -0.0000  0.0000 -0.0000  0.0000  0.0000
                                           -0.0000 -0.0000 -0.0000 -0.0000  0.0000
                                            0.0000  1.0000 -0.0000  0.0000 -0.0000
                                            0.0000  0.0000 -0.0000  0.0000 -0.0000
                                            0.0000 -0.0000  0.0000 -0.0000 -0.0000
                                           -0.0000  0.0000 -0.0000 -0.0000  0.0000
                                           -0.0000 -0.0000  0.0000 -0.0000  0.0000
                                           -0.0000 -0.0000 -0.0000  0.0000  0.0000
                                           -0.0000 -0.0000  0.0000  0.0000  0.0000
                                            0.0000 -0.0000 -0.0000  0.0000  0.0000
     8. (1.99770) CR ( 5)Br   2           s(  0.00%)p 0.00(  0.00%)d 1.00(100.00%)
                                            0.0000 -0.0000 -0.0000  0.0000 -0.0000
                                           -0.0000 -0.0000  0.0000  0.0000 -0.0000
                                            0.0000 -0.0000 -0.0000  0.0000 -0.0000
                                           -0.0000  0.0000 -0.0000 -0.0000  0.0000
                                           -0.0000  1.0000  0.0000 -0.0000  0.0000
                                           -0.0000  0.0000 -0.0000  0.0000  0.0000
                                           -0.0000  0.0000 -0.0000  0.0000 -0.0000
                                            0.0000 -0.0000 -0.0000  0.0000 -0.0000
                                           -0.0000  0.0000  0.0000 -0.0000 -0.0000
                                            0.0000  0.0000 -0.0000 -0.0000  0.0000
                                            0.0000  0.0000  0.0000 -0.0000 -0.0000
     9. (1.99770) CR ( 6)Br   2           s(  0.00%)p 0.00(  0.00%)d 1.00(100.00%)
                                            0.0000 -0.0000 -0.0000 -0.0000  0.0000
                                           -0.0000 -0.0000  0.0000  0.0000 -0.0000
                                            0.0000 -0.0000 -0.0000  0.0000 -0.0000
                                           -0.0000  0.0000 -0.0000 -0.0000  0.0000
                                           -0.0000 -0.0000  0.0000 -0.0000  0.0000
                                            1.0000  0.0000 -0.0000  0.0000  0.0000
                                            0.0000  0.0000 -0.0000  0.0000 -0.0000
                                            0.0000  0.0000 -0.0000  0.0000  0.0000
                                           -0.0000  0.0000  0.0000  0.0000 -0.0000
                                            0.0000  0.0000 -0.0000 -0.0000  0.0000
                                            0.0000  0.0000  0.0000 -0.0000 -0.0000
    10. (1.99771) CR ( 7)Br   2           s(  0.00%)p 0.00(  0.00%)d 1.00(100.00%)
                                           -0.0000 -0.0000  0.0000 -0.0000  0.0000
                                           -0.0000 -0.0000 -0.0000 -0.0000 -0.0000
                                            0.0000  0.0000  0.0000 -0.0000  0.0000
                                            0.0000 -0.0000 -0.0000  0.0000 -0.0000
                                            0.0000  0.0000 -0.0000  0.0000 -0.0000
                                            0.0000 -0.0000  0.0000 -0.0000  1.0000
                                            0.0000 -0.0000  0.0000 -0.0000  0.0000
                                           -0.0000  0.0000  0.0000 -0.0000 -0.0000
                                            0.0000 -0.0000 -0.0000  0.0000  0.0000
                                           -0.0000 -0.0000  0.0000  0.0000 -0.0000
                                           -0.0000 -0.0000 -0.0000  0.0000  0.0000
    11. (1.99769) CR ( 8)Br   2           s(  0.00%)p 0.00(  0.00%)d 1.00(100.00%)
                                           -0.0000  0.0000  0.0000  0.0000  0.0000
                                            0.0000  0.0000 -0.0000 -0.0000  0.0000
                                           -0.0000 -0.0000 -0.0000 -0.0000  0.0000
                                            0.0000 -0.0000  0.0000  0.0000 -0.0000
                                            0.0000  0.0000 -0.0000  0.0000 -0.0000
                                            0.0000 -0.0000  0.0000 -0.0000 -0.0000
                                           -0.0000  0.0000 -0.0000  1.0000  0.0000
                                           -0.0000 -0.0000  0.0000 -0.0000  0.0000
                                            0.0000 -0.0000 -0.0000  0.0000  0.0000
                                           -0.0000 -0.0000  0.0000  0.0000  0.0000
                                           -0.0000 -0.0000 -0.0000  0.0000  0.0000
    12. (1.99770) CR ( 9)Br   2           s(  0.00%)p 0.00(  0.00%)d 1.00(100.00%)
                                            0.0000 -0.0000 -0.0000  0.0000 -0.0000
                                           -0.0000 -0.0000  0.0000  0.0000 -0.0000
                                            0.0000  0.0000  0.0000  0.0000 -0.0000
                                           -0.0000  0.0000  0.0000 -0.0000  0.0000
                                           -0.0000 -0.0000  0.0000 -0.0000  0.0000
                                           -0.0000  0.0000 -0.0000  0.0000  0.0000
                                            0.0000 -0.0000  0.0000  0.0000 -0.0000
                                            0.0000  0.0000  1.0000  0.0000 -0.0000
                                            0.0000  0.0000  0.0000 -0.0000 -0.0000
                                            0.0000  0.0000 -0.0000 -0.0000 -0.0000
                                           -0.0000  0.0000  0.0000 -0.0000 -0.0000
    13. (2.00000) CR ( 1)Cl   3           s(100.00%)
                                            1.0000  0.0000  0.0000 -0.0000 -0.0000
                                           -0.0000  0.0000  0.0000 -0.0000 -0.0000
                                            0.0000 -0.0000 -0.0000  0.0000  0.0000
                                           -0.0000  0.0000  0.0000 -0.0000 -0.0000
                                            0.0000 -0.0000  0.0000  0.0000  0.0000
                                            0.0000 -0.0000 -0.0000 -0.0000 -0.0000
                                           -0.0000  0.0000  0.0000 -0.0000  0.0000
                                           -0.0000 -0.0000  0.0000 -0.0000  0.0000
                                            0.0000 -0.0000 -0.0000 -0.0000 -0.0000
                                            0.0000 -0.0000  0.0000  0.0000 -0.0000
    14. (1.99982) CR ( 2)Cl   3           s(100.00%)p 0.00(  0.00%)
                                            0.0000  1.0000 -0.0004  0.0000  0.0000
                                            0.0000 -0.0000 -0.0001  0.0000  0.0000
                                           -0.0000  0.0000  0.0004 -0.0000 -0.0000
                                            0.0000 -0.0000 -0.0000  0.0000  0.0000
                                           -0.0000  0.0000 -0.0000 -0.0000 -0.0000
                                           -0.0000  0.0000  0.0000  0.0000  0.0000
                                            0.0000 -0.0000 -0.0000  0.0000 -0.0000
                                            0.0000  0.0000 -0.0000  0.0000 -0.0000
                                           -0.0000  0.0000 -0.0000  0.0000  0.0000
                                           -0.0000  0.0000 -0.0000 -0.0000  0.0000
    15. (2.00003) CR ( 3)Cl   3           s(  0.00%)p 1.00(100.00%)
                                            0.0000 -0.0000 -0.0000  0.0000  0.0000
                                            0.0000  1.0000  0.0001  0.0000  0.0000
                                           -0.0000  0.0000  0.0001 -0.0000 -0.0000
                                            0.0000 -0.0000  0.0000  0.0000  0.0000
                                           -0.0000  0.0000  0.0000  0.0000 -0.0000
                                            0.0000  0.0000  0.0000 -0.0000  0.0000
                                            0.0000 -0.0000 -0.0000  0.0000  0.0000
                                            0.0000 -0.0000  0.0000  0.0000 -0.0000
                                           -0.0000  0.0000  0.0000 -0.0000  0.0000
                                           -0.0000  0.0000 -0.0000 -0.0000  0.0000
    16. (1.99997) CR ( 4)Cl   3           s(  0.00%)p 1.00(100.00%)
                                           -0.0000  0.0000  0.0001 -0.0000 -0.0000
                                           -0.0000  0.0000  0.0001 -0.0000 -0.0000
                                            0.0000  1.0000 -0.0003  0.0000  0.0000
                                           -0.0000  0.0000  0.0000 -0.0000 -0.0000
                                            0.0000 -0.0000  0.0000  0.0000  0.0000
                                            0.0000 -0.0000 -0.0000 -0.0000 -0.0000
                                           -0.0000  0.0000 -0.0000 -0.0000  0.0000
                                           -0.0000 -0.0000  0.0000 -0.0000  0.0000
                                            0.0000 -0.0000  0.0000 -0.0000 -0.0000
                                            0.0000 -0.0000  0.0000  0.0000 -0.0000
    17. (2.00003) CR ( 5)Cl   3           s(  0.00%)p 1.00(100.00%)
                                            0.0000 -0.0000 -0.0000  0.0000  0.0000
                                           -0.0000 -0.0000  0.0000  0.0000 -0.0000
                                            0.0000  0.0000  0.0000 -0.0000  0.0000
                                           -0.0000  1.0000  0.0002  0.0000  0.0000
                                           -0.0000 -0.0000 -0.0000 -0.0000 -0.0000
                                           -0.0000 -0.0000 -0.0000  0.0000  0.0000
                                            0.0000 -0.0000 -0.0000  0.0000  0.0000
                                           -0.0000 -0.0000 -0.0000  0.0000 -0.0000
                                           -0.0000  0.0000 -0.0000  0.0000 -0.0000
                                            0.0000  0.0000  0.0000 -0.0000 -0.0000
    18. (1.96920) LP ( 1) O   1           s( 67.10%)p 0.49( 32.81%)d 0.00(  0.09%)
                                                  f 0.00(  0.00%)
                                            0.0002  0.8191  0.0104  0.0056 -0.0005
                                           -0.2389 -0.0054 -0.0029 -0.0028 -0.3285
                                           -0.0037 -0.0050 -0.0023 -0.4036 -0.0055
                                           -0.0043 -0.0017 -0.0133 -0.0004  0.0034
                                           -0.0077  0.0006  0.0011 -0.0239 -0.0027
                                            0.0017  0.0036  0.0005  0.0012 -0.0084
                                           -0.0007  0.0011  0.0022 -0.0005 -0.0009
                                           -0.0003 -0.0027  0.0014  0.0030 -0.0013
                                           -0.0015  0.0006  0.0032 -0.0015  0.0003
                                            0.0004
    19. (1.95326) LP ( 2) O   1           s(  0.03%)p99.99( 99.71%)d 7.45(  0.24%)
                                                  f 0.49(  0.02%)
                                           -0.0000 -0.0074  0.0150  0.0062 -0.0013
                                           -0.7664 -0.0145 -0.0043 -0.0026 -0.2052
                                           -0.0064 -0.0016 -0.0027  0.6060  0.0141
                                            0.0048  0.0037 -0.0280 -0.0020  0.0037
                                           -0.0207 -0.0036 -0.0015  0.0157  0.0026
                                           -0.0006  0.0036  0.0047  0.0050  0.0281
                                           -0.0009 -0.0062  0.0016  0.0004  0.0042
                                           -0.0003  0.0005 -0.0006 -0.0079  0.0007
                                           -0.0036  0.0002  0.0055 -0.0021  0.0049
                                           -0.0006
    20. (1.98101) LP ( 1)Br   2           s( 99.26%)p 0.01(  0.74%)d 0.00(  0.00%)
                                                  f 0.00(  0.00%)
                                            0.0000  0.9963 -0.0001 -0.0000 -0.0001
                                           -0.0000  0.0000  0.0810 -0.0008  0.0003
                                           -0.0003 -0.0000 -0.0010  0.0000  0.0000
                                           -0.0000 -0.0000 -0.0295  0.0007 -0.0001
                                            0.0003 -0.0000 -0.0001  0.0001 -0.0001
                                            0.0000 -0.0014  0.0006 -0.0000  0.0000
                                           -0.0000  0.0000 -0.0000 -0.0000  0.0013
                                           -0.0006  0.0002  0.0000 -0.0006  0.0003
                                           -0.0001 -0.0004 -0.0003  0.0002  0.0001
                                           -0.0000 -0.0000  0.0006  0.0005  0.0000
                                            0.0000 -0.0004 -0.0003  0.0001  0.0001
    21. (1.95361) LP ( 2)Br   2           s(  0.00%)p 1.00( 99.99%)d 0.00(  0.01%)
                                                  f 0.00(  0.00%)
                                           -0.0000  0.0041  0.0001 -0.0004  0.0012
                                           -0.0000 -0.0000 -0.0904  0.0001 -0.0001
                                            0.0000  0.0000  0.9855 -0.0003  0.0006
                                            0.0000 -0.0000 -0.1435  0.0003 -0.0001
                                            0.0002  0.0000 -0.0061  0.0020 -0.0004
                                            0.0000  0.0001  0.0003 -0.0004 -0.0000
                                            0.0039 -0.0019  0.0018 -0.0000  0.0010
                                           -0.0005  0.0005  0.0000 -0.0008  0.0003
                                           -0.0002 -0.0001 -0.0002  0.0003  0.0002
                                           -0.0000 -0.0000  0.0002  0.0003 -0.0017
                                           -0.0013 -0.0001 -0.0001  0.0015  0.0012
    22. (1.95269) LP ( 3)Br   2           s(  0.01%)p 1.00( 99.99%)d 0.00(  0.00%)
                                                  f 0.00(  0.00%)
                                            0.0000  0.0066 -0.0001 -0.0019  0.0033
                                           -0.0001 -0.0000 -0.4096  0.0018 -0.0001
                                           -0.0001 -0.0000 -0.1682  0.0002 -0.0000
                                            0.0001 -0.0000 -0.8965  0.0013 -0.0004
                                            0.0006 -0.0000  0.0008 -0.0002 -0.0002
                                           -0.0000  0.0021  0.0003 -0.0014  0.0000
                                           -0.0008  0.0003 -0.0004 -0.0000  0.0003
                                           -0.0001 -0.0006  0.0000 -0.0043  0.0021
                                           -0.0016 -0.0004 -0.0005  0.0020  0.0015
                                            0.0000 -0.0000  0.0000  0.0004  0.0004
                                            0.0004 -0.0003 -0.0001 -0.0002 -0.0000
    23. (1.93016) LP ( 4)Br   2           s(  0.74%)p99.99( 99.23%)d 0.04(  0.03%)
                                                  f 0.00(  0.00%)
                                           -0.0000  0.0858  0.0012  0.0003  0.0005
                                            0.0001  0.0001 -0.9040 -0.0009  0.0010
                                           -0.0002 -0.0000 -0.0224 -0.0003  0.0000
                                            0.0005 -0.0000  0.4179  0.0038 -0.0004
                                            0.0008  0.0000  0.0000  0.0003 -0.0005
                                            0.0000 -0.0141  0.0041 -0.0019 -0.0000
                                           -0.0002  0.0000  0.0000 -0.0000  0.0080
                                           -0.0016 -0.0007  0.0000 -0.0014  0.0002
                                            0.0005 -0.0021 -0.0016 -0.0001  0.0003
                                           -0.0000 -0.0001  0.0030  0.0022  0.0000
                                           -0.0001 -0.0016 -0.0011  0.0001  0.0004
    24. (1.97463) LP ( 1)Cl   3           s( 91.86%)p 0.09(  8.11%)d 0.00(  0.02%)
                                                  f 0.00(  0.00%)
                                            0.0000  0.0003  0.9584  0.0073  0.0012
                                            0.0003 -0.0000 -0.0621 -0.0006  0.0002
                                            0.0002  0.0000  0.2767 -0.0065 -0.0027
                                            0.0010  0.0000  0.0253  0.0009  0.0001
                                            0.0002  0.0047 -0.0003  0.0002  0.0008
                                            0.0001 -0.0003  0.0005  0.0005  0.0006
                                            0.0107 -0.0005  0.0001  0.0087  0.0008
                                            0.0002 -0.0003  0.0001  0.0008 -0.0001
                                           -0.0024 -0.0002 -0.0000 -0.0001 -0.0006
                                            0.0003  0.0017  0.0004 -0.0026 -0.0001
    25. (1.95617) LP ( 2)Cl   3           s(  0.03%)p99.99( 99.91%)d 1.92(  0.05%)
                                                  f 0.33(  0.01%)
                                            0.0000  0.0000  0.0132 -0.0089 -0.0041
                                            0.0019 -0.0001  0.7243  0.0098  0.0030
                                           -0.0005 -0.0000  0.1782  0.0025 -0.0003
                                            0.0011  0.0001 -0.6652 -0.0104 -0.0029
                                            0.0013  0.0027  0.0104  0.0049  0.0065
                                            0.0076  0.0028 -0.0022 -0.0101 -0.0055
                                           -0.0058 -0.0089 -0.0049  0.0003  0.0016
                                            0.0003  0.0023  0.0005 -0.0016 -0.0000
                                            0.0001 -0.0003  0.0053 -0.0017  0.0020
                                           -0.0002 -0.0046  0.0008 -0.0049  0.0012
    26. (1.95497) LP ( 3)Cl   3           s(  0.05%)p99.99( 99.90%)d 0.79(  0.04%)
                                                  f 0.18(  0.01%)
                                            0.0000  0.0000  0.0219  0.0034  0.0030
                                           -0.0013  0.0001 -0.6475 -0.0085 -0.0009
                                            0.0003  0.0000 -0.1535 -0.0021 -0.0007
                                           -0.0007  0.0001 -0.7457 -0.0118 -0.0017
                                            0.0004  0.0049 -0.0067 -0.0036  0.0007
                                            0.0053  0.0029  0.0036 -0.0094 -0.0057
                                            0.0056  0.0084  0.0047 -0.0034 -0.0032
                                           -0.0001  0.0040 -0.0002 -0.0002  0.0009
                                            0.0011 -0.0000  0.0044 -0.0004  0.0032
                                           -0.0006  0.0044 -0.0009  0.0046 -0.0006
    27. (0.01953) RY*( 1) O   1           s(  0.23%)p99.99( 97.83%)d 8.07(  1.89%)
                                                  f 0.23(  0.05%)
                                           -0.0000 -0.0010  0.0480  0.0056  0.0006
                                            0.0207 -0.7632  0.0307  0.0078  0.0092
                                           -0.2060  0.0070 -0.0053 -0.0171  0.5925
                                           -0.0217 -0.0004 -0.0814 -0.0184 -0.0018
                                           -0.0533 -0.0127 -0.0056  0.0426  0.0153
                                            0.0049  0.0013  0.0082  0.0061  0.0813
                                            0.0043 -0.0067 -0.0021  0.0015  0.0043
                                           -0.0051  0.0032 -0.0016 -0.0089  0.0075
                                           -0.0049  0.0031  0.0125 -0.0089  0.0061
                                           -0.0060
    28. (0.01496) RY*( 2) O   1           s( 29.06%)p 2.30( 66.97%)d 0.13(  3.65%)
                                                  f 0.01(  0.32%)
                                           -0.0000  0.0007  0.5346 -0.0690 -0.0017
                                            0.0022 -0.2961  0.0075  0.0176  0.0435
                                           -0.4809 -0.0024  0.0350  0.0075 -0.5888
                                            0.0094  0.0201 -0.0707 -0.0138 -0.0058
                                           -0.0211 -0.0026  0.0069 -0.1625 -0.0262
                                           -0.0082  0.0569  0.0002 -0.0032 -0.0195
                                           -0.0019  0.0012  0.0158 -0.0103  0.0219
                                           -0.0092 -0.0224  0.0106  0.0260 -0.0117
                                           -0.0069  0.0047  0.0236 -0.0116 -0.0092
                                            0.0027
    29. (0.00768) RY*( 3) O   1           s( 13.04%)p 0.41(  5.30%)d 6.13( 79.99%)
                                                  f 0.13(  1.67%)
                                            0.0000  0.0129  0.3581 -0.0438  0.0079
                                            0.0071  0.1465 -0.0061  0.0517 -0.0168
                                           -0.1118  0.0019  0.0299 -0.0048  0.1207
                                           -0.0105  0.0203  0.5595 -0.0137 -0.0053
                                           -0.3314  0.0034 -0.0144  0.4410  0.0051
                                            0.0039 -0.4079 -0.0063 -0.0199  0.1236
                                           -0.0043  0.0001 -0.0109  0.0012 -0.0253
                                            0.0037  0.0203 -0.0052 -0.0795  0.0324
                                            0.0225 -0.0094 -0.0684  0.0232 -0.0429
                                            0.0215
    30. (0.00713) RY*( 4) O   1           s(  1.57%)p 0.38(  0.59%)d61.28( 96.10%)
                                                  f 1.11(  1.74%)
                                           -0.0000  0.0074  0.1248 -0.0064 -0.0046
                                            0.0168  0.0684  0.0110 -0.0049  0.0003
                                           -0.0152  0.0070  0.0109 -0.0079  0.0030
                                           -0.0087  0.0162 -0.3366  0.0268  0.0006
                                           -0.1876  0.0114 -0.0021  0.6878 -0.0344
                                           -0.0007  0.4667 -0.0258  0.0069 -0.3440
                                            0.0198 -0.0097 -0.0794  0.0326 -0.0121
                                            0.0051  0.0235 -0.0091 -0.0460  0.0175
[...]
                                            0.1463 -0.2669 -0.0970  0.2718  0.0236
                                            0.1949  0.0468 -0.0337  0.0480  0.1001
                                            0.0646 -0.1475  0.1095
   157. (0.00033) RY*( 7) H   4           s(  1.38%)p53.73( 74.18%)d17.70( 24.44%)
                                            0.0078  0.0352  0.0171  0.1105 -0.0446
                                            0.1459 -0.4959  0.0375  0.6186 -0.0364
                                           -0.1336  0.2329 -0.1227  0.1549 -0.1140
                                           -0.1200  0.1861 -0.0964 -0.1282  0.2675
                                            0.1542 -0.1931 -0.0081
   158. (0.00027) RY*( 8) H   4           s( 26.44%)p 0.80( 21.04%)d 1.99( 52.52%)
                                            0.0043 -0.0321  0.4903 -0.1515 -0.0219
                                            0.3695  0.0443  0.0038  0.1836 -0.0500
                                            0.0312 -0.0177 -0.1840 -0.5066 -0.0404
                                           -0.0275  0.0689  0.4084 -0.0896 -0.2623
                                           -0.0650 -0.0686  0.0945
   159. (0.00023) RY*( 9) H   4           s(  8.33%)p 1.47( 12.28%)d 9.53( 79.39%)
                                           -0.0007  0.0555 -0.1822  0.2169 -0.0692
                                            0.0332 -0.0947  0.0813 -0.2116  0.0366
                                           -0.0117 -0.1106  0.2071 -0.4395  0.0710
                                           -0.4165 -0.0012  0.2748  0.1051  0.5720
                                           -0.0187 -0.0900 -0.0008
   160. (0.00020) RY*(10) H   4           s( 15.74%)p 2.19( 34.52%)d 3.16( 49.74%)
                                            0.0141  0.0360 -0.0775  0.3872 -0.0608
                                            0.4160  0.2770 -0.0969  0.0212 -0.1539
                                            0.0194  0.1756  0.1642  0.2878  0.0287
                                           -0.5381 -0.0322 -0.0212  0.0070 -0.3266
                                           -0.1250 -0.0180  0.0055
   161. (0.00017) RY*(11) H   4           s( 18.94%)p 2.38( 45.07%)d 1.90( 35.98%)
                                           -0.0127 -0.0737  0.4116  0.1202 -0.1313
                                           -0.0759  0.2633 -0.0243  0.1977  0.0513
                                           -0.0011 -0.5502 -0.1156  0.2315  0.0106
                                           -0.1060 -0.1413 -0.1945 -0.0547  0.3191
                                           -0.1989 -0.0693  0.2965
   162. (0.00015) RY*(12) H   4           s( 13.29%)p 4.64( 61.63%)d 1.89( 25.09%)
                                           -0.0118 -0.0106  0.2736  0.2404  0.0252
                                           -0.2743 -0.3491 -0.0378 -0.0229 -0.3283
                                           -0.1109 -0.3844  0.3856  0.0511  0.0892
                                            0.0119  0.0809  0.1189  0.0600 -0.2966
                                            0.0874 -0.1766 -0.2985
   163. (0.00013) RY*(13) H   4           s( 29.19%)p 1.28( 37.44%)d 1.14( 33.37%)
                                           -0.0087 -0.0681 -0.3421  0.4125 -0.0180
                                           -0.1856 -0.0037 -0.0178 -0.0519 -0.2714
                                           -0.0317 -0.1117 -0.4995 -0.0311  0.0158
                                            0.1594  0.3496  0.2173 -0.0125 -0.1180
                                           -0.1782 -0.0626  0.2964
   164. (0.00011) RY*(14) H   4           s(  0.56%)p31.60( 17.67%)d99.99( 81.77%)
                                            0.0076  0.0713 -0.0170  0.0128  0.0445
                                           -0.0755  0.0878 -0.0283 -0.0878  0.2500
                                           -0.1254  0.1972  0.1890  0.0824 -0.1977
                                            0.1980 -0.0871  0.1459 -0.1309 -0.0124
                                           -0.3795 -0.7353  0.0418
   165. (0.00009) RY*(15) H   4           s(  3.07%)p14.05( 43.14%)d17.51( 53.79%)
   166. (0.00007) RY*(16) H   4           s(  0.27%)p38.93( 10.53%)d99.99( 89.19%)
   167. (0.00007) RY*(17) H   4           s(  0.83%)p 2.65(  2.22%)d99.99( 96.95%)
   168. (0.00004) RY*(18) H   4           s( 26.25%)p 0.98( 25.66%)d 1.83( 48.10%)
   169. (0.00005) RY*(19) H   4           s(  9.13%)p 1.12( 10.24%)d 8.84( 80.64%)
   170. (0.00004) RY*(20) H   4           s(  4.25%)p 4.95( 21.06%)d17.55( 74.68%)
   171. (0.00004) RY*(21) H   4           s(  0.19%)p99.99( 26.25%)d99.99( 73.55%)
   172. (0.00003) RY*(22) H   4           s( 14.27%)p 1.91( 27.33%)d 4.09( 58.39%)
   173. (0.05842) BD*( 1) O   1 -Cl   3  
                ( 40.71%)   0.6380* O   1 s(  9.92%)p 9.02( 89.49%)d 0.06(  0.57%)
                                                  f 0.00(  0.02%)
                                           -0.0003 -0.3120  0.0413  0.0117  0.0021
                                            0.2320 -0.0224 -0.0052 -0.0021 -0.9161
                                            0.0155  0.0074  0.0086 -0.0221 -0.0225
                                           -0.0041  0.0007  0.0177  0.0023  0.0022
                                           -0.0080 -0.0008  0.0011 -0.0259 -0.0035
                                            0.0005  0.0601  0.0046 -0.0002  0.0314
                                            0.0024  0.0006  0.0003 -0.0006 -0.0011
                                           -0.0008  0.0053  0.0003  0.0038 -0.0020
                                           -0.0055  0.0009 -0.0063 -0.0006  0.0080
                                           -0.0012
                ( 59.29%)  -0.7700*Cl   3 s(  8.40%)p10.75( 90.30%)d 0.14(  1.19%)
                                                  f 0.01(  0.11%)
                                            0.0000 -0.0005 -0.2830  0.0616  0.0099
                                            0.0030 -0.0001 -0.2231  0.0142  0.0038
                                           -0.0008  0.0004  0.9211 -0.0668 -0.0126
                                            0.0028 -0.0000 -0.0033  0.0005  0.0026
                                           -0.0014  0.0453 -0.0058 -0.0002 -0.0084
                                           -0.0008  0.0008  0.0128  0.0017  0.0010
                                            0.0818 -0.0094 -0.0005  0.0523 -0.0060
                                            0.0005  0.0008 -0.0002  0.0043 -0.0004
                                           -0.0189  0.0020 -0.0001  0.0006  0.0021
                                           -0.0014  0.0176 -0.0028 -0.0200  0.0025
   174. (0.03851) BD*( 1) O   1 - H   4  
                ( 23.33%)   0.4830* O   1 s( 23.09%)p 3.31( 76.35%)d 0.02(  0.55%)
                                                  f 0.00(  0.01%)
                                           -0.0002 -0.4804  0.0030  0.0062 -0.0020
                                           -0.5446  0.0137  0.0056  0.0004  0.0401
                                           -0.0146 -0.0012 -0.0015 -0.6817  0.0092
                                            0.0068  0.0033 -0.0158 -0.0033 -0.0011
                                           -0.0572 -0.0025  0.0006 -0.0222 -0.0040
                                           -0.0003 -0.0149 -0.0009 -0.0019 -0.0347
                                           -0.0039 -0.0021  0.0044 -0.0011 -0.0085
                                           -0.0010 -0.0020  0.0010 -0.0017 -0.0025
                                            0.0005  0.0007  0.0031 -0.0018  0.0017
                                           -0.0002
                ( 76.67%)  -0.8756* H   4 s( 99.81%)p 0.00(  0.19%)d 0.00(  0.00%)
                                           -0.9990 -0.0133 -0.0005  0.0003  0.0030
                                            0.0194  0.0044 -0.0092 -0.0021  0.0042
                                           -0.0280  0.0230  0.0064 -0.0009 -0.0006
                                           -0.0024  0.0005 -0.0016 -0.0019  0.0005
                                            0.0022 -0.0000  0.0014


 NHO Directionality and "Bond Bending" (deviations from line of nuclear centers)

         [Thresholds for printing:  angular deviation  >  1.0 degree]
                                    hybrid p-character > 25.0%
                                    orbital occupancy  >  0.10e

                                Line of Centers        Hybrid 1              Hybrid 2
                                ---------------  -------------------   ------------------
                NBO               Theta   Phi    Theta   Phi    Dev    Theta   Phi    Dev
 ========================================================================================
     1. BD (   1) O   1 -Cl   3    90.0  103.5    87.0  102.9   3.1      --     --    --
     2. BD (   1) O   1 - H   4    40.0    0.0    38.4  357.5   2.2      --     --    --
    18. LP (   1) O   1             --     --    134.5  233.6   --       --     --    --
    19. LP (   2) O   1             --     --     52.4  195.3   --       --     --    --
    21. LP (   2)Br   2             --     --     98.2   95.2   --       --     --    --
    22. LP (   3)Br   2             --     --    153.8  202.4   --       --     --    --
    23. LP (   4)Br   2             --     --     65.0  181.4   --       --     --    --
    25. LP (   2)Cl   3             --     --    131.8   13.9   --       --     --    --
    26. LP (   3)Cl   3             --     --    138.3  193.4   --       --     --    --


 Natural Bond Orbitals (Summary):

           NBO                  Occupancy  
 -----------------------------------------------
 Molecular unit  1  (HOCl)
     1. BD (   1) O   1 -Cl   3          1.94017
     2. BD (   1) O   1 - H   4          1.96374
     3. CR (   1) O   1                  1.99971
    13. CR (   1)Cl   3                  2.00000
    14. CR (   2)Cl   3                  1.99982
    15. CR (   3)Cl   3                  2.00003
    16. CR (   4)Cl   3                  1.99997
    17. CR (   5)Cl   3                  2.00003
    18. LP (   1) O   1                  1.96920
    19. LP (   2) O   1                  1.95326
    24. LP (   1)Cl   3                  1.97463
    25. LP (   2)Cl   3                  1.95617
    26. LP (   3)Cl   3                  1.95497
    27. RY*(   1) O   1                  0.01953
    28. RY*(   2) O   1                  0.01496
    29. RY*(   3) O   1                  0.00768
    30. RY*(   4) O   1                  0.00713
    31. RY*(   5) O   1                  0.00629
    32. RY*(   6) O   1                  0.00620
    33. RY*(   7) O   1                  0.00573
    34. RY*(   8) O   1                  0.00277
    35. RY*(   9) O   1                  0.00241
    36. RY*(  10) O   1                  0.00079
    37. RY*(  11) O   1                  0.00074
    38. RY*(  12) O   1                  0.00065
    39. RY*(  13) O   1                  0.00057
    40. RY*(  14) O   1                  0.00051
    41. RY*(  15) O   1                  0.00050
    42. RY*(  16) O   1                  0.00050
    43. RY*(  17) O   1                  0.00048
    44. RY*(  18) O   1                  0.00047
    45. RY*(  19) O   1                  0.00047
    46. RY*(  20) O   1                  0.00045
    47. RY*(  21) O   1                  0.00043
    48. RY*(  22) O   1                  0.00041
    49. RY*(  23) O   1                  0.00034
    50. RY*(  24) O   1                  0.00031
    51. RY*(  25) O   1                  0.00024
    52. RY*(  26) O   1                  0.00019
    53. RY*(  27) O   1                  0.00015
    54. RY*(  28) O   1                  0.00013
    55. RY*(  29) O   1                  0.00012
    56. RY*(  30) O   1                  0.00011
    57. RY*(  31) O   1                  0.00011
    58. RY*(  32) O   1                  0.00009
    59. RY*(  33) O   1                  0.00009
    60. RY*(  34) O   1                  0.00007
    61. RY*(  35) O   1                  0.00007
    62. RY*(  36) O   1                  0.00007
    63. RY*(  37) O   1                  0.00005
    64. RY*(  38) O   1                  0.00006
    65. RY*(  39) O   1                  0.00004
    66. RY*(  40) O   1                  0.00005
    67. RY*(  41) O   1                  0.00002
   110. RY*(   1)Cl   3                  0.02237
   111. RY*(   2)Cl   3                  0.01754
   112. RY*(   3)Cl   3                  0.01685
   113. RY*(   4)Cl   3                  0.01632
   114. RY*(   5)Cl   3                  0.01170
   115. RY*(   6)Cl   3                  0.00913
   116. RY*(   7)Cl   3                  0.00894
   117. RY*(   8)Cl   3                  0.00626
   118. RY*(   9)Cl   3                  0.00178
   119. RY*(  10)Cl   3                  0.00126
   120. RY*(  11)Cl   3                  0.00127
   121. RY*(  12)Cl   3                  0.00119
   122. RY*(  13)Cl   3                  0.00119
   123. RY*(  14)Cl   3                  0.00116
   124. RY*(  15)Cl   3                  0.00109
   125. RY*(  16)Cl   3                  0.00094
   126. RY*(  17)Cl   3                  0.00077
   127. RY*(  18)Cl   3                  0.00074
   128. RY*(  19)Cl   3                  0.00062
   129. RY*(  20)Cl   3                  0.00055
   130. RY*(  21)Cl   3                  0.00041
   131. RY*(  22)Cl   3                  0.00038
   132. RY*(  23)Cl   3                  0.00031
   133. RY*(  24)Cl   3                  0.00032
   134. RY*(  25)Cl   3                  0.00019
   135. RY*(  26)Cl   3                  0.00016
   136. RY*(  27)Cl   3                  0.00015
   137. RY*(  28)Cl   3                  0.00013
   138. RY*(  29)Cl   3                  0.00012
   139. RY*(  30)Cl   3                  0.00012
   140. RY*(  31)Cl   3                  0.00011
   141. RY*(  32)Cl   3                  0.00010
   142. RY*(  33)Cl   3                  0.00010
   143. RY*(  34)Cl   3                  0.00010
   144. RY*(  35)Cl   3                  0.00010
   145. RY*(  36)Cl   3                  0.00009
   146. RY*(  37)Cl   3                  0.00006
   147. RY*(  38)Cl   3                  0.00007
   148. RY*(  39)Cl   3                  0.00003
   149. RY*(  40)Cl   3                  0.00003
   150. RY*(  41)Cl   3                  0.00001
   151. RY*(   1) H   4                  0.00686
   152. RY*(   2) H   4                  0.00416
   153. RY*(   3) H   4                  0.00246
   154. RY*(   4) H   4                  0.00224
   155. RY*(   5) H   4                  0.00061
   156. RY*(   6) H   4                  0.00044
   157. RY*(   7) H   4                  0.00033
   158. RY*(   8) H   4                  0.00027
   159. RY*(   9) H   4                  0.00023
   160. RY*(  10) H   4                  0.00020
   161. RY*(  11) H   4                  0.00017
   162. RY*(  12) H   4                  0.00015
   163. RY*(  13) H   4                  0.00013
   164. RY*(  14) H   4                  0.00011
   165. RY*(  15) H   4                  0.00009
   166. RY*(  16) H   4                  0.00007
   167. RY*(  17) H   4                  0.00007
   168. RY*(  18) H   4                  0.00004
   169. RY*(  19) H   4                  0.00005
   170. RY*(  20) H   4                  0.00004
   171. RY*(  21) H   4                  0.00004
   172. RY*(  22) H   4                  0.00003
   173. BD*(   1) O   1 -Cl   3          0.05842
   174. BD*(   1) O   1 - H   4          0.03851
       -------------------------------
              Total Lewis   25.71170  ( 98.7613%)
        Valence non-Lewis    0.09693  (  0.3723%)
        Rydberg non-Lewis    0.22555  (  0.8664%)
       -------------------------------
            Total unit  1   26.03418  (100.0000%)
           Charge unit  1   -0.03418

 Molecular unit  2  (Br)
     4. CR (   1)Br   2                  2.00002
     5. CR (   2)Br   2                  2.00001
     6. CR (   3)Br   2                  2.00002
     7. CR (   4)Br   2                  2.00002
     8. CR (   5)Br   2                  1.99770
     9. CR (   6)Br   2                  1.99770
    10. CR (   7)Br   2                  1.99771
    11. CR (   8)Br   2                  1.99769
    12. CR (   9)Br   2                  1.99770
    20. LP (   1)Br   2                  1.98101
    21. LP (   2)Br   2                  1.95361
    22. LP (   3)Br   2                  1.95269
    23. LP (   4)Br   2                  1.93016
    68. RY*(   1)Br   2                  0.01883
    69. RY*(   2)Br   2                  0.01879
    70. RY*(   3)Br   2                  0.01862
    71. RY*(   4)Br   2                  0.01861
    72. RY*(   5)Br   2                  0.01851
    73. RY*(   6)Br   2                  0.01228
    74. RY*(   7)Br   2                  0.01225
    75. RY*(   8)Br   2                  0.01115
    76. RY*(   9)Br   2                  0.00411
    77. RY*(  10)Br   2                  0.00179
    78. RY*(  11)Br   2                  0.00180
    79. RY*(  12)Br   2                  0.00176
    80. RY*(  13)Br   2                  0.00175
    81. RY*(  14)Br   2                  0.00175
    82. RY*(  15)Br   2                  0.00175
    83. RY*(  16)Br   2                  0.00176
    84. RY*(  17)Br   2                  0.00175
    85. RY*(  18)Br   2                  0.00174
    86. RY*(  19)Br   2                  0.00161
    87. RY*(  20)Br   2                  0.00156
    88. RY*(  21)Br   2                  0.00147
    89. RY*(  22)Br   2                  0.00081
    90. RY*(  23)Br   2                  0.00081
    91. RY*(  24)Br   2                  0.00078
    92. RY*(  25)Br   2                  0.00052
    93. RY*(  26)Br   2                  0.00031
    94. RY*(  27)Br   2                  0.00026
    95. RY*(  28)Br   2                  0.00027
    96. RY*(  29)Br   2                  0.00025
    97. RY*(  30)Br   2                  0.00025
    98. RY*(  31)Br   2                  0.00025
    99. RY*(  32)Br   2                  0.00026
   100. RY*(  33)Br   2                  0.00024
   101. RY*(  34)Br   2                  0.00021
   102. RY*(  35)Br   2                  0.00020
   103. RY*(  36)Br   2                  0.00018
   104. RY*(  37)Br   2                  0.00017
   105. RY*(  38)Br   2                  0.00012
   106. RY*(  39)Br   2                  0.00008
   107. RY*(  40)Br   2                  0.00008
   108. RY*(  41)Br   2                  0.00006
   109. RY*(  42)Br   2                  0.00000
       -------------------------------
              Total Lewis   35.80605  ( 99.5558%)
        Valence non-Lewis    0.00000  (  0.0000%)
        Rydberg non-Lewis    0.15977  (  0.4442%)
       -------------------------------
            Total unit  2   35.96582  (100.0000%)
           Charge unit  2   -0.96582
 Leave Link  607 at Thu Sep 30 14:42:12 2021, MaxMem= 16106127360 cpu:              70.7 elap:               2.6
 (Enter /sw/contrib/gaussian/g16/B01/g16/l9999.exe)
 1\1\GINC-N2174\SP\RMP2-FC\Gen\Br1Cl1H1O1(1-)\CGAVINH\30-Sep-2021\0\\#p
  pop=NBO SP NoSymm mp2/gen Pseudo=read density=current\\title\\-1,1\O,
 0,0.,0.,0.\Br,0,3.06793175,0.,0.\Cl,0,-0.391809624,1.638263908,0.\H,0,
 0.62903195,0.,0.74965109\\Version=ES64L-G16RevB.01\HF=-950.506252\MP2=
 -951.2047082\RMSD=7.087e-09\Dipole=-2.2121473,0.8406688,0.308566\Quadr
 upole=-21.2321727,10.2162342,11.0159385,0.3461481,0.1317108,-0.190744\
 PG=C01 [X(Br1Cl1H1O1)]\\@


 SACRED COWS MAKE GREAT HAMBURGERS -- ROBERT REISNER
 Job cpu time:       0 days  0 hours  5 minutes 46.3 seconds.
 Elapsed time:       0 days  0 hours  0 minutes 18.8 seconds.
 File lengths (MBytes):  RWF=     15 Int=      0 D2E=      0 Chk=      8 Scr=      1
 Normal termination of Gaussian 16 at Thu Sep 30 14:42:13 2021.
