title                                                                   
SP        RMP2-FC                                                     Gen                 
Number of atoms                            I                4
Info1-9                                    I   N=           9
         136         123           0           0           0         110
           1           2           1
Full Title                                 C   N=           1
title       
Route                                      C   N=           5
#p pop=NBO SP NoSymm mp2/gen Pseudo=read density=current    
Charge                                     I               -1
Multiplicity                               I                1
Number of electrons                        I               52
Number of alpha electrons                  I               26
Number of beta electrons                   I               26
Number of basis functions                  I              174
Number of independent functions            I              174
Number of point charges in /Mol/           I                0
Number of translation vectors              I                0
Atomic numbers                             I   N=           4
           8          35          17           1
Nuclear charges                            R   N=           4
  8.00000000E+00  2.50000000E+01  1.70000000E+01  1.00000000E+00
Current cartesian coordinates              R   N=          12
  0.00000000E+00  0.00000000E+00  0.00000000E+00  5.79755078E+00  0.00000000E+00
  0.00000000E+00 -7.40412882E-01  3.09587011E+00  0.00000000E+00  1.71358122E+00
  0.00000000E+00  7.99056046E-01
Number of symbols in /Mol/                 I                0
Force Field                                I                0
Atom Types                                 C   N=           4
                                                
Int Atom Types                             I   N=           4
           0           0           0           0
MM charges                                 R   N=           4
  0.00000000E+00  0.00000000E+00  0.00000000E+00  0.00000000E+00
Integer atomic weights                     I   N=           4
          16          79          35           1
Real atomic weights                        R   N=           4
  1.59949146E+01  7.89183361E+01  3.49688527E+01  1.00782504E+00
Atom fragment info                         I   N=           4
           0           0           0           0
Atom residue num                           I   N=           4
           0           0           0           0
Nuclear spins                              I   N=           4
           0           3           3           1
Nuclear ZEff                               R   N=           4
 -5.60000000E+00 -1.43500000E+03 -1.42400000E+01 -1.00000000E+00
Nuclear ZNuc                               R   N=           4
  8.00000000E+00  3.50000000E+01  1.70000000E+01  1.00000000E+00
Nuclear QMom                               R   N=           4
  0.00000000E+00  3.13000000E+01 -8.16500000E+00  0.00000000E+00
Nuclear GFac                               R   N=           4
  0.00000000E+00  2.10639900E+00  8.21874000E-01  2.79284600E+00
MicOpt                                     I   N=           4
          -1          -1          -1          -1
Number of residues                         I                0
Number of secondary structures             I                0
Number of contracted shells                I               56
Number of primitive shells                 I              138
Pure/Cartesian d shells                    I                0
Pure/Cartesian f shells                    I                0
Highest angular momentum                   I                3
Largest degree of contraction              I               11
Shell types                                I   N=          56
           0           0           0           0           0           1
           1           1           1          -2          -2          -2
          -3          -3           0           0           0           0
           0           0           1           1           1           1
           1          -2          -2          -2          -2          -3
          -3           0           0           0           0           0
           0           1           1           1           1           1
          -2          -2          -2          -3          -3           0
           0           0           0           1           1           1
          -2          -2
Number of primitives per shell             I   N=          56
           7           6           1           1           1           3
           1           1           1           1           1           1
           1           1           7           6           1           1
           1           1           8           8           1           1
           1           8           1           1           1           1
           1          11           9           8           1           1
           1           6           6           1           1           1
           1           1           1           1           1           3
           1           1           1           1           1           1
           1           1
Shell to atom map                          I   N=          56
           1           1           1           1           1           1
           1           1           1           1           1           1
           1           1           2           2           2           2
           2           2           2           2           2           2
           2           2           2           2           2           2
           2           3           3           3           3           3
           3           3           3           3           3           3
           3           3           3           3           3           4
           4           4           4           4           4           4
           4           4
Primitive exponents                        R   N=         138
  1.53300000E+04  2.29900000E+03  5.22400000E+02  1.47300000E+02  4.75500000E+01
  1.67600000E+01  6.20700000E+00  5.22400000E+02  1.47300000E+02  4.75500000E+01
  1.67600000E+01  6.20700000E+00  6.88200000E-01  1.75200000E+00  2.38400000E-01
  7.37600000E-02  3.44600000E+01  7.74900000E+00  2.28000000E+00  7.15600000E-01
  2.14000000E-01  5.97400000E-02  2.31400000E+00  6.45000000E-01  2.14000000E-01
  1.42800000E+00  5.00000000E-01  9.65939000E+03  1.45596000E+03  3.25914000E+02
  4.65657000E+01  1.82469000E+01  3.80201000E+00  1.78632000E+00  9.65939000E+03
  3.25914000E+02  4.65657000E+01  1.82469000E+01  3.80201000E+00  1.78632000E+00
  6.02714000E-01  2.84014000E-01  1.20271000E-01  4.45000000E-02  4.92187000E+02
  9.23642000E+01  2.70718000E+01  7.26539000E+00  3.48481000E+00  1.64048000E+00
  6.48570000E-01  9.53040000E-02  4.92187000E+02  2.70718000E+01  7.26539000E+00
  3.48481000E+00  1.64048000E+00  6.48570000E-01  2.56407000E-01  9.53040000E-02
  7.66600000E-01  1.18200000E-01  3.96000000E-02  3.38996000E+02  1.03217000E+02
  4.23638000E+01  1.84356000E+01  8.37254000E+00  3.80222000E+00  1.68677000E+00
  6.77520000E-01  6.77520000E-01  2.55300000E-01  1.00900000E-01  5.60600000E-01
  2.45400000E-01  4.56100000E+05  6.83300000E+04  1.55500000E+04  4.40500000E+03
  1.43900000E+03  5.20400000E+02  2.03100000E+02  8.39600000E+01  3.62000000E+01
  1.58300000E+01  6.33400000E+00  4.40500000E+03  1.43900000E+03  5.20400000E+02
  2.03100000E+02  8.39600000E+01  3.62000000E+01  1.58300000E+01  6.33400000E+00
  2.69400000E+00  1.43900000E+03  2.03100000E+02  8.39600000E+01  3.62000000E+01
  1.58300000E+01  6.33400000E+00  2.69400000E+00  4.31300000E-01  9.76800000E-01
  1.62500000E-01  5.91000000E-02  6.63300000E+02  1.56800000E+02  4.99800000E+01
  1.84200000E+01  7.24000000E+00  2.92200000E+00  1.56800000E+02  4.99800000E+01
  1.84200000E+01  7.24000000E+00  2.92200000E+00  3.81800000E-01  1.02200000E+00
  1.30100000E-01  4.19000000E-02  1.04600000E+00  3.44000000E-01  1.35000000E-01
  7.06000000E-01  3.12000000E-01  3.38700000E+01  5.09500000E+00  1.15900000E+00
  3.25800000E-01  1.02700000E-01  2.52600000E-02  1.40700000E+00  3.88000000E-01
  1.02000000E-01  1.05700000E+00  2.47000000E-01
Contraction coefficients                   R   N=         138
  5.19808943E-04  4.02025621E-03  2.07128267E-02  8.10105536E-02  2.35962985E-01
  4.42653446E-01  3.57064423E-01 -4.42115008E-05 -1.22591041E-03 -1.05517725E-02
 -6.74452633E-02 -1.71198607E-01  1.07329856E+00  1.00000000E+00  1.00000000E+00
  1.00000000E+00  4.11634896E-02  2.57762836E-01  8.02419274E-01  1.00000000E+00
  1.00000000E+00  1.00000000E+00  1.00000000E+00  1.00000000E+00  1.00000000E+00
  1.00000000E+00  1.00000000E+00  3.80701661E-04  2.63868635E-03  8.70555302E-03
  8.03093709E-02 -4.07648708E-01  7.03092632E-01  4.97431509E-01 -2.19689157E-05
 -9.47832571E-04  9.38727693E-03 -1.47428152E-02 -2.77285578E-01 -7.38047787E-01
  1.00000000E+00  1.00000000E+00  1.00000000E+00  1.00000000E+00  4.71881392E-04
  5.49299123E-03 -8.80115226E-02  3.43400525E-01  5.10073044E-01  2.48575707E-01
  2.24628895E-02  8.56099489E-04 -4.13161033E-05  2.99292350E-03 -2.76886294E-02
 -5.33882855E-02 -1.24705505E-02  3.44020817E-01  5.41867327E-01  2.58979876E-01
  1.00000000E+00  1.00000000E+00  1.00000000E+00  1.52399887E-03  1.56729884E-02
  7.23999463E-02  1.86302862E-01  3.23880760E-01  3.74533722E-01  2.57417809E-01
  6.80509495E-02  1.00000000E+00  1.00000000E+00  1.00000000E+00  1.00000000E+00
  1.00000000E+00  4.93229477E-05  3.83207967E-04  2.00947816E-03  8.38950124E-03
  2.94843950E-02  8.78759948E-02  2.11589759E-01  3.65611554E-01  3.41246350E-01
  1.02162570E-01  2.14249949E-03 -2.21747925E-06 -1.71189708E-04 -1.27922846E-03
 -9.32956265E-03 -3.98910062E-02 -1.05536085E-01  9.36202446E-03  5.10511140E-01
  5.73150737E-01  4.03949245E-06  2.12481765E-04  8.59484452E-04  4.63248159E-03
  4.47343490E-04 -7.38438245E-02 -3.62271994E-01  1.16620337E+00  1.00000000E+00
  1.00000000E+00  1.00000000E+00  2.47206402E-03  1.97550234E-02  9.09917355E-02
  2.63187834E-01  4.49078073E-01  3.60183072E-01  3.03427809E-05 -1.22475826E-03
 -6.01429772E-03 -2.76401323E-02  4.35105612E-04  1.00307272E+00  1.00000000E+00
  1.00000000E+00  1.00000000E+00  1.00000000E+00  1.00000000E+00  1.00000000E+00
  1.00000000E+00  1.00000000E+00  2.54948632E-02  1.90362766E-01  8.52162022E-01
  1.00000000E+00  1.00000000E+00  1.00000000E+00  1.00000000E+00  1.00000000E+00
  1.00000000E+00  1.00000000E+00  1.00000000E+00
Coordinates of each shell                  R   N=         168
  0.00000000E+00  0.00000000E+00  0.00000000E+00  0.00000000E+00  0.00000000E+00
  0.00000000E+00  0.00000000E+00  0.00000000E+00  0.00000000E+00  0.00000000E+00
  0.00000000E+00  0.00000000E+00  0.00000000E+00  0.00000000E+00  0.00000000E+00
  0.00000000E+00  0.00000000E+00  0.00000000E+00  0.00000000E+00  0.00000000E+00
  0.00000000E+00  0.00000000E+00  0.00000000E+00  0.00000000E+00  0.00000000E+00
  0.00000000E+00  0.00000000E+00  0.00000000E+00  0.00000000E+00  0.00000000E+00
  0.00000000E+00  0.00000000E+00  0.00000000E+00  0.00000000E+00  0.00000000E+00
  0.00000000E+00  0.00000000E+00  0.00000000E+00  0.00000000E+00  0.00000000E+00
  0.00000000E+00  0.00000000E+00  5.79755078E+00  0.00000000E+00  0.00000000E+00
  5.79755078E+00  0.00000000E+00  0.00000000E+00  5.79755078E+00  0.00000000E+00
  0.00000000E+00  5.79755078E+00  0.00000000E+00  0.00000000E+00  5.79755078E+00
  0.00000000E+00  0.00000000E+00  5.79755078E+00  0.00000000E+00  0.00000000E+00
  5.79755078E+00  0.00000000E+00  0.00000000E+00  5.79755078E+00  0.00000000E+00
  0.00000000E+00  5.79755078E+00  0.00000000E+00  0.00000000E+00  5.79755078E+00
  0.00000000E+00  0.00000000E+00  5.79755078E+00  0.00000000E+00  0.00000000E+00
  5.79755078E+00  0.00000000E+00  0.00000000E+00  5.79755078E+00  0.00000000E+00
  0.00000000E+00  5.79755078E+00  0.00000000E+00  0.00000000E+00  5.79755078E+00
  0.00000000E+00  0.00000000E+00  5.79755078E+00  0.00000000E+00  0.00000000E+00
  5.79755078E+00  0.00000000E+00  0.00000000E+00 -7.40412882E-01  3.09587011E+00
  0.00000000E+00 -7.40412882E-01  3.09587011E+00  0.00000000E+00 -7.40412882E-01
  3.09587011E+00  0.00000000E+00 -7.40412882E-01  3.09587011E+00  0.00000000E+00
 -7.40412882E-01  3.09587011E+00  0.00000000E+00 -7.40412882E-01  3.09587011E+00
  0.00000000E+00 -7.40412882E-01  3.09587011E+00  0.00000000E+00 -7.40412882E-01
  3.09587011E+00  0.00000000E+00 -7.40412882E-01  3.09587011E+00  0.00000000E+00
 -7.40412882E-01  3.09587011E+00  0.00000000E+00 -7.40412882E-01  3.09587011E+00
  0.00000000E+00 -7.40412882E-01  3.09587011E+00  0.00000000E+00 -7.40412882E-01
  3.09587011E+00  0.00000000E+00 -7.40412882E-01  3.09587011E+00  0.00000000E+00
 -7.40412882E-01  3.09587011E+00  0.00000000E+00 -7.40412882E-01  3.09587011E+00
  0.00000000E+00  1.71358122E+00  0.00000000E+00  7.99056046E-01  1.71358122E+00
  0.00000000E+00  7.99056046E-01  1.71358122E+00  0.00000000E+00  7.99056046E-01
  1.71358122E+00  0.00000000E+00  7.99056046E-01  1.71358122E+00  0.00000000E+00
  7.99056046E-01  1.71358122E+00  0.00000000E+00  7.99056046E-01  1.71358122E+00
  0.00000000E+00  7.99056046E-01  1.71358122E+00  0.00000000E+00  7.99056046E-01
  1.71358122E+00  0.00000000E+00  7.99056046E-01
Num ILSW                                   I              100
ILSW                                       I   N=         100
           0           0           0           0           2           0
           0           0           0           0           0          -1
           5           0           0           0           0           0
           0           0           0           0           0           0
           1           1           0           0           0           0
           0           0      100000           0          -1           0
           0           0           0           0           0           0
           0           0           0           1           0           0
           0 -2000000000           1           0           0           0
           0           0           4          52           0           0
           0           0           0           0           0           0
           0           0           0           4           0           1
           0           0           0           0           0           0
           0           0           0           0           0           0
           0           0           0           0           0           0
           0           0           0           0           0           0
           0           0           0           0
Num RLSW                                   I               52
RLSW                                       R   N=          52
  1.00000000E+00  1.00000000E+00  1.00000000E+00  1.00000000E+00  1.00000000E+00
  0.00000000E+00  0.00000000E+00  1.00000000E+00  0.00000000E+00  0.00000000E+00
  0.00000000E+00  0.00000000E+00  1.00000000E+00  0.00000000E+00  0.00000000E+00
  0.00000000E+00  0.00000000E+00  1.00000000E+00  0.00000000E+00  0.00000000E+00
  0.00000000E+00  0.00000000E+00  1.00000000E+00  0.00000000E+00  0.00000000E+00
  0.00000000E+00  0.00000000E+00  1.00000000E+00  0.00000000E+00  0.00000000E+00
  0.00000000E+00  0.00000000E+00  1.00000000E+00  0.00000000E+00  0.00000000E+00
  0.00000000E+00  0.00000000E+00  0.00000000E+00  1.00000000E+00  1.00000000E+00
  0.00000000E+00  1.00000000E+00  0.00000000E+00  0.00000000E+00  0.00000000E+00
  0.00000000E+00  0.00000000E+00  0.00000000E+00  0.00000000E+00  0.00000000E+00
  0.00000000E+00  0.00000000E+00
ECP-MxAtEC                                 I           250000
ECP-MaxLECP                                I               10
ECP-MaxAtL                                 I          2250000
ECP-MxTECP                                 I         11250000
ECP-LenNCZ                                 I               16
ECP-KFirst                                 I   N=          40
           0           1           0           0           0           2
           0           0           0           5           0           0
           0           9           0           0           0          15
           0           0           0           0           0           0
           0           0           0           0           0           0
           0           0           0           0           0           0
           0           0           0           0
ECP-KLast                                  I   N=          40
           0           1           0           0           0           4
           0           0           0           8           0           0
           0          14           0           0           0          16
           0           0           0           0           0           0
           0           0           0           0           0           0
           0           0           0           0           0           0
           0           0           0           0
ECP-LMax                                   I   N=           4
           0           4           0           0
ECP-LPSkip                                 I   N=           4
           1           0           1           1
ECP-RNFroz                                 R   N=           4
  0.00000000E+00  1.00000000E+01  0.00000000E+00  0.00000000E+00
ECP-NLP                                    I   N=          16
           2           2           2           2           2           2
           2           2           2           2           2           2
           2           2           2           2
ECP-CLP1                                   R   N=          16
  0.00000000E+00  4.99628340E+01  3.70014205E+02  1.02414390E+01  9.91122440E+01
  1.98253046E+02  2.82617400E+01  5.66233660E+01 -1.86058530E+01 -2.79232800E+01
 -3.79693000E-01 -7.80583000E-01  3.59680000E-02  9.43970000E-02 -1.09126900E+00
 -2.88769100E+00
ECP-CLP2                                   R   N=          16
  0.00000000E+00  0.00000000E+00  0.00000000E+00  0.00000000E+00  0.00000000E+00
  0.00000000E+00  0.00000000E+00  0.00000000E+00  0.00000000E+00  0.00000000E+00
  0.00000000E+00  0.00000000E+00  0.00000000E+00  0.00000000E+00  0.00000000E+00
  0.00000000E+00
ECP-ZLP                                    R   N=          16
  1.00000000E+00  7.00242570E+01  3.11784120E+01  7.15659300E+00  4.67734710E+01
  4.61841200E+01  2.17138580E+01  2.09417920E+01  5.06988390E+01  5.06447640E+01
  1.54475090E+01  1.55002590E+01  2.80039100E+00  1.07748000E+00  1.44656060E+01
  2.12340650E+01
MxBond                                     I                2
NBond                                      I   N=           4
           2           0           1           1
IBond                                      I   N=           8
           3           4           0           0           1           0
           1           0
RBond                                      R   N=           8
  1.00000000E+00  1.00000000E+00  0.00000000E+00  0.00000000E+00  1.00000000E+00
  0.00000000E+00  1.00000000E+00  0.00000000E+00
Virial Ratio                               R      2.144418424520490E+00
SCF Energy                                 R     -9.505178780201669E+02
MP2 Energy                                 R     -9.512191836245090E+02
Total Energy                               R     -9.512191836245090E+02
Post-SCF wavefunction norm                 R      1.105228738538145E+00
RMS Density                                R      9.991523239527922E-09
Job Status                                 I                1
Nuclear derivative order                   I                0
External E-field                           R   N=          35
  0.00000000E+00  0.00000000E+00  0.00000000E+00  0.00000000E+00  0.00000000E+00
  0.00000000E+00  0.00000000E+00  0.00000000E+00  0.00000000E+00  0.00000000E+00
  0.00000000E+00  0.00000000E+00  0.00000000E+00  0.00000000E+00  0.00000000E+00
  0.00000000E+00  0.00000000E+00  0.00000000E+00  0.00000000E+00  0.00000000E+00
  0.00000000E+00  0.00000000E+00  0.00000000E+00  0.00000000E+00  0.00000000E+00
  0.00000000E+00  0.00000000E+00  0.00000000E+00  0.00000000E+00  0.00000000E+00
  0.00000000E+00  0.00000000E+00  0.00000000E+00  0.00000000E+00  0.00000000E+00
IOpCl                                      I                0
IROHF                                      I                0
Alpha Orbital Energies                     R   N=         174
 -1.04735854E+02 -2.04701296E+01 -1.04554065E+01 -9.55161917E+00 -7.92258477E+00
 -7.91990132E+00 -7.91977691E+00 -7.29956207E+00 -7.29899050E+00 -7.29891411E+00
 -2.85059342E+00 -2.85041991E+00 -2.85032764E+00 -2.84975872E+00 -2.84975583E+00
 -1.23854239E+00 -9.00985393E-01 -7.47933975E-01 -5.47835470E-01 -4.49033890E-01
 -4.40405380E-01 -3.12766787E-01 -2.86111861E-01 -1.75078467E-01 -1.67435777E-01
 -1.66739354E-01  1.53941899E-01  1.79703678E-01  2.22677738E-01  2.30143176E-01
  2.52989138E-01  2.66095651E-01  2.70114899E-01  2.83367306E-01  2.94512035E-01
  3.09329549E-01  3.29942216E-01  3.32233178E-01  3.60943345E-01  4.10844374E-01
  4.39801757E-01  4.56893713E-01  4.82792640E-01  4.87866772E-01  5.11044433E-01
  5.38511068E-01  5.49532444E-01  5.59315664E-01  5.77040570E-01  5.89697731E-01
  5.98743497E-01  6.08531132E-01  6.50817034E-01  6.82768452E-01  7.54949240E-01
  7.80078313E-01  8.10526277E-01  8.37530396E-01  8.44169840E-01  8.70118919E-01
  8.72559500E-01  8.83382272E-01  8.90484179E-01  9.41127314E-01  9.66841933E-01
  9.77920698E-01  9.93570748E-01  9.94653512E-01  1.00058478E+00  1.01149889E+00
  1.04797094E+00  1.06608671E+00  1.08287691E+00  1.09093517E+00  1.11501977E+00
  1.11677834E+00  1.14185948E+00  1.15096465E+00  1.15458886E+00  1.17444192E+00
  1.18673779E+00  1.21608899E+00  1.24661845E+00  1.27571765E+00  1.28934593E+00
  1.34819017E+00  1.36200121E+00  1.37773717E+00  1.41464826E+00  1.46513493E+00
  1.48693503E+00  1.53036825E+00  1.56331409E+00  1.58333644E+00  1.65612885E+00
  1.68765342E+00  1.70958547E+00  1.73092550E+00  1.78290942E+00  1.80332610E+00
  1.86947561E+00  1.96919463E+00  2.12327513E+00  2.37255103E+00  2.39163105E+00
  2.44210860E+00  2.46626280E+00  2.46887452E+00  2.49303809E+00  2.51315312E+00
  2.52185440E+00  2.52463099E+00  2.54397466E+00  2.54553374E+00  2.55433248E+00
  2.57040306E+00  2.58848246E+00  2.61339233E+00  2.62350426E+00  2.64472396E+00
  2.65252595E+00  2.65869483E+00  2.67995476E+00  2.69211903E+00  2.70795007E+00
  2.72379401E+00  2.73933745E+00  2.74372885E+00  2.78411498E+00  2.80098028E+00
  2.82766874E+00  2.87875234E+00  2.89235972E+00  2.99236401E+00  3.04635991E+00
  3.10216043E+00  3.16783347E+00  3.19946474E+00  3.22670724E+00  3.24681314E+00
  3.29362345E+00  3.30745450E+00  3.38382581E+00  3.51360817E+00  3.54759618E+00
  3.58102751E+00  3.91642855E+00  4.14654936E+00  4.33713613E+00  4.49358286E+00
  4.55853445E+00  4.61678624E+00  4.73904347E+00  4.96962109E+00  5.02511827E+00
  5.35212114E+00  5.41981244E+00  5.67728801E+00  6.40135468E+00  6.59340566E+00
  6.87402089E+00  6.89824971E+00  6.91575651E+00  6.98870471E+00  7.31192424E+00
  7.34539126E+00  7.34760884E+00  7.43774466E+00  7.52924549E+00  7.73379909E+00
  7.76047148E+00  8.35660987E+00  1.44260996E+01  7.98863815E+01
Alpha MO coefficients                      R   N=       30276
  5.73119190E-06  3.15896258E-05  1.70942311E-06 -1.43764587E-04 -9.09223637E-05
  9.53247915E-08  3.13385031E-06  6.99268726E-07 -1.94211032E-06 -9.41938184E-06
 -3.28085826E-06  5.15925555E-05 -1.53080896E-04  1.94713246E-06  1.28648183E-05
 -3.42477939E-05  3.60828208E-06 -2.01543739E-06  2.52189369E-07  7.73346186E-08
 -2.99795662E-06 -1.36793789E-06  1.34695584E-05 -9.25862981E-07 -6.05237652E-07
  2.08104530E-05  9.28870427E-06  2.53669558E-05  6.72177024E-06 -5.71538754E-06
  5.83532103E-05  1.30873306E-05 -1.43319112E-07 -1.05215735E-07  2.08595181E-07
 -6.24987344E-07  6.22320605E-07 -1.43351714E-06  8.40996851E-07  4.79863791E-08
 -2.76988792E-06  1.21062813E-05  2.76372777E-06 -2.62974679E-06 -5.76728510E-06
  9.47986575E-06  8.03393877E-08 -2.08208599E-07 -2.99670429E-06  1.43786979E-05
 -2.88258347E-05 -8.27504157E-06  5.57307116E-08  5.36890004E-08 -1.05064670E-07
 -1.20960860E-06  8.30898365E-07 -5.58404267E-07 -5.39743929E-07 -1.97070430E-07
  4.47514972E-07  2.34483672E-05 -2.77133304E-06 -4.60666877E-06  4.38725265E-06
 -4.04691992E-07  1.93096099E-07  5.70100914E-08  5.73308457E-08 -1.98176328E-09
 -1.50981787E-07  1.70739098E-08 -5.22282466E-07 -5.11971099E-07 -1.39519046E-08
  1.22779557E-06 -1.83749752E-07  2.42736159E-06  2.70156267E-06  2.81257584E-07
 -5.16740993E-06  5.16830633E-07  3.86225586E-06  1.98033323E-06 -1.36566482E-06
 -6.39994397E-06  1.65910784E-06 -1.92502246E-08 -1.97114027E-08  1.49220394E-07
 -1.22595452E-07 -6.90811871E-07 -4.94793483E-07 -1.73948435E-07  9.69764804E-07
 -1.30827696E-06 -1.34151940E-07 -9.86959187E-07  1.33565793E-06  2.97789888E-06
 -1.66074935E-07  9.99534865E-01  1.95369538E-03  1.84372404E-04 -4.17566422E-04
  7.12300865E-05  7.33870811E-05  1.71125458E-05 -7.57902463E-05  1.74351792E-06
  3.61552543E-05 -1.34521509E-04  2.86104600E-06 -1.76042845E-05  7.18911969E-05
 -1.60973378E-06  5.20563300E-06 -5.57949290E-05 -2.90729199E-06  2.17502735E-06
 -1.15303841E-05 -1.19315839E-06 -3.68960472E-06  1.34156850E-07 -1.67703612E-07
 -5.19625499E-06 -3.37130072E-06 -2.82939998E-05  4.42738518E-07 -8.13345382E-07
 -4.34507342E-05 -2.35215780E-05 -1.92983167E-06 -3.29799137E-06  7.66218955E-07
 -8.97275955E-06  3.67652959E-07 -5.59814919E-07 -1.64959713E-06  5.97892821E-06
  4.07264811E-07 -9.82522019E-07 -4.84492299E-06  4.29526019E-06  1.06050602E-06
 -4.05509781E-07  3.33175596E-06 -1.17381955E-06  1.98847110E-06 -3.76067754E-06
  6.83040130E-06 -1.19441057E-06 -2.15101101E-05  4.18112660E-05 -6.42727170E-06
  7.25902350E-07 -2.46814654E-06  2.71413624E-07 -8.01311612E-06  1.65872577E-05
 -1.16551731E-06  1.07064323E-05  1.96444835E-05 -4.66105335E-06 -4.80356632E-07
  5.75045056E-08 -7.86659395E-08 -1.14767426E-06 -9.40708536E-07 -1.06770988E-05
  2.61997178E-06 -1.40902567E-06  8.25004321E-06 -3.95259462E-06  9.76825409E-01
 -9.13684459E-03  4.33777625E-02  1.98858434E-03  5.81062740E-04  7.66913102E-04
  1.56469097E-03  6.53254203E-04 -8.80759476E-04 -1.20424400E-03 -6.40167180E-04
 -1.16310757E-04  6.16711901E-04 -2.73376584E-04 -1.30648704E-04  1.87781716E-04
 -7.27363260E-05  4.84090989E-05  2.19190427E-05 -1.06023494E-06  1.00833436E-04
  4.14307282E-05  3.08994229E-04 -3.66994090E-04 -1.71301137E-05  6.29182173E-05
  1.64867576E-04 -2.10327150E-04 -4.04431244E-05 -6.02793914E-06 -1.47895068E-04
 -1.55031257E-04  9.89128947E-06 -2.89964116E-06  1.65316246E-05 -3.40983805E-06
 -9.74636194E-06 -8.81357388E-06  9.14068097E-06  4.27435712E-05 -2.60462105E-05
 -1.28041191E-06 -9.68165232E-05 -2.67551324E-05 -7.45769894E-05 -5.00922061E-05
  5.92294041E-07  1.57175573E-06  4.90388583E-05 -3.82883389E-05 -2.84628594E-04
 -1.04453482E-04  1.77104075E-05 -1.04083960E-07 -2.90848203E-06  2.02890052E-04
 -5.62918573E-06 -6.41624224E-06 -6.83619014E-05  2.29094197E-07  1.66398888E-05
  1.32427934E-04  3.97162094E-05 -2.89556862E-04  2.50191222E-05 -1.26770506E-05
 -2.95747401E-05 -2.32202830E-06  3.64097317E-06  1.90285791E-08  3.93929729E-07
 -1.24431804E-06  1.92818410E-05 -3.24129167E-05  1.26368199E-07 -6.58713458E-06
  8.39204803E-06 -1.58161368E-05  1.58086386E-04 -2.13971367E-06 -5.75341889E-05
 -2.30613796E-05 -2.34921282E-05  1.80396844E-04  1.29897438E-05 -4.38546233E-05
  1.77324997E-06 -6.35414571E-06 -1.94207218E-05 -4.05929294E-06  1.97408857E-05
  5.21545239E-06 -7.55541778E-06  4.00215633E-07  7.35808079E-05  8.52401878E-05
  6.35785933E-06 -1.27116071E-04 -1.03680751E-05  2.46484730E-05  4.18215915E-06
  4.33357832E-06  7.10778687E-05  8.11779769E-05 -2.77125260E-04 -1.22482080E-05
 -5.47853365E-04 -4.00427995E-06 -7.23602430E-06 -2.28928736E-06  3.97624006E-05
 -5.58232566E-04 -3.75622769E-05 -3.57854852E-05  2.51893496E-04  1.04017218E-05
  1.79554366E-04  3.99209358E-04  8.89852364E-05 -1.51907936E-05  1.22880867E-04
  1.13277145E-05  1.42698042E-05 -4.36673009E-06 -7.47355933E-07  8.53543571E-06
  9.79796753E-06 -3.02791959E-04  8.79431268E-06  2.60926765E-05 -4.50668001E-04
 -1.88180035E-04  1.17499558E-04  3.18264842E-05 -6.05319239E-05  3.09706617E-04
 -3.62202570E-05  1.14570602E-05 -2.93367507E-05  1.61396385E-04  2.68453121E-06
  7.69088848E-06 -1.26532952E-04  1.88690519E-04 -1.88118666E-05 -3.85865749E-05
  9.80065096E-05  1.48207229E-05 -1.80797078E-05 -6.99780948E-05  4.68728643E-05
  3.65657136E-04  1.35556933E-03  1.30997644E-04  6.39384412E-05 -2.29967537E-04
  4.93878997E-05 -1.10973903E-04 -1.08876521E-03  1.23717661E-05 -3.26001986E-04
  3.39702544E-04 -2.16453587E-04  3.76888172E-04 -1.17647764E-05 -2.20248713E-05
 -3.19604426E-05  1.67362288E-06 -6.32892775E-05 -3.23335625E-04  4.11938381E-04
  6.61455234E-06  7.24210281E-04  1.74998728E-05 -7.41621496E-05 -8.50243621E-05
 -1.04578894E-04  2.70167590E-03  2.18454607E-03 -2.28383413E-05  3.73462917E-05
 -1.08696755E-05 -6.79368475E-05  5.83795100E-04  5.86557051E-05 -6.15653049E-04
  2.51944250E-03  6.68991821E-05 -2.62394014E-04  8.66137338E-04 -8.06130859E-05
 -2.68176080E-05 -6.17203004E-06 -5.92711236E-06 -4.48452795E-05 -3.46437695E-05
 -1.82587437E-04  4.24643060E-05  4.69479451E-05 -2.56578607E-04 -4.26068661E-05
 -2.68471873E-04 -7.60814106E-05  1.33483380E-04 -7.55033340E-04  6.72937529E-05
 -3.65241989E-06  6.13165985E-06 -2.48481794E-05  1.42328032E-05 -7.61991589E-06
  4.66383156E-05 -3.81539396E-05 -2.81782392E-06  1.11864593E-05 -2.45352717E-05
 -2.99734174E-05  1.02425169E-04 -6.06726389E-05  1.19067729E-04 -1.56069471E-06
  3.81847624E-06  5.79758001E-05 -2.70442619E-04  4.86300691E-04  1.37617073E-04