title                                                                   
SP        RMP2-FC                                                     Gen                 
Number of atoms                            I                4
Info1-9                                    I   N=           9
         136         123           0           0           0         110
           1           2           1
Full Title                                 C   N=           1
title       
Route                                      C   N=           5
#p pop=NBO SP NoSymm mp2/gen Pseudo=read density=current    
Charge                                     I               -1
Multiplicity                               I                1
Number of electrons                        I               52
Number of alpha electrons                  I               26
Number of beta electrons                   I               26
Number of basis functions                  I              174
Number of independent functions            I              174
Number of point charges in /Mol/           I                0
Number of translation vectors              I                0
Atomic numbers                             I   N=           4
           8          35          17           1
Nuclear charges                            R   N=           4
  8.00000000E+00  2.50000000E+01  1.70000000E+01  1.00000000E+00
Current cartesian coordinates              R   N=          12
  0.00000000E+00  0.00000000E+00  0.00000000E+00  5.79755078E+00  0.00000000E+00
  0.00000000E+00 -7.40412882E-01  3.09587011E+00  0.00000000E+00  1.88859720E+00
  0.00000000E+00  3.33010637E-01
Number of symbols in /Mol/                 I                0
Force Field                                I                0
Atom Types                                 C   N=           4
                                                
Int Atom Types                             I   N=           4
           0           0           0           0
MM charges                                 R   N=           4
  0.00000000E+00  0.00000000E+00  0.00000000E+00  0.00000000E+00
Integer atomic weights                     I   N=           4
          16          79          35           1
Real atomic weights                        R   N=           4
  1.59949146E+01  7.89183361E+01  3.49688527E+01  1.00782504E+00
Atom fragment info                         I   N=           4
           0           0           0           0
Atom residue num                           I   N=           4
           0           0           0           0
Nuclear spins                              I   N=           4
           0           3           3           1
Nuclear ZEff                               R   N=           4
 -5.60000000E+00 -1.43500000E+03 -1.42400000E+01 -1.00000000E+00
Nuclear ZNuc                               R   N=           4
  8.00000000E+00  3.50000000E+01  1.70000000E+01  1.00000000E+00
Nuclear QMom                               R   N=           4
  0.00000000E+00  3.13000000E+01 -8.16500000E+00  0.00000000E+00
Nuclear GFac                               R   N=           4
  0.00000000E+00  2.10639900E+00  8.21874000E-01  2.79284600E+00
MicOpt                                     I   N=           4
          -1          -1          -1          -1
Number of residues                         I                0
Number of secondary structures             I                0
Number of contracted shells                I               56
Number of primitive shells                 I              138
Pure/Cartesian d shells                    I                0
Pure/Cartesian f shells                    I                0
Highest angular momentum                   I                3
Largest degree of contraction              I               11
Shell types                                I   N=          56
           0           0           0           0           0           1
           1           1           1          -2          -2          -2
          -3          -3           0           0           0           0
           0           0           1           1           1           1
           1          -2          -2          -2          -2          -3
          -3           0           0           0           0           0
           0           1           1           1           1           1
          -2          -2          -2          -3          -3           0
           0           0           0           1           1           1
          -2          -2
Number of primitives per shell             I   N=          56
           7           6           1           1           1           3
           1           1           1           1           1           1
           1           1           7           6           1           1
           1           1           8           8           1           1
           1           8           1           1           1           1
           1          11           9           8           1           1
           1           6           6           1           1           1
           1           1           1           1           1           3
           1           1           1           1           1           1
           1           1
Shell to atom map                          I   N=          56
           1           1           1           1           1           1
           1           1           1           1           1           1
           1           1           2           2           2           2
           2           2           2           2           2           2
           2           2           2           2           2           2
           2           3           3           3           3           3
           3           3           3           3           3           3
           3           3           3           3           3           4
           4           4           4           4           4           4
           4           4
Primitive exponents                        R   N=         138
  1.53300000E+04  2.29900000E+03  5.22400000E+02  1.47300000E+02  4.75500000E+01
  1.67600000E+01  6.20700000E+00  5.22400000E+02  1.47300000E+02  4.75500000E+01
  1.67600000E+01  6.20700000E+00  6.88200000E-01  1.75200000E+00  2.38400000E-01
  7.37600000E-02  3.44600000E+01  7.74900000E+00  2.28000000E+00  7.15600000E-01
  2.14000000E-01  5.97400000E-02  2.31400000E+00  6.45000000E-01  2.14000000E-01
  1.42800000E+00  5.00000000E-01  9.65939000E+03  1.45596000E+03  3.25914000E+02
  4.65657000E+01  1.82469000E+01  3.80201000E+00  1.78632000E+00  9.65939000E+03
  3.25914000E+02  4.65657000E+01  1.82469000E+01  3.80201000E+00  1.78632000E+00
  6.02714000E-01  2.84014000E-01  1.20271000E-01  4.45000000E-02  4.92187000E+02
  9.23642000E+01  2.70718000E+01  7.26539000E+00  3.48481000E+00  1.64048000E+00
  6.48570000E-01  9.53040000E-02  4.92187000E+02  2.70718000E+01  7.26539000E+00
  3.48481000E+00  1.64048000E+00  6.48570000E-01  2.56407000E-01  9.53040000E-02
  7.66600000E-01  1.18200000E-01  3.96000000E-02  3.38996000E+02  1.03217000E+02
  4.23638000E+01  1.84356000E+01  8.37254000E+00  3.80222000E+00  1.68677000E+00
  6.77520000E-01  6.77520000E-01  2.55300000E-01  1.00900000E-01  5.60600000E-01
  2.45400000E-01  4.56100000E+05  6.83300000E+04  1.55500000E+04  4.40500000E+03
  1.43900000E+03  5.20400000E+02  2.03100000E+02  8.39600000E+01  3.62000000E+01
  1.58300000E+01  6.33400000E+00  4.40500000E+03  1.43900000E+03  5.20400000E+02
  2.03100000E+02  8.39600000E+01  3.62000000E+01  1.58300000E+01  6.33400000E+00
  2.69400000E+00  1.43900000E+03  2.03100000E+02  8.39600000E+01  3.62000000E+01
  1.58300000E+01  6.33400000E+00  2.69400000E+00  4.31300000E-01  9.76800000E-01
  1.62500000E-01  5.91000000E-02  6.63300000E+02  1.56800000E+02  4.99800000E+01
  1.84200000E+01  7.24000000E+00  2.92200000E+00  1.56800000E+02  4.99800000E+01
  1.84200000E+01  7.24000000E+00  2.92200000E+00  3.81800000E-01  1.02200000E+00
  1.30100000E-01  4.19000000E-02  1.04600000E+00  3.44000000E-01  1.35000000E-01
  7.06000000E-01  3.12000000E-01  3.38700000E+01  5.09500000E+00  1.15900000E+00
  3.25800000E-01  1.02700000E-01  2.52600000E-02  1.40700000E+00  3.88000000E-01
  1.02000000E-01  1.05700000E+00  2.47000000E-01
Contraction coefficients                   R   N=         138
  5.19808943E-04  4.02025621E-03  2.07128267E-02  8.10105536E-02  2.35962985E-01
  4.42653446E-01  3.57064423E-01 -4.42115008E-05 -1.22591041E-03 -1.05517725E-02
 -6.74452633E-02 -1.71198607E-01  1.07329856E+00  1.00000000E+00  1.00000000E+00
  1.00000000E+00  4.11634896E-02  2.57762836E-01  8.02419274E-01  1.00000000E+00
  1.00000000E+00  1.00000000E+00  1.00000000E+00  1.00000000E+00  1.00000000E+00
  1.00000000E+00  1.00000000E+00  3.80701661E-04  2.63868635E-03  8.70555302E-03
  8.03093709E-02 -4.07648708E-01  7.03092632E-01  4.97431509E-01 -2.19689157E-05
 -9.47832571E-04  9.38727693E-03 -1.47428152E-02 -2.77285578E-01 -7.38047787E-01
  1.00000000E+00  1.00000000E+00  1.00000000E+00  1.00000000E+00  4.71881392E-04
  5.49299123E-03 -8.80115226E-02  3.43400525E-01  5.10073044E-01  2.48575707E-01
  2.24628895E-02  8.56099489E-04 -4.13161033E-05  2.99292350E-03 -2.76886294E-02
 -5.33882855E-02 -1.24705505E-02  3.44020817E-01  5.41867327E-01  2.58979876E-01
  1.00000000E+00  1.00000000E+00  1.00000000E+00  1.52399887E-03  1.56729884E-02
  7.23999463E-02  1.86302862E-01  3.23880760E-01  3.74533722E-01  2.57417809E-01
  6.80509495E-02  1.00000000E+00  1.00000000E+00  1.00000000E+00  1.00000000E+00
  1.00000000E+00  4.93229477E-05  3.83207967E-04  2.00947816E-03  8.38950124E-03
  2.94843950E-02  8.78759948E-02  2.11589759E-01  3.65611554E-01  3.41246350E-01
  1.02162570E-01  2.14249949E-03 -2.21747925E-06 -1.71189708E-04 -1.27922846E-03
 -9.32956265E-03 -3.98910062E-02 -1.05536085E-01  9.36202446E-03  5.10511140E-01
  5.73150737E-01  4.03949245E-06  2.12481765E-04  8.59484452E-04  4.63248159E-03
  4.47343490E-04 -7.38438245E-02 -3.62271994E-01  1.16620337E+00  1.00000000E+00
  1.00000000E+00  1.00000000E+00  2.47206402E-03  1.97550234E-02  9.09917355E-02
  2.63187834E-01  4.49078073E-01  3.60183072E-01  3.03427809E-05 -1.22475826E-03
 -6.01429772E-03 -2.76401323E-02  4.35105612E-04  1.00307272E+00  1.00000000E+00
  1.00000000E+00  1.00000000E+00  1.00000000E+00  1.00000000E+00  1.00000000E+00
  1.00000000E+00  1.00000000E+00  2.54948632E-02  1.90362766E-01  8.52162022E-01
  1.00000000E+00  1.00000000E+00  1.00000000E+00  1.00000000E+00  1.00000000E+00
  1.00000000E+00  1.00000000E+00  1.00000000E+00
Coordinates of each shell                  R   N=         168
  0.00000000E+00  0.00000000E+00  0.00000000E+00  0.00000000E+00  0.00000000E+00
  0.00000000E+00  0.00000000E+00  0.00000000E+00  0.00000000E+00  0.00000000E+00
  0.00000000E+00  0.00000000E+00  0.00000000E+00  0.00000000E+00  0.00000000E+00
  0.00000000E+00  0.00000000E+00  0.00000000E+00  0.00000000E+00  0.00000000E+00
  0.00000000E+00  0.00000000E+00  0.00000000E+00  0.00000000E+00  0.00000000E+00
  0.00000000E+00  0.00000000E+00  0.00000000E+00  0.00000000E+00  0.00000000E+00
  0.00000000E+00  0.00000000E+00  0.00000000E+00  0.00000000E+00  0.00000000E+00
  0.00000000E+00  0.00000000E+00  0.00000000E+00  0.00000000E+00  0.00000000E+00
  0.00000000E+00  0.00000000E+00  5.79755078E+00  0.00000000E+00  0.00000000E+00
  5.79755078E+00  0.00000000E+00  0.00000000E+00  5.79755078E+00  0.00000000E+00
  0.00000000E+00  5.79755078E+00  0.00000000E+00  0.00000000E+00  5.79755078E+00
  0.00000000E+00  0.00000000E+00  5.79755078E+00  0.00000000E+00  0.00000000E+00
  5.79755078E+00  0.00000000E+00  0.00000000E+00  5.79755078E+00  0.00000000E+00
  0.00000000E+00  5.79755078E+00  0.00000000E+00  0.00000000E+00  5.79755078E+00
  0.00000000E+00  0.00000000E+00  5.79755078E+00  0.00000000E+00  0.00000000E+00
  5.79755078E+00  0.00000000E+00  0.00000000E+00  5.79755078E+00  0.00000000E+00
  0.00000000E+00  5.79755078E+00  0.00000000E+00  0.00000000E+00  5.79755078E+00
  0.00000000E+00  0.00000000E+00  5.79755078E+00  0.00000000E+00  0.00000000E+00
  5.79755078E+00  0.00000000E+00  0.00000000E+00 -7.40412882E-01  3.09587011E+00
  0.00000000E+00 -7.40412882E-01  3.09587011E+00  0.00000000E+00 -7.40412882E-01
  3.09587011E+00  0.00000000E+00 -7.40412882E-01  3.09587011E+00  0.00000000E+00
 -7.40412882E-01  3.09587011E+00  0.00000000E+00 -7.40412882E-01  3.09587011E+00
  0.00000000E+00 -7.40412882E-01  3.09587011E+00  0.00000000E+00 -7.40412882E-01
  3.09587011E+00  0.00000000E+00 -7.40412882E-01  3.09587011E+00  0.00000000E+00
 -7.40412882E-01  3.09587011E+00  0.00000000E+00 -7.40412882E-01  3.09587011E+00
  0.00000000E+00 -7.40412882E-01  3.09587011E+00  0.00000000E+00 -7.40412882E-01
  3.09587011E+00  0.00000000E+00 -7.40412882E-01  3.09587011E+00  0.00000000E+00
 -7.40412882E-01  3.09587011E+00  0.00000000E+00 -7.40412882E-01  3.09587011E+00
  0.00000000E+00  1.88859720E+00  0.00000000E+00  3.33010637E-01  1.88859720E+00
  0.00000000E+00  3.33010637E-01  1.88859720E+00  0.00000000E+00  3.33010637E-01
  1.88859720E+00  0.00000000E+00  3.33010637E-01  1.88859720E+00  0.00000000E+00
  3.33010637E-01  1.88859720E+00  0.00000000E+00  3.33010637E-01  1.88859720E+00
  0.00000000E+00  3.33010637E-01  1.88859720E+00  0.00000000E+00  3.33010637E-01
  1.88859720E+00  0.00000000E+00  3.33010637E-01
Num ILSW                                   I              100
ILSW                                       I   N=         100
           0           0           0           0           2           0
           0           0           0           0           0          -1
           5           0           0           0           0           0
           0           0           0           0           0           0
           1           1           0           0           0           0
           0           0      100000           0          -1           0
           0           0           0           0           0           0
           0           0           0           1           0           0
           0 -2000000000           1           0           0           0
           0           0           4          52           0           0
           0           0           0           0           0           0
           0           0           0           4           0           1
           0           0           0           0           0           0
           0           0           0           0           0           0
           0           0           0           0           0           0
           0           0           0           0           0           0
           0           0           0           0
Num RLSW                                   I               52
RLSW                                       R   N=          52
  1.00000000E+00  1.00000000E+00  1.00000000E+00  1.00000000E+00  1.00000000E+00
  0.00000000E+00  0.00000000E+00  1.00000000E+00  0.00000000E+00  0.00000000E+00
  0.00000000E+00  0.00000000E+00  1.00000000E+00  0.00000000E+00  0.00000000E+00
  0.00000000E+00  0.00000000E+00  1.00000000E+00  0.00000000E+00  0.00000000E+00
  0.00000000E+00  0.00000000E+00  1.00000000E+00  0.00000000E+00  0.00000000E+00
  0.00000000E+00  0.00000000E+00  1.00000000E+00  0.00000000E+00  0.00000000E+00
  0.00000000E+00  0.00000000E+00  1.00000000E+00  0.00000000E+00  0.00000000E+00
  0.00000000E+00  0.00000000E+00  0.00000000E+00  1.00000000E+00  1.00000000E+00
  0.00000000E+00  1.00000000E+00  0.00000000E+00  0.00000000E+00  0.00000000E+00
  0.00000000E+00  0.00000000E+00  0.00000000E+00  0.00000000E+00  0.00000000E+00
  0.00000000E+00  0.00000000E+00
ECP-MxAtEC                                 I           250000
ECP-MaxLECP                                I               10
ECP-MaxAtL                                 I          2250000
ECP-MxTECP                                 I         11250000
ECP-LenNCZ                                 I               16
ECP-KFirst                                 I   N=          40
           0           1           0           0           0           2
           0           0           0           5           0           0
           0           9           0           0           0          15
           0           0           0           0           0           0
           0           0           0           0           0           0
           0           0           0           0           0           0
           0           0           0           0
ECP-KLast                                  I   N=          40
           0           1           0           0           0           4
           0           0           0           8           0           0
           0          14           0           0           0          16
           0           0           0           0           0           0
           0           0           0           0           0           0
           0           0           0           0           0           0
           0           0           0           0
ECP-LMax                                   I   N=           4
           0           4           0           0
ECP-LPSkip                                 I   N=           4
           1           0           1           1
ECP-RNFroz                                 R   N=           4
  0.00000000E+00  1.00000000E+01  0.00000000E+00  0.00000000E+00
ECP-NLP                                    I   N=          16
           2           2           2           2           2           2
           2           2           2           2           2           2
           2           2           2           2
ECP-CLP1                                   R   N=          16
  0.00000000E+00  4.99628340E+01  3.70014205E+02  1.02414390E+01  9.91122440E+01
  1.98253046E+02  2.82617400E+01  5.66233660E+01 -1.86058530E+01 -2.79232800E+01
 -3.79693000E-01 -7.80583000E-01  3.59680000E-02  9.43970000E-02 -1.09126900E+00
 -2.88769100E+00
ECP-CLP2                                   R   N=          16
  0.00000000E+00  0.00000000E+00  0.00000000E+00  0.00000000E+00  0.00000000E+00
  0.00000000E+00  0.00000000E+00  0.00000000E+00  0.00000000E+00  0.00000000E+00
  0.00000000E+00  0.00000000E+00  0.00000000E+00  0.00000000E+00  0.00000000E+00
  0.00000000E+00
ECP-ZLP                                    R   N=          16
  1.00000000E+00  7.00242570E+01  3.11784120E+01  7.15659300E+00  4.67734710E+01
  4.61841200E+01  2.17138580E+01  2.09417920E+01  5.06988390E+01  5.06447640E+01
  1.54475090E+01  1.55002590E+01  2.80039100E+00  1.07748000E+00  1.44656060E+01
  2.12340650E+01
MxBond                                     I                2
NBond                                      I   N=           4
           2           0           1           1
IBond                                      I   N=           8
           3           4           0           0           1           0
           1           0
RBond                                      R   N=           8
  1.00000000E+00  1.00000000E+00  0.00000000E+00  0.00000000E+00  1.00000000E+00
  0.00000000E+00  1.00000000E+00  0.00000000E+00
Virial Ratio                               R      2.144434401933432E+00
SCF Energy                                 R     -9.505219219215485E+02
MP2 Energy                                 R     -9.512249839956602E+02
Total Energy                               R     -9.512249839956602E+02
Post-SCF wavefunction norm                 R      1.105429969365249E+00
RMS Density                                R      6.656853260060779E-09
Job Status                                 I                1
Nuclear derivative order                   I                0
External E-field                           R   N=          35
  0.00000000E+00  0.00000000E+00  0.00000000E+00  0.00000000E+00  0.00000000E+00
  0.00000000E+00  0.00000000E+00  0.00000000E+00  0.00000000E+00  0.00000000E+00
  0.00000000E+00  0.00000000E+00  0.00000000E+00  0.00000000E+00  0.00000000E+00
  0.00000000E+00  0.00000000E+00  0.00000000E+00  0.00000000E+00  0.00000000E+00
  0.00000000E+00  0.00000000E+00  0.00000000E+00  0.00000000E+00  0.00000000E+00
  0.00000000E+00  0.00000000E+00  0.00000000E+00  0.00000000E+00  0.00000000E+00
  0.00000000E+00  0.00000000E+00  0.00000000E+00  0.00000000E+00  0.00000000E+00
IOpCl                                      I                0
IROHF                                      I                0
Alpha Orbital Energies                     R   N=         174
 -1.04731368E+02 -2.04621069E+01 -1.04508711E+01 -9.55801224E+00 -7.91804045E+00
 -7.91539801E+00 -7.91529461E+00 -7.30601251E+00 -7.30534251E+00 -7.30533500E+00
 -2.85703466E+00 -2.85677714E+00 -2.85676676E+00 -2.85613836E+00 -2.85613749E+00
 -1.22886595E+00 -8.95531311E-01 -7.56136446E-01 -5.39521988E-01 -4.42369338E-01
 -4.34101339E-01 -3.08079883E-01 -2.80819847E-01 -1.83251332E-01 -1.73669404E-01
 -1.73520097E-01  1.55932244E-01  1.81690028E-01  2.23817687E-01  2.31583644E-01
  2.51318767E-01  2.65208133E-01  2.67651906E-01  2.86375970E-01  3.04156561E-01
  3.09968521E-01  3.27400894E-01  3.30342728E-01  3.59096958E-01  4.27410348E-01
  4.37929017E-01  4.61180898E-01  4.79544539E-01  4.84163228E-01  5.04070032E-01
  5.41010376E-01  5.49382376E-01  5.67617916E-01  5.86257620E-01  5.95676329E-01
  5.97740326E-01  6.11348709E-01  6.55312451E-01  7.17380594E-01  7.55877734E-01
  7.78414757E-01  8.08324800E-01  8.32521599E-01  8.37878180E-01  8.56137773E-01
  8.90215484E-01  8.95949918E-01  9.07379775E-01  9.42013673E-01  9.83272037E-01
  9.85739021E-01  9.88679754E-01  9.95333182E-01  1.00336646E+00  1.02663030E+00
  1.03279513E+00  1.06318228E+00  1.08792744E+00  1.09682851E+00  1.10716939E+00
  1.13300280E+00  1.14499922E+00  1.15057854E+00  1.16026412E+00  1.19287548E+00
  1.19987336E+00  1.21877026E+00  1.26265209E+00  1.28525566E+00  1.30870812E+00
  1.34272879E+00  1.35708545E+00  1.38346364E+00  1.46803742E+00  1.47447109E+00
  1.49833995E+00  1.52733406E+00  1.58004763E+00  1.62347473E+00  1.66086546E+00
  1.70023649E+00  1.71143850E+00  1.76335601E+00  1.79438645E+00  1.80541065E+00
  1.89715848E+00  1.97286410E+00  2.18127924E+00  2.38360360E+00  2.40229151E+00
  2.45503588E+00  2.46141926E+00  2.47617350E+00  2.49644112E+00  2.51306163E+00
  2.53147737E+00  2.53605513E+00  2.54186286E+00  2.54243109E+00  2.56044917E+00
  2.56277811E+00  2.60621236E+00  2.61337044E+00  2.63086015E+00  2.64367290E+00
  2.65052057E+00  2.67968818E+00  2.68658629E+00  2.70313363E+00  2.71433952E+00
  2.72334169E+00  2.74149339E+00  2.75406963E+00  2.77383804E+00  2.78989064E+00
  2.84321038E+00  2.88089940E+00  3.00324403E+00  3.07851799E+00  3.08238445E+00
  3.11112324E+00  3.19786145E+00  3.21356543E+00  3.22582703E+00  3.28195580E+00
  3.30587241E+00  3.33690058E+00  3.44085993E+00  3.52925329E+00  3.54906177E+00
  3.59943420E+00  3.93107187E+00  4.24273475E+00  4.31507407E+00  4.48036341E+00
  4.54731749E+00  4.59405720E+00  4.77389029E+00  4.98811428E+00  5.09453423E+00
  5.32799958E+00  5.39652019E+00  5.66023736E+00  6.43209154E+00  6.58378006E+00
  6.85978385E+00  6.90259800E+00  6.91845646E+00  6.99783537E+00  7.28738097E+00
  7.33362887E+00  7.34802057E+00  7.44500948E+00  7.55238288E+00  7.74739003E+00
  7.80565044E+00  8.34862132E+00  1.45075905E+01  7.98831275E+01
Alpha MO coefficients                      R   N=       30276
  5.12373016E-06  2.87042246E-05  2.39510295E-06 -1.55894047E-04 -1.04039343E-04
  4.74779923E-07  2.96390103E-06  4.03992681E-07 -4.63728060E-06 -8.69800125E-06
 -1.99722181E-06  4.72419696E-05 -1.53960136E-04  6.36123307E-07  1.04546936E-05
 -3.79794738E-05  1.70077749E-06 -2.21366845E-06  1.39095090E-07  6.36371572E-09
 -3.08434405E-06 -1.46699814E-06  1.45785909E-05 -7.46703549E-07 -1.49726810E-07
  2.04974468E-05  9.71795071E-06  2.58913391E-05  2.65775390E-06 -1.69383617E-06
  5.89273277E-05  1.25083342E-05 -1.40251725E-07 -3.03128320E-07 -5.59022093E-08
 -2.52197342E-07  2.04469593E-07 -1.65868035E-06  9.90175875E-07  2.41615152E-07
 -2.47930467E-06  1.32247841E-05  1.10443367E-06 -9.38652822E-07 -5.13361786E-06
  8.95227857E-06  4.93147806E-08 -1.29792994E-07 -1.65462911E-06  1.20292866E-05
 -3.66215178E-05 -7.21662719E-06  8.13230923E-07  1.64537769E-07 -2.09595344E-07
  5.67284045E-06  2.07684484E-06 -1.43318252E-06 -3.04462832E-06 -5.37547747E-07
  7.73220512E-07  2.44487246E-05 -6.69834310E-06 -2.63149928E-06  4.05501859E-06
 -2.85029111E-07  1.82516122E-07  7.13180741E-08  5.12087408E-08 -4.55066765E-09
 -8.40382029E-08  1.21001586E-07 -6.14249091E-07 -4.39622945E-07  1.86029360E-08
  7.69500114E-07 -8.98997618E-07  3.79577245E-06  2.43351036E-06  8.23112404E-08
 -5.87231635E-06  2.28477651E-06  4.09748361E-06  1.10785663E-06 -8.63214114E-07
 -6.47301025E-06  3.31731741E-06 -5.17629499E-08  1.10074258E-08 -4.63454446E-08
 -8.95219129E-08 -4.17609547E-07 -3.86029201E-08  3.94485713E-07  9.82061866E-07
 -1.97812342E-06  4.75427753E-07 -9.00826885E-07  8.94014453E-07  1.89517896E-06
 -2.22295364E-06  9.99534866E-01  1.95402780E-03  1.84854209E-04 -4.18098253E-04
  7.27265573E-05  7.63062141E-05  1.76930238E-05 -7.52705307E-05  7.61570345E-07
  3.78159196E-05 -1.34840565E-04  1.32411184E-06 -1.83501116E-05  7.17440056E-05
 -7.27494391E-07  2.40386920E-06 -5.77108727E-05 -1.91077534E-06  2.61043662E-06
 -1.14202689E-05 -6.75253709E-07 -3.63593376E-06  4.39765299E-08 -8.49749070E-08
 -4.95242000E-06 -3.31738737E-06 -2.87614951E-05  2.55864121E-07 -3.26295101E-07
 -4.38386958E-05 -2.41255616E-05 -8.41025681E-07 -1.78434084E-06  6.91126817E-07
 -1.07214116E-05  1.16422727E-06 -3.21975264E-07 -2.03184536E-06  6.20778227E-06
  2.02682702E-07 -4.38346636E-07 -4.60192983E-06  3.98304186E-06  6.45040577E-07
  4.37898497E-07  3.05308693E-06 -5.53672609E-07  9.36257538E-07 -4.47356967E-06
  7.60955690E-06 -1.71775351E-06 -1.54721846E-05  6.67482096E-05 -7.72679961E-06
  6.64572376E-07 -2.57889064E-06  1.24372658E-07 -1.11547050E-05  1.55907464E-05
 -1.62811188E-06  1.14199994E-05  2.54464008E-05 -2.82604251E-06 -4.69535177E-07
  1.14826513E-07  3.23149128E-09 -6.54231003E-07 -1.00019338E-06 -1.54621811E-05
  2.62386483E-06 -1.02577224E-06  1.13546417E-05 -1.76544230E-06  9.76806803E-01
 -9.24261764E-03  4.33882871E-02  1.49237562E-03  7.27210667E-04  8.64115505E-04
  1.57749426E-03  2.70659193E-04 -1.05841373E-03 -1.19689672E-03 -2.91878814E-04
 -1.53223577E-04  3.31356349E-04 -1.20916327E-04 -1.71813928E-04  2.16893218E-04
 -6.92629242E-06  4.03371944E-05  9.58003659E-06 -1.50354549E-06  9.94030060E-05
  4.07349952E-05  4.49414529E-04 -1.68185030E-04 -5.39996327E-06  1.46841378E-05
  1.52660863E-04 -1.46613890E-04 -1.33068948E-05 -2.68336661E-05 -1.18950513E-04
 -9.46214616E-05  4.76258144E-06  7.87107115E-06  1.84740148E-05 -1.71320361E-06
 -3.18040322E-06 -2.45824719E-06  8.27981629E-06  2.64734476E-05  2.98738354E-05
  1.77333623E-05 -4.44047165E-05 -1.49585197E-05 -1.28591878E-04 -5.06753123E-05
  3.81000075E-07  2.91506406E-06  9.20747387E-05  6.46564232E-05 -1.56305822E-03
 -5.52454679E-04  6.14668367E-05  5.97487113E-07 -7.33402695E-06  6.07802399E-04
 -3.60629806E-06 -4.94411641E-05 -2.20257728E-04 -2.51789139E-06  2.97238654E-05
  9.02366591E-04  5.42843432E-05 -2.61698038E-04  1.64969584E-04 -1.32797313E-05
 -3.12886675E-05 -2.37768481E-06  2.58112672E-06  1.38854191E-07  2.10750610E-06
 -1.77303747E-06  1.62558068E-05 -2.40082379E-05 -8.53300268E-07 -1.35256694E-05
  1.26301313E-05  1.02687547E-04  1.48675090E-04  1.49117161E-06 -2.26051585E-04
 -3.68441798E-05  1.13227003E-04  1.55733895E-04  6.41856760E-06 -2.17755451E-04
 -1.17291716E-05 -5.82326395E-06 -1.89895669E-05 -8.62777553E-07  1.01265345E-05
  3.38652904E-06  1.37438523E-05 -3.30749714E-06  6.87692255E-05  2.29004996E-05
 -2.56624255E-06 -9.60978299E-05 -8.88523170E-06  2.47737816E-05  2.34469546E-05
  4.05916620E-06  6.89076579E-05  6.97606287E-05 -2.92022764E-04  2.97105196E-04
 -6.56621602E-04 -7.68717000E-07 -1.37140493E-05 -1.08271952E-06  7.82272128E-05
 -6.64956255E-04 -1.73893809E-05 -4.81909759E-05  2.77198229E-04  4.81736272E-06
  1.11252660E-04  2.20043485E-04  5.85697047E-05  3.40836990E-06  1.54923641E-04
 -5.08550225E-06  1.68045833E-05 -3.41441226E-06 -5.11721879E-07  4.85019509E-06
  7.13263618E-06 -3.37967777E-04  8.44491697E-06  1.16394225E-05 -4.86281753E-04
 -1.83414997E-04  1.03605126E-04  1.00451617E-05 -4.19310641E-05  2.14291678E-04
 -4.12695307E-05  6.46130137E-06 -2.48469701E-05  1.63233810E-04  2.80987602E-06
  4.69812103E-06 -1.23753072E-04  1.92225376E-04 -1.22153680E-05 -5.10859406E-05
  1.09604346E-04  4.01238575E-06 -1.05947894E-05 -6.64881032E-05  6.42492118E-05
  2.99858842E-04  1.23020511E-03  1.76937194E-03  2.18064866E-04 -2.47206597E-04
  4.22822968E-05 -4.36710763E-05 -1.26039696E-03  4.21482041E-05 -1.53589951E-04
  1.48585052E-03 -1.63704356E-04  1.22728545E-04 -4.15561690E-06 -1.65755631E-06
 -1.25828852E-05  1.03859334E-06 -6.67985556E-05 -5.75013276E-04  2.20024119E-04
  1.14715472E-06  1.16146149E-03 -4.44193137E-05 -6.82384427E-05 -5.27476254E-05
 -1.08618200E-04  2.95399657E-03  2.59895839E-03 -2.70726800E-05  4.01899278E-05
 -5.71512826E-06 -2.62306618E-05  5.67127686E-04  3.33618665E-05 -4.63999240E-04
  2.48680095E-03  4.67039333E-05 -1.80213911E-04  9.74011498E-04 -3.26317367E-05
 -2.19835729E-05 -3.52990327E-06 -2.14352764E-06 -4.39748065E-05 -3.32901758E-05
 -2.14661036E-04  2.63654929E-05  1.77945319E-05 -2.46341104E-04 -4.76184918E-05
 -2.82859522E-04 -2.19036625E-05  3.69034088E-05 -7.45462712E-04  1.22025906E-04
 -8.97471804E-07  5.16332836E-06 -2.22818016E-05  6.02654887E-06 -1.67778414E-06
  5.24112314E-05 -4.09572582E-05 -8.11021488E-06 -7.78251642E-06 -5.89465072E-05
 -9.80239668E-06  4.00354762E-05 -7.68223443E-05  1.45096049E-04 -5.94806838E-07
  1.39193760E-06  2.35109674E-05 -1.86072034E-04  4.65754199E-04 -5.82828808E-06