 Entering Gaussian System, Link 0=g16
 Input=clhocl-_sc15.gjf
 Output=clhocl-_sc15.log
 Initial command:
 /sw/contrib/gaussian/g16/B01/g16/l1.exe "/scr/Gau-31716.inp" -scrdir="/scr/"
 Entering Link 1 = /sw/contrib/gaussian/g16/B01/g16/l1.exe PID=     31717.
  
 Copyright (c) 1988-2017, Gaussian, Inc.  All Rights Reserved.
  
 This is part of the Gaussian(R) 16 program.  It is based on
 the Gaussian(R) 09 system (copyright 2009, Gaussian, Inc.),
 the Gaussian(R) 03 system (copyright 2003, Gaussian, Inc.),
 the Gaussian(R) 98 system (copyright 1998, Gaussian, Inc.),
 the Gaussian(R) 94 system (copyright 1995, Gaussian, Inc.),
 the Gaussian 92(TM) system (copyright 1992, Gaussian, Inc.),
 the Gaussian 90(TM) system (copyright 1990, Gaussian, Inc.),
 the Gaussian 88(TM) system (copyright 1988, Gaussian, Inc.),
 the Gaussian 86(TM) system (copyright 1986, Carnegie Mellon
 University), and the Gaussian 82(TM) system (copyright 1983,
 Carnegie Mellon University). Gaussian is a federally registered
 trademark of Gaussian, Inc.
  
 This software contains proprietary and confidential information,
 including trade secrets, belonging to Gaussian, Inc.
  
 This software is provided under written license and may be
 used, copied, transmitted, or stored only in accord with that
 written license.
  
 The following legend is applicable only to US Government
 contracts under FAR:
  
                    RESTRICTED RIGHTS LEGEND
  
 Use, reproduction and disclosure by the US Government is
 subject to restrictions as set forth in subparagraphs (a)
 and (c) of the Commercial Computer Software - Restricted
 Rights clause in FAR 52.227-19.
  
 Gaussian, Inc.
 340 Quinnipiac St., Bldg. 40, Wallingford CT 06492
  
  
 ---------------------------------------------------------------
 Warning -- This program may not be used in any manner that
 competes with the business of Gaussian, Inc. or will provide
 assistance to any competitor of Gaussian, Inc.  The licensee
 of this program is prohibited from giving any competitor of
 Gaussian, Inc. access to this program.  By using this program,
 the user acknowledges that Gaussian, Inc. is engaged in the
 business of creating and licensing software in the field of
 computational chemistry and represents and warrants to the
 licensee that it is not a competitor of Gaussian, Inc. and that
 it will not use this program in any manner prohibited above.
 ---------------------------------------------------------------
  

 Cite this work as:
 Gaussian 16, Revision B.01,
 M. J. Frisch, G. W. Trucks, H. B. Schlegel, G. E. Scuseria, 
 M. A. Robb, J. R. Cheeseman, G. Scalmani, V. Barone, 
 G. A. Petersson, H. Nakatsuji, X. Li, M. Caricato, A. V. Marenich, 
 J. Bloino, B. G. Janesko, R. Gomperts, B. Mennucci, H. P. Hratchian, 
 J. V. Ortiz, A. F. Izmaylov, J. L. Sonnenberg, D. Williams-Young, 
 F. Ding, F. Lipparini, F. Egidi, J. Goings, B. Peng, A. Petrone, 
 T. Henderson, D. Ranasinghe, V. G. Zakrzewski, J. Gao, N. Rega, 
 G. Zheng, W. Liang, M. Hada, M. Ehara, K. Toyota, R. Fukuda, 
 J. Hasegawa, M. Ishida, T. Nakajima, Y. Honda, O. Kitao, H. Nakai, 
 T. Vreven, K. Throssell, J. A. Montgomery, Jr., J. E. Peralta, 
 F. Ogliaro, M. J. Bearpark, J. J. Heyd, E. N. Brothers, K. N. Kudin, 
 V. N. Staroverov, T. A. Keith, R. Kobayashi, J. Normand, 
 K. Raghavachari, A. P. Rendell, J. C. Burant, S. S. Iyengar, 
 J. Tomasi, M. Cossi, J. M. Millam, M. Klene, C. Adamo, R. Cammi, 
 J. W. Ochterski, R. L. Martin, K. Morokuma, O. Farkas, 
 J. B. Foresman, and D. J. Fox, Gaussian, Inc., Wallingford CT, 2016.
 
 ******************************************
 Gaussian 16:  ES64L-G16RevB.01 20-Dec-2017
                13-Sep-2021 
 ******************************************
 %nproc=28
 Will use up to   28 processors via shared memory.
 %mem=120GB
 %chk=/gscratch/ilahie/mccoygrp/hocl/eq_jobs/coire/cl_hocl_15.chk
 -------------------------------------------------------
 #p opt=(z-matrix,tight) mp2/aug-cc-pvtz density=current
 -------------------------------------------------------
 1/7=10,10=7,18=40,38=1/1,3;
 2/12=2,17=6,18=5,29=3,40=1/2;
 3/5=16,6=1,7=10,11=9,25=1,30=1,71=1/1,2,3;
 4//1;
 5/5=2,38=5/2;
 8/6=4,10=1/1;
 9/15=2,16=-3/6;
 10/5=1/2;
 6/7=2,8=2,9=2,10=2,22=-1/1;
 7/12=2,29=1/1,2,3,16;
 1/7=10,10=7,18=40/3(2);
 2/29=3/2;
 99//99;
 2/29=3/2;
 3/5=16,6=1,7=10,11=9,25=1,30=1,71=1/1,2,3;
 4/5=5,16=3,69=1/1;
 5/5=2,38=5/2;
 8/6=4,10=1/1;
 9/15=2,16=-3/6;
 10/5=1/2;
 7/12=2/1,2,3,16;
 1/7=10,18=40/3(-8);
 2/29=3/2;
 6/7=2,8=2,9=2,10=2,22=-1/1;
 99/9=10/99;
 Leave Link    1 at Mon Sep 13 14:39:41 2021, MaxMem= 16106127360 cpu:               2.1 elap:               0.1
 (Enter /sw/contrib/gaussian/g16/B01/g16/l101.exe)
 -----
 title
 -----
 Symbolic Z-matrix:
 Charge = -1 Multiplicity = 1
 O
 X                    1     10. 
 Cl                   1    r2       2     90. 
 Cl                   1    r3       2     90.      3    a2       0
 H                    1    r1       2    oop      3    a1       0
       Variables:
  r1                    1.01773                  
  r2                    1.685   -1        0.     
  r3                    3.07067 -1        0.     
  a1                  103.50791 -1        0.     
  a2                  106.18684 -1        0.     
  OOP                  75.      -1        0.     
 
 ITRead=  0  0  0  0
 MicOpt= -1 -1 -1 -1
 NAtoms=      4 NQM=        4 NQMF=       0 NMMI=      0 NMMIF=      0
                NMic=       0 NMicF=      0.
                    Isotopes and Nuclear Properties:
 (Nuclear quadrupole moments (NQMom) in fm**2, nuclear magnetic moments (NMagM)
  in nuclear magnetons)

  Atom         1           2           3           4
 IAtWgt=          16          35          35           1
 AtmWgt=  15.9949146  34.9688527  34.9688527   1.0078250
 NucSpn=           0           3           3           1
 AtZEff=  -0.0000000  -0.0000000  -0.0000000  -0.0000000
 NQMom=    0.0000000  -8.1650000  -8.1650000   0.0000000
 NMagM=    0.0000000   0.8218740   0.8218740   2.7928460
 AtZNuc=   8.0000000  17.0000000  17.0000000   1.0000000
 Leave Link  101 at Mon Sep 13 14:39:41 2021, MaxMem= 16106127360 cpu:               2.7 elap:               0.1
 (Enter /sw/contrib/gaussian/g16/B01/g16/l103.exe)

 GradGradGradGradGradGradGradGradGradGradGradGradGradGradGradGradGradGrad
 Berny optimization.
 Initialization pass.
                       ----------------------------
                       !    Initial Parameters    !
                       ! (Angstroms and Degrees)  !
 ----------------------                            ----------------------
 !      Name          Value   Derivative information (Atomic Units)     !
 ------------------------------------------------------------------------
 !       r1          1.0177   estimate D2E/DX2                          !
 !       r2          1.685    Frozen                                    !
 !       r3          3.0707   Frozen                                    !
 !       a1        103.5079   Frozen                                    !
 !       a2        106.1868   Frozen                                    !
 !       OOP        75.0      Frozen                                    !
 ------------------------------------------------------------------------
 Trust Radius=3.00D-01 FncErr=1.00D-07 GrdErr=1.00D-07 EigMax=2.50D+02 EigMin=1.00D-04
 Number of steps in this run=     20 maximum allowed number of steps=    100.
 GradGradGradGradGradGradGradGradGradGradGradGradGradGradGradGradGradGrad

 Leave Link  103 at Mon Sep 13 14:39:41 2021, MaxMem= 16106127360 cpu:               0.7 elap:               0.1
 (Enter /sw/contrib/gaussian/g16/B01/g16/l202.exe)
 ---------------------------------------------------------------------------------------------------
                            Z-MATRIX (ANGSTROMS AND DEGREES)
   CD    Cent   Atom    N1       Length/X        N2       Alpha/Y        N3        Beta/Z          J
 ---------------------------------------------------------------------------------------------------
      1      1  O 
      2         X        1  10.000000(     1)
      3      2  Cl       1   1.685000(     2)      2   90.000(     5)
      4      3  Cl       1   3.070672(     3)      2   90.000(     6)      3  106.187(     8)      0
      5      4  H        1   1.017728(     4)      2   75.000(     7)      3  103.508(     9)      0
 ---------------------------------------------------------------------------------------------------
                         Z-Matrix orientation:                         
 ---------------------------------------------------------------------
 Center     Atomic      Atomic             Coordinates (Angstroms)
 Number     Number       Type             X           Y           Z
 ---------------------------------------------------------------------
      1          8           0        0.000000    0.000000    0.000000
      2         -1           0        0.000000    0.000000   10.000000
      3         17           0        1.685000    0.000000    0.000000
      4         17           0       -0.856013   -2.948944    0.000000
      5          1           0       -0.229620   -0.955856    0.263407
 ---------------------------------------------------------------------
                    Distance matrix (angstroms):
                    1          2          3          4          5
     1  O    0.000000
     2  X   10.000000   0.000000
     3  Cl   1.685000  10.140968   0.000000
     4  Cl   3.070672  10.460833   3.892688   0.000000
     5  H    1.017728   9.786093   2.156111   2.105743   0.000000
 Stoichiometry    Cl2HO(1-)
 Framework group  C1[X(Cl2HO)]
 Deg. of freedom     6
 Full point group                 C1      NOp   1
 Largest Abelian subgroup         C1      NOp   1
 Largest concise Abelian subgroup C1      NOp   1
                         Standard orientation:                         
 ---------------------------------------------------------------------
 Center     Atomic      Atomic             Coordinates (Angstroms)
 Number     Number       Type             X           Y           Z
 ---------------------------------------------------------------------
      1          8           0        0.745564    0.979420   -0.020225
      2         17           0        1.772350   -0.356448   -0.000383
      3         17           0       -2.114243   -0.138744   -0.004731
      4          1           0       -0.152324    0.582905    0.248740
 ---------------------------------------------------------------------
 Rotational constants (GHZ):          24.2299647           1.8368150           1.7081664
 Leave Link  202 at Mon Sep 13 14:39:41 2021, MaxMem= 16106127360 cpu:               0.6 elap:               0.1
 (Enter /sw/contrib/gaussian/g16/B01/g16/l301.exe)
 Standard basis: Aug-CC-pVTZ (5D, 7F)
 Ernie: Thresh=  0.10000D-02 Tol=  0.10000D-05 Strict=F.
 Ernie:  29 primitive shells out of 169 were deleted.
 There are   198 symmetry adapted cartesian basis functions of A   symmetry.
 There are   169 symmetry adapted basis functions of A   symmetry.
   169 basis functions,   327 primitive gaussians,   198 cartesian basis functions
    22 alpha electrons       22 beta electrons
       nuclear repulsion energy       118.0394806560 Hartrees.
 IExCor=    0 DFT=F Ex=HF Corr=None ExCW=0 ScaHFX=  1.000000
 ScaDFX=  1.000000  1.000000  1.000000  1.000000 ScalE2=  1.000000  1.000000
 IRadAn=      5 IRanWt=     -1 IRanGd=            0 ICorTp=0 IEmpDi=  4
 NAtoms=    4 NActive=    4 NUniq=    4 SFac= 1.00D+00 NAtFMM=   60 NAOKFM=F Big=F
 Integral buffers will be    131072 words long.
 Raffenetti 1 integral format.
 Two-electron integral symmetry is turned on.
 Leave Link  301 at Mon Sep 13 14:39:41 2021, MaxMem= 16106127360 cpu:               1.7 elap:               0.1
 (Enter /sw/contrib/gaussian/g16/B01/g16/l302.exe)
 NPDir=0 NMtPBC=     1 NCelOv=     1 NCel=       1 NClECP=     1 NCelD=      1
         NCelK=      1 NCelE2=     1 NClLst=     1 CellRange=     0.0.
 One-electron integrals computed using PRISM.
 One-electron integral symmetry used in STVInt
 NBasis=   169 RedAO= T EigKep=  2.67D-04  NBF=   169
 NBsUse=   169 1.00D-06 EigRej= -1.00D+00 NBFU=   169
 Leave Link  302 at Mon Sep 13 14:39:42 2021, MaxMem= 16106127360 cpu:               8.2 elap:               0.3
 (Enter /sw/contrib/gaussian/g16/B01/g16/l303.exe)
 DipDrv:  MaxL=1.
 Leave Link  303 at Mon Sep 13 14:39:42 2021, MaxMem= 16106127360 cpu:               0.8 elap:               0.1
 (Enter /sw/contrib/gaussian/g16/B01/g16/l401.exe)
 ExpMin= 2.53D-02 ExpMax= 4.56D+05 ExpMxC= 1.44D+03 IAcc=3 IRadAn=         5 AccDes= 0.00D+00
 Harris functional with IExCor=  205 and IRadAn=       5 diagonalized for initial guess.
 HarFok:  IExCor=  205 AccDes= 0.00D+00 IRadAn=         5 IDoV= 1 UseB2=F ITyADJ=14
 ICtDFT=  3500011 ScaDFX=  1.000000  1.000000  1.000000  1.000000
 FoFCou: FMM=F IPFlag=           0 FMFlag=      100000 FMFlg1=           0
         NFxFlg=           0 DoJE=T BraDBF=F KetDBF=T FulRan=T
         wScrn=  0.000000 ICntrl=       500 IOpCl=  0 I1Cent=   200000004 NGrid=           0
         NMat0=    1 NMatS0=      1 NMatT0=    0 NMatD0=    1 NMtDS0=    0 NMtDT0=    0
 Petite list used in FoFCou.
 Harris En= -993.817810947142    
 JPrj=0 DoOrth=F DoCkMO=F.
 Leave Link  401 at Mon Sep 13 14:39:42 2021, MaxMem= 16106127360 cpu:               7.6 elap:               0.3
 (Enter /sw/contrib/gaussian/g16/B01/g16/l502.exe)
 Keep R1 ints in memory in canonical form, NReq=117117752.
 FoFCou: FMM=F IPFlag=           0 FMFlag=           0 FMFlg1=           0
         NFxFlg=           0 DoJE=F BraDBF=F KetDBF=F FulRan=T
         wScrn=  0.000000 ICntrl=       600 IOpCl=  0 I1Cent=           0 NGrid=           0
         NMat0=    1 NMatS0=  14365 NMatT0=    0 NMatD0=    1 NMtDS0=    0 NMtDT0=    0
 Symmetry not used in FoFCou.
 Two-electron integral symmetry not used.
 Closed shell SCF:
 Using DIIS extrapolation, IDIIS=  1040.
 NGot= 16106127360 LenX= 16002857927 LenY= 16002818282
 Requested convergence on RMS density matrix=1.00D-08 within 128 cycles.
 Requested convergence on MAX density matrix=1.00D-06.
 Requested convergence on             energy=1.00D-06.
 No special actions if energy rises.

 Cycle   1  Pass 1  IDiag  1:
 E= -994.396273982672    
 DIIS: error= 2.68D-02 at cycle   1 NSaved=   1.
 NSaved= 1 IEnMin= 1 EnMin= -994.396273982672     IErMin= 1 ErrMin= 2.68D-02
 ErrMax= 2.68D-02  0.00D+00 EMaxC= 1.00D-01 BMatC= 4.19D-01 BMatP= 4.19D-01
 IDIUse=3 WtCom= 7.32D-01 WtEn= 2.68D-01
 Coeff-Com:  0.100D+01
 Coeff-En:   0.100D+01
 Coeff:      0.100D+01
 Gap=     0.555 Goal=   None    Shift=    0.000
 GapD=    0.555 DampG=2.000 DampE=0.500 DampFc=1.0000 IDamp=-1.
 RMSDP=2.10D-03 MaxDP=7.08D-02              OVMax= 1.19D-01

 Cycle   2  Pass 1  IDiag  1:
 E= -994.489958020201     Delta-E=       -0.093684037530 Rises=F Damp=F
 DIIS: error= 2.11D-02 at cycle   2 NSaved=   2.
 NSaved= 2 IEnMin= 2 EnMin= -994.489958020201     IErMin= 2 ErrMin= 2.11D-02
 ErrMax= 2.11D-02  0.00D+00 EMaxC= 1.00D-01 BMatC= 4.64D-02 BMatP= 4.19D-01
 IDIUse=3 WtCom= 7.89D-01 WtEn= 2.11D-01
 Coeff-Com:  0.160D+00 0.840D+00
 Coeff-En:   0.000D+00 0.100D+01
 Coeff:      0.127D+00 0.873D+00
 Gap=     0.366 Goal=   None    Shift=    0.000
 RMSDP=9.60D-04 MaxDP=3.89D-02 DE=-9.37D-02 OVMax= 7.68D-02

 Cycle   3  Pass 1  IDiag  1:
 E= -994.512672939879     Delta-E=       -0.022714919678 Rises=F Damp=F
 DIIS: error= 9.73D-03 at cycle   3 NSaved=   3.
 NSaved= 3 IEnMin= 3 EnMin= -994.512672939879     IErMin= 3 ErrMin= 9.73D-03
 ErrMax= 9.73D-03  0.00D+00 EMaxC= 1.00D-01 BMatC= 1.41D-02 BMatP= 4.64D-02
 IDIUse=3 WtCom= 9.03D-01 WtEn= 9.73D-02
 Coeff-Com: -0.149D-01 0.346D+00 0.669D+00
 Coeff-En:   0.000D+00 0.138D+00 0.862D+00
 Coeff:     -0.135D-01 0.325D+00 0.688D+00
 Gap=     0.352 Goal=   None    Shift=    0.000
 RMSDP=3.58D-04 MaxDP=1.27D-02 DE=-2.27D-02 OVMax= 3.57D-02

 Cycle   4  Pass 1  IDiag  1:
 E= -994.522210491002     Delta-E=       -0.009537551123 Rises=F Damp=F
 DIIS: error= 1.47D-03 at cycle   4 NSaved=   4.
 NSaved= 4 IEnMin= 4 EnMin= -994.522210491002     IErMin= 4 ErrMin= 1.47D-03
 ErrMax= 1.47D-03  0.00D+00 EMaxC= 1.00D-01 BMatC= 1.84D-04 BMatP= 1.41D-02
 IDIUse=3 WtCom= 9.85D-01 WtEn= 1.47D-02
 Coeff-Com: -0.419D-02 0.257D-01 0.119D+00 0.859D+00
 Coeff-En:   0.000D+00 0.000D+00 0.000D+00 0.100D+01
 Coeff:     -0.412D-02 0.253D-01 0.117D+00 0.862D+00
 Gap=     0.345 Goal=   None    Shift=    0.000
 RMSDP=5.45D-05 MaxDP=1.36D-03 DE=-9.54D-03 OVMax= 3.06D-03

 Cycle   5  Pass 1  IDiag  1:
 E= -994.522394385536     Delta-E=       -0.000183894534 Rises=F Damp=F
 DIIS: error= 2.71D-04 at cycle   5 NSaved=   5.
 NSaved= 5 IEnMin= 5 EnMin= -994.522394385536     IErMin= 5 ErrMin= 2.71D-04
 ErrMax= 2.71D-04  0.00D+00 EMaxC= 1.00D-01 BMatC= 1.52D-05 BMatP= 1.84D-04
 IDIUse=3 WtCom= 9.97D-01 WtEn= 2.71D-03
 Coeff-Com:  0.968D-03-0.397D-01-0.697D-01 0.888D-02 0.110D+01
 Coeff-En:   0.000D+00 0.000D+00 0.000D+00 0.000D+00 0.100D+01
 Coeff:      0.966D-03-0.396D-01-0.696D-01 0.885D-02 0.110D+01
 Gap=     0.347 Goal=   None    Shift=    0.000
 RMSDP=3.13D-05 MaxDP=7.47D-04 DE=-1.84D-04 OVMax= 3.06D-03

 Cycle   6  Pass 1  IDiag  1:
 E= -994.522432462426     Delta-E=       -0.000038076890 Rises=F Damp=F
 DIIS: error= 1.42D-04 at cycle   6 NSaved=   6.
 NSaved= 6 IEnMin= 6 EnMin= -994.522432462426     IErMin= 6 ErrMin= 1.42D-04
 ErrMax= 1.42D-04  0.00D+00 EMaxC= 1.00D-01 BMatC= 1.95D-06 BMatP= 1.52D-05
 IDIUse=3 WtCom= 9.99D-01 WtEn= 1.42D-03
 Coeff-Com:  0.265D-03 0.850D-02 0.151D-01-0.739D-01-0.411D+00 0.146D+01
 Coeff-En:   0.000D+00 0.000D+00 0.000D+00 0.000D+00 0.000D+00 0.100D+01
 Coeff:      0.265D-03 0.849D-02 0.151D-01-0.738D-01-0.410D+00 0.146D+01
 Gap=     0.347 Goal=   None    Shift=    0.000
 RMSDP=1.61D-05 MaxDP=4.11D-04 DE=-3.81D-05 OVMax= 1.58D-03

 Cycle   7  Pass 1  IDiag  1:
 E= -994.522439378136     Delta-E=       -0.000006915709 Rises=F Damp=F
 DIIS: error= 3.18D-05 at cycle   7 NSaved=   7.
 NSaved= 7 IEnMin= 7 EnMin= -994.522439378136     IErMin= 7 ErrMin= 3.18D-05
 ErrMax= 3.18D-05  0.00D+00 EMaxC= 1.00D-01 BMatC= 1.19D-07 BMatP= 1.95D-06
 IDIUse=1 WtCom= 1.00D+00 WtEn= 0.00D+00
 Coeff-Com: -0.180D-03-0.716D-03-0.532D-03 0.281D-01 0.862D-01-0.601D+00
 Coeff-Com:  0.149D+01
 Coeff:     -0.180D-03-0.716D-03-0.532D-03 0.281D-01 0.862D-01-0.601D+00
 Coeff:      0.149D+01
 Gap=     0.347 Goal=   None    Shift=    0.000
 RMSDP=4.96D-06 MaxDP=1.38D-04 DE=-6.92D-06 OVMax= 4.87D-04

 Cycle   8  Pass 1  IDiag  1:
 E= -994.522439922173     Delta-E=       -0.000000544037 Rises=F Damp=F
 DIIS: error= 7.24D-06 at cycle   8 NSaved=   8.
 NSaved= 8 IEnMin= 8 EnMin= -994.522439922173     IErMin= 8 ErrMin= 7.24D-06
 ErrMax= 7.24D-06  0.00D+00 EMaxC= 1.00D-01 BMatC= 8.56D-09 BMatP= 1.19D-07
 IDIUse=1 WtCom= 1.00D+00 WtEn= 0.00D+00
 Coeff-Com:  0.105D-04-0.705D-03-0.110D-02 0.178D-02 0.204D-01-0.381D-01
 Coeff-Com: -0.148D+00 0.117D+01
 Coeff:      0.105D-04-0.705D-03-0.110D-02 0.178D-02 0.204D-01-0.381D-01
 Coeff:     -0.148D+00 0.117D+01
 Gap=     0.347 Goal=   None    Shift=    0.000
 RMSDP=1.08D-06 MaxDP=2.92D-05 DE=-5.44D-07 OVMax= 1.22D-04

 Cycle   9  Pass 1  IDiag  1:
 E= -994.522439953042     Delta-E=       -0.000000030869 Rises=F Damp=F
 DIIS: error= 3.44D-06 at cycle   9 NSaved=   9.
 NSaved= 9 IEnMin= 9 EnMin= -994.522439953042     IErMin= 9 ErrMin= 3.44D-06
 ErrMax= 3.44D-06  0.00D+00 EMaxC= 1.00D-01 BMatC= 1.25D-09 BMatP= 8.56D-09
 IDIUse=1 WtCom= 1.00D+00 WtEn= 0.00D+00
 Coeff-Com:  0.172D-04 0.229D-03 0.349D-03-0.376D-02-0.156D-01 0.850D-01
 Coeff-Com: -0.160D+00-0.223D+00 0.132D+01
 Coeff:      0.172D-04 0.229D-03 0.349D-03-0.376D-02-0.156D-01 0.850D-01
 Coeff:     -0.160D+00-0.223D+00 0.132D+01
 Gap=     0.347 Goal=   None    Shift=    0.000
 RMSDP=5.43D-07 MaxDP=1.30D-05 DE=-3.09D-08 OVMax= 6.50D-05

 Cycle  10  Pass 1  IDiag  1:
 E= -994.522439959190     Delta-E=       -0.000000006148 Rises=F Damp=F
 DIIS: error= 1.69D-06 at cycle  10 NSaved=  10.
 NSaved=10 IEnMin=10 EnMin= -994.522439959190     IErMin=10 ErrMin= 1.69D-06
 ErrMax= 1.69D-06  0.00D+00 EMaxC= 1.00D-01 BMatC= 1.97D-10 BMatP= 1.25D-09
 IDIUse=1 WtCom= 1.00D+00 WtEn= 0.00D+00
 Coeff-Com: -0.307D-05 0.394D-04 0.173D-04 0.572D-03 0.106D-02-0.137D-01
 Coeff-Com:  0.585D-01-0.156D+00-0.214D+00 0.132D+01
 Coeff:     -0.307D-05 0.394D-04 0.173D-04 0.572D-03 0.106D-02-0.137D-01
 Coeff:      0.585D-01-0.156D+00-0.214D+00 0.132D+01
 Gap=     0.347 Goal=   None    Shift=    0.000
 RMSDP=2.42D-07 MaxDP=6.56D-06 DE=-6.15D-09 OVMax= 2.88D-05

 Cycle  11  Pass 1  IDiag  1:
 E= -994.522439960152     Delta-E=       -0.000000000962 Rises=F Damp=F
 DIIS: error= 5.13D-07 at cycle  11 NSaved=  11.
 NSaved=11 IEnMin=11 EnMin= -994.522439960152     IErMin=11 ErrMin= 5.13D-07
 ErrMax= 5.13D-07  0.00D+00 EMaxC= 1.00D-01 BMatC= 1.52D-11 BMatP= 1.97D-10
 IDIUse=1 WtCom= 1.00D+00 WtEn= 0.00D+00
 Coeff-Com: -0.261D-05-0.232D-04-0.247D-04 0.410D-03 0.146D-02-0.806D-02
 Coeff-Com:  0.117D-01 0.431D-01-0.102D+00-0.265D+00 0.132D+01
 Coeff:     -0.261D-05-0.232D-04-0.247D-04 0.410D-03 0.146D-02-0.806D-02
 Coeff:      0.117D-01 0.431D-01-0.102D+00-0.265D+00 0.132D+01
 Gap=     0.347 Goal=   None    Shift=    0.000
 RMSDP=7.40D-08 MaxDP=2.09D-06 DE=-9.62D-10 OVMax= 8.47D-06

 Cycle  12  Pass 1  IDiag  1:
 E= -994.522439960232     Delta-E=       -0.000000000080 Rises=F Damp=F
 DIIS: error= 9.59D-08 at cycle  12 NSaved=  12.
 NSaved=12 IEnMin=12 EnMin= -994.522439960232     IErMin=12 ErrMin= 9.59D-08
 ErrMax= 9.59D-08  0.00D+00 EMaxC= 1.00D-01 BMatC= 7.30D-13 BMatP= 1.52D-11
 IDIUse=1 WtCom= 1.00D+00 WtEn= 0.00D+00
 Coeff-Com:  0.631D-06 0.689D-07 0.336D-06-0.914D-04-0.259D-03 0.190D-02
 Coeff-Com: -0.482D-02 0.129D-02 0.289D-01-0.307D-01-0.207D+00 0.121D+01
 Coeff:      0.631D-06 0.689D-07 0.336D-06-0.914D-04-0.259D-03 0.190D-02
 Coeff:     -0.482D-02 0.129D-02 0.289D-01-0.307D-01-0.207D+00 0.121D+01
 Gap=     0.347 Goal=   None    Shift=    0.000
 RMSDP=1.29D-08 MaxDP=2.96D-07 DE=-8.05D-11 OVMax= 1.15D-06

 Cycle  13  Pass 1  IDiag  1:
 E= -994.522439960237     Delta-E=       -0.000000000004 Rises=F Damp=F
 DIIS: error= 2.14D-08 at cycle  13 NSaved=  13.
 NSaved=13 IEnMin=13 EnMin= -994.522439960237     IErMin=13 ErrMin= 2.14D-08
 ErrMax= 2.14D-08  0.00D+00 EMaxC= 1.00D-01 BMatC= 7.98D-14 BMatP= 7.30D-13
 IDIUse=1 WtCom= 1.00D+00 WtEn= 0.00D+00
 Coeff-Com:  0.179D-06 0.212D-05 0.186D-05-0.286D-04-0.108D-03 0.565D-03
 Coeff-Com: -0.619D-03-0.436D-02 0.749D-02 0.278D-01-0.118D+00-0.681D-01
 Coeff-Com:  0.115D+01
 Coeff:      0.179D-06 0.212D-05 0.186D-05-0.286D-04-0.108D-03 0.565D-03
 Coeff:     -0.619D-03-0.436D-02 0.749D-02 0.278D-01-0.118D+00-0.681D-01
 Coeff:      0.115D+01
 Gap=     0.347 Goal=   None    Shift=    0.000
 RMSDP=4.05D-09 MaxDP=8.42D-08 DE=-4.32D-12 OVMax= 3.42D-07

 SCF Done:  E(RHF) =  -994.522439960     A.U. after   13 cycles
            NFock= 13  Conv=0.40D-08     -V/T= 2.0002
 KE= 9.943081040735D+02 PE=-2.613586357074D+03 EE= 5.067163323840D+02
 Leave Link  502 at Mon Sep 13 14:39:45 2021, MaxMem= 16106127360 cpu:              26.0 elap:               3.2
 (Enter /sw/contrib/gaussian/g16/B01/g16/l801.exe)
 ExpMin= 2.53D-02 ExpMax= 4.56D+05 ExpMxC= 1.44D+03 IAcc=3 IRadAn=         5 AccDes= 0.00D+00
 HarFok:  IExCor=  205 AccDes= 0.00D+00 IRadAn=         5 IDoV=-2 UseB2=F ITyADJ=14
 ICtDFT= 12500011 ScaDFX=  1.000000  1.000000  1.000000  1.000000
 Largest valence mixing into a core orbital is  4.47D-04
 Largest core mixing into a valence orbital is  1.75D-04
 Range of M.O.s used for correlation:    12   169
 NBasis=   169 NAE=    22 NBE=    22 NFC=    11 NFV=     0
 NROrb=    158 NOA=    11 NOB=    11 NVA=   147 NVB=   147

 **** Warning!!: The largest alpha MO coefficient is  0.13511376D+02

 Leave Link  801 at Mon Sep 13 14:39:46 2021, MaxMem= 16106127360 cpu:               6.7 elap:               0.3
 (Enter /sw/contrib/gaussian/g16/B01/g16/l906.exe)
 Frozen-core derivative calculation, NFC=  11 NFV=   0.
 FulOut=F Deriv=T AODrv=T NAtomX=     4
   MMem=         144  MDisk=          11 MDiskD=          11
  W3Min=      736164 MinDsk=     1250177 NBas6D=         198
 NBas2D=       20187    NTT=       19701    LW2=     3500000
    MDV= 16105749750 MDiskM=      406660 NBas2p=       20001
 Fully direct method using O(ONN) memory.
 IMap=   1   2   3   4   5   6   7   8   9  10  11  12  13  14  15  16  17  18  19  20
 IMap=  21  22
 JobTyp=1 Pass  1:  I=  12 to  22 NPSUse= 28 ParTrn=T ParDer=T DoDerP=T.
 Spin components of T(2) and E(2):
     alpha-alpha T2 =       0.2917495597D-01 E2=     -0.8369670189D-01
     alpha-beta  T2 =       0.1597420112D+00 E2=     -0.4979096090D+00
     beta-beta   T2 =       0.2917495597D-01 E2=     -0.8369670189D-01
 The integrals were generated   1 times.
 ANorm=    0.1103672018D+01
 E2 =    -0.6653030128D+00 EUMP2 =    -0.99518774297301D+03
 Leave Link  906 at Mon Sep 13 14:39:57 2021, MaxMem= 16106127360 cpu:             308.9 elap:              11.1
 (Enter /sw/contrib/gaussian/g16/B01/g16/l1002.exe)
 Minotr:  Closed shell wavefunction.
          Computing MP2/KS-MP2 derivatives.
          Using Z-Vector for PSCF gradient.
          Skipping F1 and S1 gradient terms here.
          IDoAtm=1111
          Frozen-core window.
          Direct CPHF calculation.
          Differentiating once with respect to electric field.
                with respect to dipole field.
          Differentiating once with respect to nuclear coordinates.
          Requested convergence is 1.0D-10 RMS, and 1.0D-09 maximum.
          NewPWx=F KeepS1=T KeepF1=T KeepIn=T MapXYZ=F SortEE=F KeepMc=T.
 Keep R1 ints in memory in canonical form, NReq=117120983.
 FoFCou: FMM=F IPFlag=           0 FMFlag=           0 FMFlg1=           0
         NFxFlg=           0 DoJE=F BraDBF=F KetDBF=F FulRan=T
         wScrn=  0.000000 ICntrl=       600 IOpCl=  0 I1Cent=           0 NGrid=           0
         NMat0=    1 NMatS0=  14365 NMatT0=    0 NMatD0=    1 NMtDS0=    0 NMtDT0=    0
 Symmetry not used in FoFCou.
 Two-electron integral symmetry not used.
          MDV=   16106127360 using IRadAn=       5.
          Solving linear equations separately, MaxMat=       0.
          There are     1 degrees of freedom in the 1st order CPHF.  IDoFFX=0 NUNeed=     1.
 LinEq1:  Iter=  0 NonCon=     1 RMS=3.06D-03 Max=3.84D-02 NDo=     1
 AX will form     1 AO Fock derivatives at one time.
 LinEq1:  Iter=  1 NonCon=     1 RMS=3.83D-04 Max=4.80D-03 NDo=     1
 LinEq1:  Iter=  2 NonCon=     1 RMS=1.60D-04 Max=3.03D-03 NDo=     1
 LinEq1:  Iter=  3 NonCon=     1 RMS=6.30D-05 Max=9.22D-04 NDo=     1
 LinEq1:  Iter=  4 NonCon=     1 RMS=2.60D-05 Max=6.16D-04 NDo=     1
 LinEq1:  Iter=  5 NonCon=     1 RMS=6.07D-06 Max=8.62D-05 NDo=     1
 LinEq1:  Iter=  6 NonCon=     1 RMS=1.84D-06 Max=3.53D-05 NDo=     1
 LinEq1:  Iter=  7 NonCon=     1 RMS=5.54D-07 Max=1.24D-05 NDo=     1
 LinEq1:  Iter=  8 NonCon=     1 RMS=1.18D-07 Max=1.81D-06 NDo=     1
 LinEq1:  Iter=  9 NonCon=     1 RMS=2.61D-08 Max=2.66D-07 NDo=     1
 LinEq1:  Iter= 10 NonCon=     1 RMS=6.48D-09 Max=1.31D-07 NDo=     1
 LinEq1:  Iter= 11 NonCon=     1 RMS=1.61D-09 Max=3.12D-08 NDo=     1
 LinEq1:  Iter= 12 NonCon=     1 RMS=5.03D-10 Max=8.92D-09 NDo=     1
 LinEq1:  Iter= 13 NonCon=     1 RMS=1.14D-10 Max=1.47D-09 NDo=     1
 LinEq1:  Iter= 14 NonCon=     0 RMS=2.34D-11 Max=2.15D-10 NDo=     1
 Linear equations converged to 1.000D-10 1.000D-09 after    14 iterations.
 End of Minotr F.D. properties file   721 does not exist.
 End of Minotr F.D. properties file   722 does not exist.
 End of Minotr F.D. properties file   788 does not exist.
 Leave Link 1002 at Mon Sep 13 14:40:01 2021, MaxMem= 16106127360 cpu:              35.2 elap:               4.1
 (Enter /sw/contrib/gaussian/g16/B01/g16/l601.exe)
 Copying SCF densities to generalized density rwf, IOpCl= 0 IROHF=0.

 **********************************************************************

            Population analysis using the MP2 Density.

 **********************************************************************

 Orbital symmetries:
       Occupied  (A) (A) (A) (A) (A) (A) (A) (A) (A) (A) (A) (A)
                 (A) (A) (A) (A) (A) (A) (A) (A) (A) (A)
       Virtual   (A) (A) (A) (A) (A) (A) (A) (A) (A) (A) (A) (A)
                 (A) (A) (A) (A) (A) (A) (A) (A) (A) (A) (A) (A)
                 (A) (A) (A) (A) (A) (A) (A) (A) (A) (A) (A) (A)
                 (A) (A) (A) (A) (A) (A) (A) (A) (A) (A) (A) (A)
                 (A) (A) (A) (A) (A) (A) (A) (A) (A) (A) (A) (A)
                 (A) (A) (A) (A) (A) (A) (A) (A) (A) (A) (A) (A)
                 (A) (A) (A) (A) (A) (A) (A) (A) (A) (A) (A) (A)
                 (A) (A) (A) (A) (A) (A) (A) (A) (A) (A) (A) (A)
                 (A) (A) (A) (A) (A) (A) (A) (A) (A) (A) (A) (A)
                 (A) (A) (A) (A) (A) (A) (A) (A) (A) (A) (A) (A)
                 (A) (A) (A) (A) (A) (A) (A) (A) (A) (A) (A) (A)
                 (A) (A) (A) (A) (A) (A) (A) (A) (A) (A) (A) (A)
                 (A) (A) (A)
 The electronic state is 1-A.
 Alpha  occ. eigenvalues -- -104.73444-104.54282 -20.46771 -10.45397 -10.26715
 Alpha  occ. eigenvalues --   -7.92115  -7.91849  -7.91838  -7.73328  -7.73316
 Alpha  occ. eigenvalues --   -7.73316  -1.23142  -0.89813  -0.77731  -0.54058
 Alpha  occ. eigenvalues --   -0.44566  -0.43693  -0.31078  -0.28409  -0.19643
 Alpha  occ. eigenvalues --   -0.18902  -0.18874
 Alpha virt. eigenvalues --    0.15863   0.18230   0.22508   0.23091   0.25862
 Alpha virt. eigenvalues --    0.27285   0.27720   0.28665   0.31156   0.31616
 Alpha virt. eigenvalues --    0.33395   0.34721   0.39507   0.43116   0.45788
 Alpha virt. eigenvalues --    0.49887   0.51086   0.54118   0.55092   0.57342
 Alpha virt. eigenvalues --    0.57705   0.59234   0.60166   0.64591   0.66114
 Alpha virt. eigenvalues --    0.66751   0.68137   0.73125   0.76608   0.78173
 Alpha virt. eigenvalues --    0.84441   0.87133   0.88823   0.89399   0.90555
 Alpha virt. eigenvalues --    0.90838   0.96479   0.98055   1.02048   1.06635
 Alpha virt. eigenvalues --    1.06725   1.09142   1.09400   1.09980   1.12506
 Alpha virt. eigenvalues --    1.14691   1.16891   1.18823   1.19254   1.19631
 Alpha virt. eigenvalues --    1.20836   1.22968   1.26647   1.29701   1.31318
 Alpha virt. eigenvalues --    1.35081   1.38351   1.40929   1.43218   1.43391
 Alpha virt. eigenvalues --    1.46322   1.47804   1.51107   1.57736   1.60468
 Alpha virt. eigenvalues --    1.62886   1.66504   1.67334   1.67984   1.74236
 Alpha virt. eigenvalues --    1.80521   1.83537   1.84875   1.88239   1.93118
 Alpha virt. eigenvalues --    1.97254   2.23035   2.39235   2.45788   2.49703
 Alpha virt. eigenvalues --    2.51285   2.55697   2.58977   2.61550   2.64371
 Alpha virt. eigenvalues --    2.67981   2.70339   2.71544   2.71630   2.74697
 Alpha virt. eigenvalues --    2.76489   2.78714   2.80080   2.81496   2.89627
 Alpha virt. eigenvalues --    2.91554   2.91803   2.95897   3.05499   3.06533
 Alpha virt. eigenvalues --    3.07287   3.10512   3.19051   3.20836   3.21573
 Alpha virt. eigenvalues --    3.26145   3.29428   3.33017   3.33556   3.34345
 Alpha virt. eigenvalues --    3.36612   3.38792   3.39485   3.49276   3.50349
 Alpha virt. eigenvalues --    3.53301   3.54957   3.56161   3.62040   3.92077
 Alpha virt. eigenvalues --    4.17044   4.31532   4.46031   4.54391   4.56306
 Alpha virt. eigenvalues --    4.75672   4.97561   5.05119   5.32851   5.39860
 Alpha virt. eigenvalues --    5.65328   6.21929   6.51081   6.57362   6.86086
 Alpha virt. eigenvalues --    6.89906   6.91583   6.98426   7.28452   7.31602
 Alpha virt. eigenvalues --    7.34250   7.43433   7.53682   7.73425   7.77753
 Alpha virt. eigenvalues --    8.33262  14.30617
          Condensed to atoms (all electrons):
               1          2          3          4
     1  O    8.598444  -0.115769  -0.069840   0.054961
     2  Cl  -0.115769  17.059930   0.006530  -0.001538
     3  Cl  -0.069840   0.006530  17.868559   0.073892
     4  H    0.054961  -0.001538   0.073892   0.576595
 Mulliken charges:
               1
     1  O   -0.467797
     2  Cl   0.050847
     3  Cl  -0.879140
     4  H    0.296090
 Sum of Mulliken charges =  -1.00000
 Mulliken charges with hydrogens summed into heavy atoms:
               1
     1  O   -0.171706
     2  Cl   0.050847
     3  Cl  -0.879140
 Electronic spatial extent (au):  <R**2>=            613.4179
 Charge=             -1.0000 electrons
 Dipole moment (field-independent basis, Debye):
    X=              6.2730    Y=             -0.2059    Z=              0.2601  Tot=              6.2818
 Quadrupole moment (field-independent basis, Debye-Ang):
   XX=            -57.3324   YY=            -37.3530   ZZ=            -36.6657
   XY=             -2.7861   XZ=             -0.0324   YZ=              0.2146
 Traceless Quadrupole moment (field-independent basis, Debye-Ang):
   XX=            -13.5487   YY=              6.4307   ZZ=              7.1180
   XY=             -2.7861   XZ=             -0.0324   YZ=              0.2146
 Octapole moment (field-independent basis, Debye-Ang**2):
  XXX=             55.8179  YYY=              0.4408  ZZZ=             -0.2619  XYY=              7.2819
  XXY=              0.4940  XXZ=             -1.0067  XZZ=              6.6518  YZZ=              1.0591
  YYZ=             -0.0644  XYZ=             -0.2423
 Hexadecapole moment (field-independent basis, Debye-Ang**3):
 XXXX=           -845.3880 YYYY=            -96.2798 ZZZZ=            -50.5377 XXXY=            -11.7173
 XXXZ=              0.9542 YYYX=             -6.8270 YYYZ=             -0.1669 ZZZX=              0.1604
 ZZZY=              0.0325 XXYY=           -139.7030 XXZZ=           -137.9820 YYZZ=            -25.0220
 XXYZ=             -0.0391 YYXZ=             -0.1320 ZZXY=             -0.1862
 N-N= 1.180394806560D+02 E-N=-2.613663587110D+03  KE= 9.949742186010D+02
 No NMR shielding tensors so no spin-rotation constants.
 Leave Link  601 at Mon Sep 13 14:40:01 2021, MaxMem= 16106127360 cpu:               4.3 elap:               0.2
 (Enter /sw/contrib/gaussian/g16/B01/g16/l701.exe)
 ... and contract with generalized density number  2.
 Compute integral first derivatives.
 Leave Link  701 at Mon Sep 13 14:40:02 2021, MaxMem= 16106127360 cpu:               7.1 elap:               0.3
 (Enter /sw/contrib/gaussian/g16/B01/g16/l702.exe)
 L702 exits ... SP integral derivatives will be done elsewhere.
 Leave Link  702 at Mon Sep 13 14:40:02 2021, MaxMem= 16106127360 cpu:               0.9 elap:               0.1
 (Enter /sw/contrib/gaussian/g16/B01/g16/l703.exe)
 Integral derivatives from FoFJK, PRISM(SPDF).
 Compute integral first derivatives, UseDBF=F ICtDFT=           0.
 Calling FoFJK, ICntrl=  10002127 FMM=F ISym2X=0 I1Cent= 0 IOpClX= 0 NMat=1 NMatS=1 NMatT=0.
 FoFJK:  IHMeth= 1 ICntrl=10002127 DoSepK=F KAlg= 0 I1Cent=           0 FoldK=F
 IRaf=         0 NMat=       1 IRICut=       1 DoRegI=T DoRafI=F ISym2E= 0 IDoP0=0 IntGTp=1.
 FoFCou: FMM=F IPFlag=           0 FMFlag=      100000 FMFlg1=         800
         NFxFlg=           0 DoJE=F BraDBF=F KetDBF=F FulRan=T
         wScrn=  0.000000 ICntrl=  10002127 IOpCl=  0 I1Cent=           0 NGrid=           0
         NMat0=    1 NMatS0=      1 NMatT0=    0 NMatD0=    1 NMtDS0=    0 NMtDT0=    0
 Symmetry not used in FoFCou.
 Leave Link  703 at Mon Sep 13 14:40:04 2021, MaxMem= 16106127360 cpu:              43.3 elap:               1.6
 (Enter /sw/contrib/gaussian/g16/B01/g16/l716.exe)
 Dipole        = 2.46798411D+00-8.09879977D-02 1.02324354D-01
 ***** Axes restored to original set *****
 -------------------------------------------------------------------
 Center     Atomic                   Forces (Hartrees/Bohr)
 Number     Number              X              Y              Z
 -------------------------------------------------------------------
      1        8          -0.002195869   -0.008421511    0.008419793
      2       17           0.000863798    0.000314280    0.000166031
      3       17           0.002099727    0.006587273    0.003916759
      4        1          -0.000767656    0.001519957   -0.012502583
 -------------------------------------------------------------------
 Cartesian Forces:  Max     0.012502583 RMS     0.005551766
 -----------------------------------------------------------------------------------------------
                       Internal Coordinate Forces (Hartree/Bohr or radian)
  Cent   Atom   N1       Length/X         N2         Alpha/Y        N3         Beta/Z          J
 -----------------------------------------------------------------------------------------------
      1  O 
         X        1   0.000000(     1)
      2  Cl       1   0.000864(     2)      2  -0.000529(     5)
      3  Cl       1  -0.006911(     3)      2  -0.022728(     6)      3  -0.001045(     8)     0
      4  H        1  -0.004490(     4)      2   0.022580(     7)      3   0.002046(     9)     0
 -----------------------------------------------------------------------------------------------
 Internal  Forces:  Max     0.022727892 RMS     0.011058583
 Force constants in Cartesian coordinates: 
                1             2             3             4             5 
      1  0.453069D+00
      2  0.537612D-01  0.477298D+00
      3 -0.457913D-02 -0.109888D+00  0.805809D-01
      4 -0.377580D+00  0.000000D+00  0.000000D+00  0.377580D+00
      5  0.380317D-01 -0.485470D-01  0.767785D-02  0.000000D+00  0.394666D-01
      6 -0.916107D-02  0.541916D-02 -0.117505D-01  0.000000D+00 -0.472752D-02
      7 -0.850439D-02  0.956902D-02 -0.552305D-04  0.000000D+00 -0.130967D-01
      8 -0.394803D-02 -0.248829D-01  0.160322D-04  0.000000D+00  0.380169D-02
      9  0.121944D-02  0.306375D-02  0.331129D-02  0.000000D+00 -0.369169D-03
     10 -0.669850D-01 -0.633302D-01  0.463437D-02  0.000000D+00 -0.249350D-01
     11 -0.878449D-01 -0.403868D+00  0.102194D+00  0.000000D+00  0.527871D-02
     12  0.125208D-01  0.101405D+00 -0.721417D-01  0.000000D+00 -0.258116D-02
                6             7             8             9            10 
      6  0.441012D-02
      7  0.493974D-03  0.876895D-02
      8 -0.143390D-03  0.387124D-02  0.209815D-01
      9  0.177451D-02  0.103842D-02 -0.301431D-03  0.556673D-02
     10  0.866710D-02 -0.264553D-03  0.767940D-04 -0.225786D-02  0.672495D-01
     11 -0.548247D-03 -0.343514D-03  0.997143D-04 -0.239315D-02  0.881884D-01
     12  0.556589D-02 -0.147717D-02  0.428788D-03 -0.106525D-01 -0.110436D-01
               11            12 
     11  0.398490D+00
     12 -0.992530D-01  0.772283D-01
 Force constants in internal coordinates: 
                1             2             3             4             5 
      1  0.000000D+00
      2  0.000000D+00  0.377580D+00
      3  0.000000D+00  0.000000D+00  0.221053D-01
      4  0.000000D+00  0.000000D+00  0.000000D+00  0.447026D+00
      5  0.000000D+00  0.000000D+00  0.000000D+00  0.000000D+00  0.447144D-01
      6  0.000000D+00  0.000000D+00  0.000000D+00  0.000000D+00  0.327876D-01
      7  0.000000D+00  0.000000D+00  0.000000D+00  0.000000D+00  0.352874D-01
      8  0.000000D+00  0.000000D+00  0.000000D+00  0.000000D+00  0.950391D-02
      9  0.000000D+00  0.000000D+00  0.000000D+00  0.000000D+00  0.506073D-01
                6             7             8             9 
      6  0.187441D+00
      7 -0.123076D+00  0.187448D+00
      8  0.364087D-01 -0.177711D-01  0.257427D+00
      9 -0.176400D-01  0.460329D-01 -0.198674D-02  0.156205D+00
 Leave Link  716 at Mon Sep 13 14:40:04 2021, MaxMem= 16106127360 cpu:               1.2 elap:               0.1
 (Enter /sw/contrib/gaussian/g16/B01/g16/l103.exe)

 GradGradGradGradGradGradGradGradGradGradGradGradGradGradGradGradGradGrad
 Berny optimization.
 Search for a local minimum.
 Step number   1 out of a maximum of   20
 All quantities printed in internal units (Hartrees-Bohrs-Radians)
 Second derivative matrix not updated -- first step.
 The second derivative matrix:
                          r1        r2        r3        a1        a2
           r1           0.44703
           r2           0.00000   0.37758
           r3          -0.00000   0.00000   0.02211
           a1          -0.00000  -0.00000   0.00000   0.15621
           a2          -0.00000  -0.00000  -0.00000  -0.00199   0.25743
           OOP          0.00000  -0.00000   0.00000   0.04603  -0.01777
                          OOP
           OOP          0.18745
 ITU=  0
     Eigenvalues ---    0.447031000.000001000.000001000.000001000.00000
     Eigenvalues --- 1000.00000
 RFO step:  Lambda=-4.51035031D-05 EMin= 4.47026108D-01
 Linear search not attempted -- first point.
 Variable       Old X    -DE/DX   Delta X   Delta X   Delta X     New X
                                 (Linear)    (Quad)   (Total)
    r1        1.92323  -0.00449   0.00000  -0.01004  -0.01004   1.91318
    r2        3.18419   0.00086   0.00000   0.00000   0.00000   3.18419
    r3        5.80273  -0.00691   0.00000   0.00000   0.00000   5.80273
    a1        1.80655   0.00205   0.00000   0.00000   0.00000   1.80655
    a2        1.85331  -0.00105   0.00000   0.00000   0.00000   1.85331
   OOP        1.30900   0.02258   0.00000   0.00000   0.00000   1.30900
         Item               Value     Threshold  Converged?
 Maximum Force            0.004490     0.000015     NO 
 RMS     Force            0.004490     0.000010     NO 
 Maximum Displacement     0.010044     0.000060     NO 
 RMS     Displacement     0.004100     0.000040     NO 
 Predicted change in Energy=-2.255175D-05
 Lowest energy point so far.  Saving SCF results.
 GradGradGradGradGradGradGradGradGradGradGradGradGradGradGradGradGradGrad

 Leave Link  103 at Mon Sep 13 14:40:04 2021, MaxMem= 16106127360 cpu:               0.5 elap:               0.0
 (Enter /sw/contrib/gaussian/g16/B01/g16/l202.exe)
 ---------------------------------------------------------------------------------------------------
                            Z-MATRIX (ANGSTROMS AND DEGREES)
   CD    Cent   Atom    N1       Length/X        N2       Alpha/Y        N3        Beta/Z          J
 ---------------------------------------------------------------------------------------------------
      1      1  O 
      2         X        1  10.000000(     1)
      3      2  Cl       1   1.685000(     2)      2   90.000(     5)
      4      3  Cl       1   3.070672(     3)      2   90.000(     6)      3  106.187(     8)      0
      5      4  H        1   1.012413(     4)      2   75.000(     7)      3  103.508(     9)      0
 ---------------------------------------------------------------------------------------------------
                         Z-Matrix orientation:                         
 ---------------------------------------------------------------------
 Center     Atomic      Atomic             Coordinates (Angstroms)
 Number     Number       Type             X           Y           Z
 ---------------------------------------------------------------------
      1          8           0        0.000000    0.000000    0.000000
      2         -1           0        0.000000    0.000000   10.000000
      3         17           0        1.685000    0.000000    0.000000
      4         17           0       -0.856013   -2.948944    0.000000
      5          1           0       -0.228421   -0.950864    0.262032
 ---------------------------------------------------------------------
                    Distance matrix (angstroms):
                    1          2          3          4          5
     1  O    0.000000
     2  X   10.000000   0.000000
     3  Cl   1.685000  10.140968   0.000000
     4  Cl   3.070672  10.460833   3.892688   0.000000
     5  H    1.012413   9.786948   2.152669   2.110653   0.000000
 Stoichiometry    Cl2HO(1-)
 Framework group  C1[X(Cl2HO)]
 Deg. of freedom     6
 Full point group                 C1      NOp   1
 RotChk:  IX=0 Diff= 5.21D-05
 Largest Abelian subgroup         C1      NOp   1
 Largest concise Abelian subgroup C1      NOp   1
                         Standard orientation:                         
 ---------------------------------------------------------------------
 Center     Atomic      Atomic             Coordinates (Angstroms)
 Number     Number       Type             X           Y           Z
 ---------------------------------------------------------------------
      1          8           0        0.745474    0.979358   -0.020171
      2         17           0        1.772234   -0.356531   -0.000379
      3         17           0       -2.114355   -0.138751   -0.004681
      4          1           0       -0.147730    0.584923    0.247386
 ---------------------------------------------------------------------
 Rotational constants (GHZ):          24.2278945           1.8368291           1.7081600
 Leave Link  202 at Mon Sep 13 14:40:04 2021, MaxMem= 16106127360 cpu:               0.9 elap:               0.1
 (Enter /sw/contrib/gaussian/g16/B01/g16/l301.exe)
 Standard basis: Aug-CC-pVTZ (5D, 7F)
 Ernie: Thresh=  0.10000D-02 Tol=  0.10000D-05 Strict=F.
 Ernie:  29 primitive shells out of 169 were deleted.
 There are   198 symmetry adapted cartesian basis functions of A   symmetry.
 There are   169 symmetry adapted basis functions of A   symmetry.
   169 basis functions,   327 primitive gaussians,   198 cartesian basis functions
    22 alpha electrons       22 beta electrons
       nuclear repulsion energy       118.0580504268 Hartrees.
 IExCor=    0 DFT=F Ex=HF Corr=None ExCW=0 ScaHFX=  1.000000
 ScaDFX=  1.000000  1.000000  1.000000  1.000000 ScalE2=  1.000000  1.000000
 IRadAn=      5 IRanWt=     -1 IRanGd=            0 ICorTp=0 IEmpDi=  4
 NAtoms=    4 NActive=    4 NUniq=    4 SFac= 1.00D+00 NAtFMM=   60 NAOKFM=F Big=F
 Integral buffers will be    131072 words long.
 Raffenetti 1 integral format.
 Two-electron integral symmetry is turned on.
 Leave Link  301 at Mon Sep 13 14:40:04 2021, MaxMem= 16106127360 cpu:               2.1 elap:               0.1
 (Enter /sw/contrib/gaussian/g16/B01/g16/l302.exe)
 NPDir=0 NMtPBC=     1 NCelOv=     1 NCel=       1 NClECP=     1 NCelD=      1
         NCelK=      1 NCelE2=     1 NClLst=     1 CellRange=     0.0.
 One-electron integrals computed using PRISM.
 One-electron integral symmetry used in STVInt
 NBasis=   169 RedAO= T EigKep=  2.65D-04  NBF=   169
 NBsUse=   169 1.00D-06 EigRej= -1.00D+00 NBFU=   169
 Leave Link  302 at Mon Sep 13 14:40:04 2021, MaxMem= 16106127360 cpu:               4.1 elap:               0.2
 (Enter /sw/contrib/gaussian/g16/B01/g16/l303.exe)
 DipDrv:  MaxL=1.
 Leave Link  303 at Mon Sep 13 14:40:04 2021, MaxMem= 16106127360 cpu:               0.7 elap:               0.0
 (Enter /sw/contrib/gaussian/g16/B01/g16/l401.exe)
 Initial guess from the checkpoint file:  "/gscratch/ilahie/mccoygrp/hocl/eq_jobs/coire/cl_hocl_15.chk"
 B after Tr=    -0.000000   -0.000000    0.000000
         Rot=    1.000000    0.000048   -0.000009    0.000020 Ang=   0.01 deg.
 Guess basis will be translated and rotated to current coordinates.
 JPrj=2 DoOrth=T DoCkMO=T.
 Leave Link  401 at Mon Sep 13 14:40:04 2021, MaxMem= 16106127360 cpu:               2.7 elap:               0.1
 (Enter /sw/contrib/gaussian/g16/B01/g16/l502.exe)
 Keep R1 ints in memory in canonical form, NReq=117117752.
 FoFCou: FMM=F IPFlag=           0 FMFlag=           0 FMFlg1=           0
         NFxFlg=           0 DoJE=F BraDBF=F KetDBF=F FulRan=T
         wScrn=  0.000000 ICntrl=       600 IOpCl=  0 I1Cent=           0 NGrid=           0
         NMat0=    1 NMatS0=  14365 NMatT0=    0 NMatD0=    1 NMtDS0=    0 NMtDT0=    0
 Symmetry not used in FoFCou.
 Two-electron integral symmetry not used.
 Closed shell SCF:
 Using DIIS extrapolation, IDIIS=  1040.
 NGot= 16106127360 LenX= 16002857927 LenY= 16002818282
 Requested convergence on RMS density matrix=1.00D-08 within 128 cycles.
 Requested convergence on MAX density matrix=1.00D-06.
 Requested convergence on             energy=1.00D-06.
 No special actions if energy rises.

 Cycle   1  Pass 1  IDiag  1:
 E= -994.522753716541    
 DIIS: error= 2.71D-04 at cycle   1 NSaved=   1.
 NSaved= 1 IEnMin= 1 EnMin= -994.522753716541     IErMin= 1 ErrMin= 2.71D-04
 ErrMax= 2.71D-04  0.00D+00 EMaxC= 1.00D-01 BMatC= 1.19D-05 BMatP= 1.19D-05
 IDIUse=3 WtCom= 9.97D-01 WtEn= 2.71D-03
 Coeff-Com:  0.100D+01
 Coeff-En:   0.100D+01
 Coeff:      0.100D+01
 Gap=     0.682 Goal=   None    Shift=    0.000
 RMSDP=2.72D-05 MaxDP=1.06D-03              OVMax= 8.15D-04

 Cycle   2  Pass 1  IDiag  1:
 E= -994.522762988442     Delta-E=       -0.000009271901 Rises=F Damp=F
 DIIS: error= 4.64D-05 at cycle   2 NSaved=   2.
 NSaved= 2 IEnMin= 2 EnMin= -994.522762988442     IErMin= 2 ErrMin= 4.64D-05
 ErrMax= 4.64D-05  0.00D+00 EMaxC= 1.00D-01 BMatC= 6.69D-07 BMatP= 1.19D-05
 IDIUse=1 WtCom= 1.00D+00 WtEn= 0.00D+00
 Coeff-Com: -0.139D-01 0.101D+01
 Coeff:     -0.139D-01 0.101D+01
 Gap=     0.347 Goal=   None    Shift=    0.000
 RMSDP=5.27D-06 MaxDP=1.78D-04 DE=-9.27D-06 OVMax= 3.80D-04

 Cycle   3  Pass 1  IDiag  1:
 E= -994.522763563549     Delta-E=       -0.000000575107 Rises=F Damp=F
 DIIS: error= 3.95D-05 at cycle   3 NSaved=   3.
 NSaved= 3 IEnMin= 3 EnMin= -994.522763563549     IErMin= 3 ErrMin= 3.95D-05
 ErrMax= 3.95D-05  0.00D+00 EMaxC= 1.00D-01 BMatC= 2.12D-07 BMatP= 6.69D-07
 IDIUse=1 WtCom= 1.00D+00 WtEn= 0.00D+00
 Coeff-Com: -0.571D-01 0.341D+00 0.716D+00
 Coeff:     -0.571D-01 0.341D+00 0.716D+00
 Gap=     0.347 Goal=   None    Shift=    0.000
 RMSDP=1.85D-06 MaxDP=5.25D-05 DE=-5.75D-07 OVMax= 1.52D-04

 Cycle   4  Pass 1  IDiag  1:
 E= -994.522763739216     Delta-E=       -0.000000175667 Rises=F Damp=F
 DIIS: error= 7.34D-06 at cycle   4 NSaved=   4.
 NSaved= 4 IEnMin= 4 EnMin= -994.522763739216     IErMin= 4 ErrMin= 7.34D-06
 ErrMax= 7.34D-06  0.00D+00 EMaxC= 1.00D-01 BMatC= 1.06D-08 BMatP= 2.12D-07
 IDIUse=1 WtCom= 1.00D+00 WtEn= 0.00D+00
 Coeff-Com: -0.399D-02-0.550D-01 0.929D-01 0.966D+00
 Coeff:     -0.399D-02-0.550D-01 0.929D-01 0.966D+00
 Gap=     0.347 Goal=   None    Shift=    0.000
 RMSDP=7.02D-07 MaxDP=2.21D-05 DE=-1.76D-07 OVMax= 6.56D-05

 Cycle   5  Pass 1  IDiag  1:
 E= -994.522763756484     Delta-E=       -0.000000017268 Rises=F Damp=F
 DIIS: error= 1.95D-06 at cycle   5 NSaved=   5.
 NSaved= 5 IEnMin= 5 EnMin= -994.522763756484     IErMin= 5 ErrMin= 1.95D-06
 ErrMax= 1.95D-06  0.00D+00 EMaxC= 1.00D-01 BMatC= 6.88D-10 BMatP= 1.06D-08
 IDIUse=1 WtCom= 1.00D+00 WtEn= 0.00D+00
 Coeff-Com:  0.428D-02-0.204D-01-0.569D-01-0.121D+00 0.119D+01
 Coeff:      0.428D-02-0.204D-01-0.569D-01-0.121D+00 0.119D+01
 Gap=     0.347 Goal=   None    Shift=    0.000
 RMSDP=3.22D-07 MaxDP=1.07D-05 DE=-1.73D-08 OVMax= 3.07D-05

 Cycle   6  Pass 1  IDiag  1:
 E= -994.522763758960     Delta-E=       -0.000000002476 Rises=F Damp=F
 DIIS: error= 6.44D-07 at cycle   6 NSaved=   6.
 NSaved= 6 IEnMin= 6 EnMin= -994.522763758960     IErMin= 6 ErrMin= 6.44D-07
 ErrMax= 6.44D-07  0.00D+00 EMaxC= 1.00D-01 BMatC= 7.72D-11 BMatP= 6.88D-10
 IDIUse=1 WtCom= 1.00D+00 WtEn= 0.00D+00
 Coeff-Com: -0.407D-03 0.758D-02 0.435D-02-0.631D-01-0.196D+00 0.125D+01
 Coeff:     -0.407D-03 0.758D-02 0.435D-02-0.631D-01-0.196D+00 0.125D+01
 Gap=     0.347 Goal=   None    Shift=    0.000
 RMSDP=1.08D-07 MaxDP=2.12D-06 DE=-2.48D-09 OVMax= 9.18D-06

 Cycle   7  Pass 1  IDiag  1:
 E= -994.522763759259     Delta-E=       -0.000000000299 Rises=F Damp=F
 DIIS: error= 2.22D-07 at cycle   7 NSaved=   7.
 NSaved= 7 IEnMin= 7 EnMin= -994.522763759259     IErMin= 7 ErrMin= 2.22D-07
 ErrMax= 2.22D-07  0.00D+00 EMaxC= 1.00D-01 BMatC= 9.18D-12 BMatP= 7.72D-11
 IDIUse=1 WtCom= 1.00D+00 WtEn= 0.00D+00
 Coeff-Com: -0.484D-03 0.192D-02 0.886D-02 0.218D-01-0.151D+00-0.658D-01
 Coeff-Com:  0.118D+01
 Coeff:     -0.484D-03 0.192D-02 0.886D-02 0.218D-01-0.151D+00-0.658D-01
 Coeff:      0.118D+01
 Gap=     0.347 Goal=   None    Shift=    0.000
 RMSDP=3.69D-08 MaxDP=7.71D-07 DE=-2.99D-10 OVMax= 2.64D-06

 Cycle   8  Pass 1  IDiag  1:
 E= -994.522763759287     Delta-E=       -0.000000000027 Rises=F Damp=F
 DIIS: error= 6.06D-08 at cycle   8 NSaved=   8.
 NSaved= 8 IEnMin= 8 EnMin= -994.522763759287     IErMin= 8 ErrMin= 6.06D-08
 ErrMax= 6.06D-08  0.00D+00 EMaxC= 1.00D-01 BMatC= 8.50D-13 BMatP= 9.18D-12
 IDIUse=1 WtCom= 1.00D+00 WtEn= 0.00D+00
 Coeff-Com:  0.143D-03-0.123D-02-0.162D-02 0.616D-03 0.432D-01-0.590D-01
 Coeff-Com: -0.302D+00 0.132D+01
 Coeff:      0.143D-03-0.123D-02-0.162D-02 0.616D-03 0.432D-01-0.590D-01
 Coeff:     -0.302D+00 0.132D+01
 Gap=     0.347 Goal=   None    Shift=    0.000
 RMSDP=1.22D-08 MaxDP=3.06D-07 DE=-2.73D-11 OVMax= 1.13D-06

 Cycle   9  Pass 1  IDiag  1:
 E= -994.522763759292     Delta-E=       -0.000000000005 Rises=F Damp=F
 DIIS: error= 3.64D-08 at cycle   9 NSaved=   9.
 NSaved= 9 IEnMin= 9 EnMin= -994.522763759292     IErMin= 9 ErrMin= 3.64D-08
 ErrMax= 3.64D-08  0.00D+00 EMaxC= 1.00D-01 BMatC= 1.32D-13 BMatP= 8.50D-13
 IDIUse=1 WtCom= 1.00D+00 WtEn= 0.00D+00
 Coeff-Com:  0.376D-04-0.119D-03-0.566D-03-0.214D-02 0.856D-02 0.249D-01
 Coeff-Com: -0.113D+00-0.246D+00 0.133D+01
 Coeff:      0.376D-04-0.119D-03-0.566D-03-0.214D-02 0.856D-02 0.249D-01
 Coeff:     -0.113D+00-0.246D+00 0.133D+01
 Gap=     0.347 Goal=   None    Shift=    0.000
 RMSDP=5.91D-09 MaxDP=1.30D-07 DE=-5.00D-12 OVMax= 5.82D-07

 SCF Done:  E(RHF) =  -994.522763759     A.U. after    9 cycles
            NFock=  9  Conv=0.59D-08     -V/T= 2.0002
 KE= 9.943155534084D+02 PE=-2.613622685118D+03 EE= 5.067263175239D+02
 Leave Link  502 at Mon Sep 13 14:40:07 2021, MaxMem= 16106127360 cpu:              21.1 elap:               2.3
 (Enter /sw/contrib/gaussian/g16/B01/g16/l801.exe)
 ExpMin= 2.53D-02 ExpMax= 4.56D+05 ExpMxC= 1.44D+03 IAcc=3 IRadAn=         5 AccDes= 0.00D+00
 HarFok:  IExCor=  205 AccDes= 0.00D+00 IRadAn=         5 IDoV=-2 UseB2=F ITyADJ=14
 ICtDFT= 12500011 ScaDFX=  1.000000  1.000000  1.000000  1.000000
 DSYEVD-2 returned Info=          93 IAlg= 4 N=    46 NDim=    46 NE2=   322120631 trying  DSYEV.
 Largest valence mixing into a core orbital is  4.47D-04
 Largest core mixing into a valence orbital is  1.75D-04
 Range of M.O.s used for correlation:    12   169
 NBasis=   169 NAE=    22 NBE=    22 NFC=    11 NFV=     0
 NROrb=    158 NOA=    11 NOB=    11 NVA=   147 NVB=   147

 **** Warning!!: The largest alpha MO coefficient is  0.13661256D+02

 Leave Link  801 at Mon Sep 13 14:40:07 2021, MaxMem= 16106127360 cpu:               2.4 elap:               0.1
 (Enter /sw/contrib/gaussian/g16/B01/g16/l906.exe)
 Frozen-core derivative calculation, NFC=  11 NFV=   0.
 FulOut=F Deriv=T AODrv=T NAtomX=     4
   MMem=         144  MDisk=          11 MDiskD=          11
  W3Min=      736164 MinDsk=     1250177 NBas6D=         198
 NBas2D=       20187    NTT=       19701    LW2=     3500000
    MDV= 16105749750 MDiskM=      406660 NBas2p=       20001
 Fully direct method using O(ONN) memory.
 IMap=   1   2   3   4   5   6   7   8   9  10  11  12  13  14  15  16  17  18  19  20
 IMap=  21  22
 JobTyp=1 Pass  1:  I=  12 to  22 NPSUse= 28 ParTrn=T ParDer=T DoDerP=T.
 Spin components of T(2) and E(2):
     alpha-alpha T2 =       0.2914012120D-01 E2=     -0.8364489047D-01
     alpha-beta  T2 =       0.1595882463D+00 E2=     -0.4977186649D+00
     beta-beta   T2 =       0.2914012120D-01 E2=     -0.8364489047D-01
 The integrals were generated   1 times.
 ANorm=    0.1103570790D+01
 E2 =    -0.6650084458D+00 EUMP2 =    -0.99518777220513D+03
 Leave Link  906 at Mon Sep 13 14:40:18 2021, MaxMem= 16106127360 cpu:             302.1 elap:              10.9
 (Enter /sw/contrib/gaussian/g16/B01/g16/l1002.exe)
 Minotr:  Closed shell wavefunction.
          Computing MP2/KS-MP2 derivatives.
          Using Z-Vector for PSCF gradient.
          Skipping F1 and S1 gradient terms here.
          IDoAtm=1111
          Frozen-core window.
          Direct CPHF calculation.
          Differentiating once with respect to electric field.
                with respect to dipole field.
          Differentiating once with respect to nuclear coordinates.
          Requested convergence is 1.0D-10 RMS, and 1.0D-09 maximum.
          NewPWx=F KeepS1=T KeepF1=T KeepIn=T MapXYZ=F SortEE=F KeepMc=T.
 Keep R1 ints in memory in canonical form, NReq=117120939.
 FoFCou: FMM=F IPFlag=           0 FMFlag=           0 FMFlg1=           0
         NFxFlg=           0 DoJE=F BraDBF=F KetDBF=F FulRan=T
         wScrn=  0.000000 ICntrl=       600 IOpCl=  0 I1Cent=           0 NGrid=           0
         NMat0=    1 NMatS0=  14365 NMatT0=    0 NMatD0=    1 NMtDS0=    0 NMtDT0=    0
 Symmetry not used in FoFCou.
 Two-electron integral symmetry not used.
          MDV=   16106127360 using IRadAn=       5.
          Solving linear equations separately, MaxMat=       0.
          There are     1 degrees of freedom in the 1st order CPHF.  IDoFFX=0 NUNeed=     1.
 LinEq1:  Iter=  0 NonCon=     1 RMS=3.06D-03 Max=3.83D-02 NDo=     1
 AX will form     1 AO Fock derivatives at one time.
 LinEq1:  Iter=  1 NonCon=     1 RMS=3.82D-04 Max=4.79D-03 NDo=     1
 LinEq1:  Iter=  2 NonCon=     1 RMS=1.59D-04 Max=2.99D-03 NDo=     1
 LinEq1:  Iter=  3 NonCon=     1 RMS=6.25D-05 Max=9.24D-04 NDo=     1
 LinEq1:  Iter=  4 NonCon=     1 RMS=2.58D-05 Max=6.11D-04 NDo=     1
 LinEq1:  Iter=  5 NonCon=     1 RMS=6.03D-06 Max=8.56D-05 NDo=     1
 LinEq1:  Iter=  6 NonCon=     1 RMS=1.83D-06 Max=3.51D-05 NDo=     1
 LinEq1:  Iter=  7 NonCon=     1 RMS=5.51D-07 Max=1.24D-05 NDo=     1
 LinEq1:  Iter=  8 NonCon=     1 RMS=1.17D-07 Max=1.78D-06 NDo=     1
 LinEq1:  Iter=  9 NonCon=     1 RMS=2.58D-08 Max=2.63D-07 NDo=     1
 LinEq1:  Iter= 10 NonCon=     1 RMS=6.37D-09 Max=1.28D-07 NDo=     1
 LinEq1:  Iter= 11 NonCon=     1 RMS=1.60D-09 Max=3.09D-08 NDo=     1
 LinEq1:  Iter= 12 NonCon=     1 RMS=5.04D-10 Max=8.95D-09 NDo=     1
 LinEq1:  Iter= 13 NonCon=     1 RMS=1.16D-10 Max=1.38D-09 NDo=     1
 LinEq1:  Iter= 14 NonCon=     0 RMS=2.56D-11 Max=2.81D-10 NDo=     1
 Linear equations converged to 1.000D-10 1.000D-09 after    14 iterations.
 End of Minotr F.D. properties file   721 does not exist.
 End of Minotr F.D. properties file   722 does not exist.
 End of Minotr F.D. properties file   788 does not exist.
 Leave Link 1002 at Mon Sep 13 14:40:22 2021, MaxMem= 16106127360 cpu:              29.8 elap:               3.9
 (Enter /sw/contrib/gaussian/g16/B01/g16/l701.exe)
 ... and contract with generalized density number  2.
 Compute integral first derivatives.
 Leave Link  701 at Mon Sep 13 14:40:22 2021, MaxMem= 16106127360 cpu:               7.1 elap:               0.3
 (Enter /sw/contrib/gaussian/g16/B01/g16/l702.exe)
 L702 exits ... SP integral derivatives will be done elsewhere.
 Leave Link  702 at Mon Sep 13 14:40:22 2021, MaxMem= 16106127360 cpu:               1.7 elap:               0.1
 (Enter /sw/contrib/gaussian/g16/B01/g16/l703.exe)
 Integral derivatives from FoFJK, PRISM(SPDF).
 Compute integral first derivatives, UseDBF=F ICtDFT=           0.
 Calling FoFJK, ICntrl=  10002127 FMM=F ISym2X=0 I1Cent= 0 IOpClX= 0 NMat=1 NMatS=1 NMatT=0.
 FoFJK:  IHMeth= 1 ICntrl=10002127 DoSepK=F KAlg= 0 I1Cent=           0 FoldK=F
 IRaf=         0 NMat=       1 IRICut=       1 DoRegI=T DoRafI=F ISym2E= 0 IDoP0=0 IntGTp=1.
 FoFCou: FMM=F IPFlag=           0 FMFlag=      100000 FMFlg1=         800
         NFxFlg=           0 DoJE=F BraDBF=F KetDBF=F FulRan=T
         wScrn=  0.000000 ICntrl=  10002127 IOpCl=  0 I1Cent=           0 NGrid=           0
         NMat0=    1 NMatS0=      1 NMatT0=    0 NMatD0=    1 NMtDS0=    0 NMtDT0=    0
 Symmetry not used in FoFCou.
 Leave Link  703 at Mon Sep 13 14:40:24 2021, MaxMem= 16106127360 cpu:              39.6 elap:               1.4
 (Enter /sw/contrib/gaussian/g16/B01/g16/l716.exe)
 Dipole        = 2.48141477D+00-7.90812973D-02 1.02128833D-01
 ***** Axes restored to original set *****
 -------------------------------------------------------------------
 Center     Atomic                   Forces (Hartrees/Bohr)
 Number     Number              X              Y              Z
 -------------------------------------------------------------------
      1        8          -0.001384027   -0.005318757    0.007541787
      2       17           0.000806417    0.000321433    0.000162974
      3       17           0.002047827    0.006438966    0.003855669
      4        1          -0.001470217   -0.001441643   -0.011560430
 -------------------------------------------------------------------
 Cartesian Forces:  Max     0.011560430 RMS     0.004884217
 -----------------------------------------------------------------------------------------------
                       Internal Coordinate Forces (Hartree/Bohr or radian)
  Cent   Atom   N1       Length/X         N2         Alpha/Y        N3         Beta/Z          J
 -----------------------------------------------------------------------------------------------
      1  O 
         X        1   0.000000(     1)
      2  Cl       1   0.000806(     2)      2  -0.000519(     5)
      3  Cl       1  -0.006755(     3)      2  -0.022373(     6)      3  -0.000996(     8)     0
      4  H        1  -0.001306(     4)      2   0.022228(     7)      3   0.002020(     9)     0
 -----------------------------------------------------------------------------------------------
 Internal  Forces:  Max     0.022373403 RMS     0.010790751
 Leave Link  716 at Mon Sep 13 14:40:24 2021, MaxMem= 16106127360 cpu:               0.8 elap:               0.1
 (Enter /sw/contrib/gaussian/g16/B01/g16/l103.exe)

 GradGradGradGradGradGradGradGradGradGradGradGradGradGradGradGradGradGrad
 Berny optimization.
 Search for a local minimum.
 Step number   2 out of a maximum of   20
 All quantities printed in internal units (Hartrees-Bohrs-Radians)
 Update second derivatives using D2CorN and points    1    2
 DE= -2.92D-05 DEPred=-2.26D-05 R= 1.30D+00
 TightC=F SS=  1.41D+00  RLast= 1.00D-02 DXNew= 5.0454D-01 3.0131D-02
 Trust test= 1.30D+00 RLast= 1.00D-02 DXMaxT set to 3.00D-01
 The second derivative matrix:
                          r1        r2        r3        a1        a2
           r1           0.31701
           r2          -0.00286   0.37758
           r3           0.00781   0.00000   0.02211
           a1          -0.00133  -0.00000   0.00000   0.15621
           a2           0.00246  -0.00000  -0.00000  -0.00199   0.25743
           OOP         -0.01751  -0.00000   0.00000   0.04603  -0.01777
                          OOP
           OOP          0.18745
 ITU=  1  0
     Eigenvalues ---    0.317011000.000001000.000001000.000001000.00000
     Eigenvalues --- 1000.00000
 RFO step:  Lambda= 0.00000000D+00 EMin= 3.17005090D-01
 Quartic linear search produced a step of  0.39746.
 Variable       Old X    -DE/DX   Delta X   Delta X   Delta X     New X
                                 (Linear)    (Quad)   (Total)
    r1        1.91318  -0.00131  -0.00399  -0.00000  -0.00399   1.90919
    r2        3.18419   0.00081   0.00000   0.00000   0.00000   3.18419
    r3        5.80273  -0.00675   0.00000   0.00000   0.00000   5.80273
    a1        1.80655   0.00202   0.00000   0.00000   0.00000   1.80655
    a2        1.85331  -0.00100   0.00000   0.00000   0.00000   1.85331
   OOP        1.30900   0.02223   0.00000   0.00000   0.00000   1.30900
         Item               Value     Threshold  Converged?
 Maximum Force            0.001306     0.000015     NO 
 RMS     Force            0.001306     0.000010     NO 
 Maximum Displacement     0.003992     0.000060     NO 
 RMS     Displacement     0.001630     0.000040     NO 
 Predicted change in Energy=-2.689036D-06
 Lowest energy point so far.  Saving SCF results.
 GradGradGradGradGradGradGradGradGradGradGradGradGradGradGradGradGradGrad

 Leave Link  103 at Mon Sep 13 14:40:24 2021, MaxMem= 16106127360 cpu:               0.5 elap:               0.0
 (Enter /sw/contrib/gaussian/g16/B01/g16/l202.exe)
 ---------------------------------------------------------------------------------------------------
                            Z-MATRIX (ANGSTROMS AND DEGREES)
   CD    Cent   Atom    N1       Length/X        N2       Alpha/Y        N3        Beta/Z          J
 ---------------------------------------------------------------------------------------------------
      1      1  O 
      2         X        1  10.000000(     1)
      3      2  Cl       1   1.685000(     2)      2   90.000(     5)
      4      3  Cl       1   3.070672(     3)      2   90.000(     6)      3  106.187(     8)      0
      5      4  H        1   1.010300(     4)      2   75.000(     7)      3  103.508(     9)      0
 ---------------------------------------------------------------------------------------------------
                         Z-Matrix orientation:                         
 ---------------------------------------------------------------------
 Center     Atomic      Atomic             Coordinates (Angstroms)
 Number     Number       Type             X           Y           Z
 ---------------------------------------------------------------------
      1          8           0        0.000000    0.000000    0.000000
      2         -1           0        0.000000    0.000000   10.000000
      3         17           0        1.685000    0.000000    0.000000
      4         17           0       -0.856013   -2.948944    0.000000
      5          1           0       -0.227944   -0.948880    0.261485
 ---------------------------------------------------------------------
                    Distance matrix (angstroms):
                    1          2          3          4          5
     1  O    0.000000
     2  X   10.000000   0.000000
     3  Cl   1.685000  10.140968   0.000000
     4  Cl   3.070672  10.460833   3.892688   0.000000
     5  H    1.010300   9.787288   2.151303   2.112605   0.000000
 Stoichiometry    Cl2HO(1-)
 Framework group  C1[X(Cl2HO)]
 Deg. of freedom     6
 Full point group                 C1      NOp   1
 RotChk:  IX=0 Diff= 2.09D-05
 Largest Abelian subgroup         C1      NOp   1
 Largest concise Abelian subgroup C1      NOp   1
                         Standard orientation:                         
 ---------------------------------------------------------------------
 Center     Atomic      Atomic             Coordinates (Angstroms)
 Number     Number       Type             X           Y           Z
 ---------------------------------------------------------------------
      1          8           0        0.745438    0.979333   -0.020150
      2         17           0        1.772187   -0.356564   -0.000377
      3         17           0       -2.114399   -0.138753   -0.004661
      4          1           0       -0.145904    0.585725    0.246848
 ---------------------------------------------------------------------
 Rotational constants (GHZ):          24.2270678           1.8368346           1.7081575
 Leave Link  202 at Mon Sep 13 14:40:24 2021, MaxMem= 16106127360 cpu:               0.4 elap:               0.0
 (Enter /sw/contrib/gaussian/g16/B01/g16/l301.exe)
 Standard basis: Aug-CC-pVTZ (5D, 7F)
 Ernie: Thresh=  0.10000D-02 Tol=  0.10000D-05 Strict=F.
 Ernie:  29 primitive shells out of 169 were deleted.
 There are   198 symmetry adapted cartesian basis functions of A   symmetry.
 There are   169 symmetry adapted basis functions of A   symmetry.
   169 basis functions,   327 primitive gaussians,   198 cartesian basis functions
    22 alpha electrons       22 beta electrons
       nuclear repulsion energy       118.0655085088 Hartrees.
 IExCor=    0 DFT=F Ex=HF Corr=None ExCW=0 ScaHFX=  1.000000
 ScaDFX=  1.000000  1.000000  1.000000  1.000000 ScalE2=  1.000000  1.000000
 IRadAn=      5 IRanWt=     -1 IRanGd=            0 ICorTp=0 IEmpDi=  4
 NAtoms=    4 NActive=    4 NUniq=    4 SFac= 1.00D+00 NAtFMM=   60 NAOKFM=F Big=F
 Integral buffers will be    131072 words long.
 Raffenetti 1 integral format.
 Two-electron integral symmetry is turned on.
 Leave Link  301 at Mon Sep 13 14:40:24 2021, MaxMem= 16106127360 cpu:               1.6 elap:               0.1
 (Enter /sw/contrib/gaussian/g16/B01/g16/l302.exe)
 NPDir=0 NMtPBC=     1 NCelOv=     1 NCel=       1 NClECP=     1 NCelD=      1
         NCelK=      1 NCelE2=     1 NClLst=     1 CellRange=     0.0.
 One-electron integrals computed using PRISM.
 One-electron integral symmetry used in STVInt
 NBasis=   169 RedAO= T EigKep=  2.64D-04  NBF=   169
 NBsUse=   169 1.00D-06 EigRej= -1.00D+00 NBFU=   169
 Leave Link  302 at Mon Sep 13 14:40:24 2021, MaxMem= 16106127360 cpu:               4.4 elap:               0.2
 (Enter /sw/contrib/gaussian/g16/B01/g16/l303.exe)
 DipDrv:  MaxL=1.
 Leave Link  303 at Mon Sep 13 14:40:24 2021, MaxMem= 16106127360 cpu:               0.8 elap:               0.1
 (Enter /sw/contrib/gaussian/g16/B01/g16/l401.exe)
 Initial guess from the checkpoint file:  "/gscratch/ilahie/mccoygrp/hocl/eq_jobs/coire/cl_hocl_15.chk"
 B after Tr=     0.000000    0.000000    0.000000
         Rot=    1.000000    0.000019   -0.000003    0.000008 Ang=   0.00 deg.
 Guess basis will be translated and rotated to current coordinates.
 JPrj=2 DoOrth=T DoCkMO=T.
 Leave Link  401 at Mon Sep 13 14:40:24 2021, MaxMem= 16106127360 cpu:               4.2 elap:               0.2
 (Enter /sw/contrib/gaussian/g16/B01/g16/l502.exe)
 Keep R1 ints in memory in canonical form, NReq=117117752.
 FoFCou: FMM=F IPFlag=           0 FMFlag=           0 FMFlg1=           0
         NFxFlg=           0 DoJE=F BraDBF=F KetDBF=F FulRan=T
         wScrn=  0.000000 ICntrl=       600 IOpCl=  0 I1Cent=           0 NGrid=           0
         NMat0=    1 NMatS0=  14365 NMatT0=    0 NMatD0=    1 NMtDS0=    0 NMtDT0=    0
 Symmetry not used in FoFCou.
 Two-electron integral symmetry not used.
 Closed shell SCF:
 Using DIIS extrapolation, IDIIS=  1040.
 NGot= 16106127360 LenX= 16002857927 LenY= 16002818282
 Requested convergence on RMS density matrix=1.00D-08 within 128 cycles.
 Requested convergence on MAX density matrix=1.00D-06.
 Requested convergence on             energy=1.00D-06.
 No special actions if energy rises.

 Cycle   1  Pass 1  IDiag  1:
 E= -994.522881825458    
 DIIS: error= 1.10D-04 at cycle   1 NSaved=   1.
 NSaved= 1 IEnMin= 1 EnMin= -994.522881825458     IErMin= 1 ErrMin= 1.10D-04
 ErrMax= 1.10D-04  0.00D+00 EMaxC= 1.00D-01 BMatC= 1.91D-06 BMatP= 1.91D-06
 IDIUse=3 WtCom= 9.99D-01 WtEn= 1.10D-03
 Coeff-Com:  0.100D+01
 Coeff-En:   0.100D+01
 Coeff:      0.100D+01
 Gap=     0.682 Goal=   None    Shift=    0.000
 RMSDP=1.09D-05 MaxDP=4.33D-04              OVMax= 3.26D-04

 Cycle   2  Pass 1  IDiag  1:
 E= -994.522883303855     Delta-E=       -0.000001478397 Rises=F Damp=F
 DIIS: error= 1.84D-05 at cycle   2 NSaved=   2.
 NSaved= 2 IEnMin= 2 EnMin= -994.522883303855     IErMin= 2 ErrMin= 1.84D-05
 ErrMax= 1.84D-05  0.00D+00 EMaxC= 1.00D-01 BMatC= 1.06D-07 BMatP= 1.91D-06
 IDIUse=1 WtCom= 1.00D+00 WtEn= 0.00D+00
 Coeff-Com: -0.146D-01 0.101D+01
 Coeff:     -0.146D-01 0.101D+01
 Gap=     0.347 Goal=   None    Shift=    0.000
 RMSDP=2.10D-06 MaxDP=7.20D-05 DE=-1.48D-06 OVMax= 1.50D-04

 Cycle   3  Pass 1  IDiag  1:
 E= -994.522883394504     Delta-E=       -0.000000090649 Rises=F Damp=F
 DIIS: error= 1.56D-05 at cycle   3 NSaved=   3.
 NSaved= 3 IEnMin= 3 EnMin= -994.522883394504     IErMin= 3 ErrMin= 1.56D-05
 ErrMax= 1.56D-05  0.00D+00 EMaxC= 1.00D-01 BMatC= 3.33D-08 BMatP= 1.06D-07
 IDIUse=1 WtCom= 1.00D+00 WtEn= 0.00D+00
 Coeff-Com: -0.565D-01 0.340D+00 0.717D+00
 Coeff:     -0.565D-01 0.340D+00 0.717D+00
 Gap=     0.347 Goal=   None    Shift=    0.000
 RMSDP=7.35D-07 MaxDP=2.08D-05 DE=-9.06D-08 OVMax= 6.04D-05

 Cycle   4  Pass 1  IDiag  1:
 E= -994.522883422049     Delta-E=       -0.000000027545 Rises=F Damp=F
 DIIS: error= 2.94D-06 at cycle   4 NSaved=   4.
 NSaved= 4 IEnMin= 4 EnMin= -994.522883422049     IErMin= 4 ErrMin= 2.94D-06
 ErrMax= 2.94D-06  0.00D+00 EMaxC= 1.00D-01 BMatC= 1.68D-09 BMatP= 3.33D-08
 IDIUse=1 WtCom= 1.00D+00 WtEn= 0.00D+00
 Coeff-Com: -0.401D-02-0.542D-01 0.951D-01 0.963D+00
 Coeff:     -0.401D-02-0.542D-01 0.951D-01 0.963D+00
 Gap=     0.347 Goal=   None    Shift=    0.000
 RMSDP=2.77D-07 MaxDP=8.72D-06 DE=-2.75D-08 OVMax= 2.58D-05

 Cycle   5  Pass 1  IDiag  1:
 E= -994.522883424755     Delta-E=       -0.000000002706 Rises=F Damp=F
 DIIS: error= 7.72D-07 at cycle   5 NSaved=   5.
 NSaved= 5 IEnMin= 5 EnMin= -994.522883424755     IErMin= 5 ErrMin= 7.72D-07
 ErrMax= 7.72D-07  0.00D+00 EMaxC= 1.00D-01 BMatC= 1.08D-10 BMatP= 1.68D-09
 IDIUse=1 WtCom= 1.00D+00 WtEn= 0.00D+00
 Coeff-Com:  0.421D-02-0.206D-01-0.566D-01-0.117D+00 0.119D+01
 Coeff:      0.421D-02-0.206D-01-0.566D-01-0.117D+00 0.119D+01
 Gap=     0.347 Goal=   None    Shift=    0.000
 RMSDP=1.27D-07 MaxDP=4.21D-06 DE=-2.71D-09 OVMax= 1.21D-05

 Cycle   6  Pass 1  IDiag  1:
 E= -994.522883425141     Delta-E=       -0.000000000386 Rises=F Damp=F
 DIIS: error= 2.56D-07 at cycle   6 NSaved=   6.
 NSaved= 6 IEnMin= 6 EnMin= -994.522883425141     IErMin= 6 ErrMin= 2.56D-07
 ErrMax= 2.56D-07  0.00D+00 EMaxC= 1.00D-01 BMatC= 1.22D-11 BMatP= 1.08D-10
 IDIUse=1 WtCom= 1.00D+00 WtEn= 0.00D+00
 Coeff-Com: -0.386D-03 0.747D-02 0.403D-02-0.634D-01-0.194D+00 0.125D+01
 Coeff:     -0.386D-03 0.747D-02 0.403D-02-0.634D-01-0.194D+00 0.125D+01
 Gap=     0.347 Goal=   None    Shift=    0.000
 RMSDP=4.28D-08 MaxDP=8.40D-07 DE=-3.86D-10 OVMax= 3.63D-06

 Cycle   7  Pass 1  IDiag  1:
 E= -994.522883425186     Delta-E=       -0.000000000045 Rises=F Damp=F
 DIIS: error= 8.89D-08 at cycle   7 NSaved=   7.
 NSaved= 7 IEnMin= 7 EnMin= -994.522883425186     IErMin= 7 ErrMin= 8.89D-08
 ErrMax= 8.89D-08  0.00D+00 EMaxC= 1.00D-01 BMatC= 1.47D-12 BMatP= 1.22D-11
 IDIUse=1 WtCom= 1.00D+00 WtEn= 0.00D+00
 Coeff-Com: -0.482D-03 0.194D-02 0.893D-02 0.218D-01-0.151D+00-0.711D-01
 Coeff-Com:  0.119D+01
 Coeff:     -0.482D-03 0.194D-02 0.893D-02 0.218D-01-0.151D+00-0.711D-01
 Coeff:      0.119D+01
 Gap=     0.347 Goal=   None    Shift=    0.000
 RMSDP=1.48D-08 MaxDP=3.11D-07 DE=-4.52D-11 OVMax= 1.06D-06

 Cycle   8  Pass 1  IDiag  1:
 E= -994.522883425191     Delta-E=       -0.000000000005 Rises=F Damp=F
 DIIS: error= 2.46D-08 at cycle   8 NSaved=   8.
 NSaved= 8 IEnMin= 8 EnMin= -994.522883425191     IErMin= 8 ErrMin= 2.46D-08
 ErrMax= 2.46D-08  0.00D+00 EMaxC= 1.00D-01 BMatC= 1.36D-13 BMatP= 1.47D-12
 IDIUse=1 WtCom= 1.00D+00 WtEn= 0.00D+00
 Coeff-Com:  0.142D-03-0.123D-02-0.162D-02 0.631D-03 0.434D-01-0.579D-01
 Coeff-Com: -0.305D+00 0.132D+01
 Coeff:      0.142D-03-0.123D-02-0.162D-02 0.631D-03 0.434D-01-0.579D-01
 Coeff:     -0.305D+00 0.132D+01
 Gap=     0.347 Goal=   None    Shift=    0.000
 RMSDP=4.92D-09 MaxDP=1.24D-07 DE=-4.55D-12 OVMax= 4.57D-07

 SCF Done:  E(RHF) =  -994.522883425     A.U. after    8 cycles
            NFock=  8  Conv=0.49D-08     -V/T= 2.0002
 KE= 9.943185613223D+02 PE=-2.613637300549D+03 EE= 5.067303472922D+02
 Leave Link  502 at Mon Sep 13 14:40:27 2021, MaxMem= 16106127360 cpu:              24.3 elap:               2.4
 (Enter /sw/contrib/gaussian/g16/B01/g16/l801.exe)
 ExpMin= 2.53D-02 ExpMax= 4.56D+05 ExpMxC= 1.44D+03 IAcc=3 IRadAn=         5 AccDes= 0.00D+00
 HarFok:  IExCor=  205 AccDes= 0.00D+00 IRadAn=         5 IDoV=-2 UseB2=F ITyADJ=14
 ICtDFT= 12500011 ScaDFX=  1.000000  1.000000  1.000000  1.000000
 Largest valence mixing into a core orbital is  4.47D-04
 Largest core mixing into a valence orbital is  1.75D-04
 Range of M.O.s used for correlation:    12   169
 NBasis=   169 NAE=    22 NBE=    22 NFC=    11 NFV=     0
 NROrb=    158 NOA=    11 NOB=    11 NVA=   147 NVB=   147

 **** Warning!!: The largest alpha MO coefficient is  0.13719958D+02

 Leave Link  801 at Mon Sep 13 14:40:27 2021, MaxMem= 16106127360 cpu:               2.2 elap:               0.1
 (Enter /sw/contrib/gaussian/g16/B01/g16/l906.exe)
 Frozen-core derivative calculation, NFC=  11 NFV=   0.
 FulOut=F Deriv=T AODrv=T NAtomX=     4
   MMem=         144  MDisk=          11 MDiskD=          11
  W3Min=      736164 MinDsk=     1250177 NBas6D=         198
 NBas2D=       20187    NTT=       19701    LW2=     3500000
    MDV= 16105749750 MDiskM=      406660 NBas2p=       20001
 Fully direct method using O(ONN) memory.
 IMap=   1   2   3   4   5   6   7   8   9  10  11  12  13  14  15  16  17  18  19  20
 IMap=  21  22
 JobTyp=1 Pass  1:  I=  12 to  22 NPSUse= 28 ParTrn=T ParDer=T DoDerP=T.
 Spin components of T(2) and E(2):
     alpha-alpha T2 =       0.2912630384D-01 E2=     -0.8362432187D-01
     alpha-beta  T2 =       0.1595272596D+00 E2=     -0.4976427485D+00
     beta-beta   T2 =       0.2912630384D-01 E2=     -0.8362432187D-01
 The integrals were generated   1 times.
 ANorm=    0.1103530637D+01
 E2 =    -0.6648913922D+00 EUMP2 =    -0.99518777481738D+03
 Leave Link  906 at Mon Sep 13 14:40:37 2021, MaxMem= 16106127360 cpu:             297.8 elap:              10.7
 (Enter /sw/contrib/gaussian/g16/B01/g16/l1002.exe)
 Minotr:  Closed shell wavefunction.
          Computing MP2/KS-MP2 derivatives.
          Using Z-Vector for PSCF gradient.
          Skipping F1 and S1 gradient terms here.
          IDoAtm=1111
          Frozen-core window.
          Direct CPHF calculation.
          Differentiating once with respect to electric field.
                with respect to dipole field.
          Differentiating once with respect to nuclear coordinates.
          Requested convergence is 1.0D-10 RMS, and 1.0D-09 maximum.
          NewPWx=F KeepS1=T KeepF1=T KeepIn=T MapXYZ=F SortEE=F KeepMc=T.
 Keep R1 ints in memory in canonical form, NReq=117120939.
 FoFCou: FMM=F IPFlag=           0 FMFlag=           0 FMFlg1=           0
         NFxFlg=           0 DoJE=F BraDBF=F KetDBF=F FulRan=T
         wScrn=  0.000000 ICntrl=       600 IOpCl=  0 I1Cent=           0 NGrid=           0
         NMat0=    1 NMatS0=  14365 NMatT0=    0 NMatD0=    1 NMtDS0=    0 NMtDT0=    0
 Symmetry not used in FoFCou.
 Two-electron integral symmetry not used.
          MDV=   16106127360 using IRadAn=       5.
          Solving linear equations separately, MaxMat=       0.
          There are     1 degrees of freedom in the 1st order CPHF.  IDoFFX=0 NUNeed=     1.
 LinEq1:  Iter=  0 NonCon=     1 RMS=3.05D-03 Max=3.83D-02 NDo=     1
 AX will form     1 AO Fock derivatives at one time.
 LinEq1:  Iter=  1 NonCon=     1 RMS=3.81D-04 Max=4.78D-03 NDo=     1
 LinEq1:  Iter=  2 NonCon=     1 RMS=1.59D-04 Max=2.98D-03 NDo=     1
 LinEq1:  Iter=  3 NonCon=     1 RMS=6.23D-05 Max=9.25D-04 NDo=     1
 LinEq1:  Iter=  4 NonCon=     1 RMS=2.58D-05 Max=6.09D-04 NDo=     1
 LinEq1:  Iter=  5 NonCon=     1 RMS=6.01D-06 Max=8.53D-05 NDo=     1
 LinEq1:  Iter=  6 NonCon=     1 RMS=1.83D-06 Max=3.51D-05 NDo=     1
 LinEq1:  Iter=  7 NonCon=     1 RMS=5.50D-07 Max=1.23D-05 NDo=     1
 LinEq1:  Iter=  8 NonCon=     1 RMS=1.17D-07 Max=1.77D-06 NDo=     1
 LinEq1:  Iter=  9 NonCon=     1 RMS=2.57D-08 Max=2.62D-07 NDo=     1
 LinEq1:  Iter= 10 NonCon=     1 RMS=6.34D-09 Max=1.27D-07 NDo=     1
 LinEq1:  Iter= 11 NonCon=     1 RMS=1.60D-09 Max=3.09D-08 NDo=     1
 LinEq1:  Iter= 12 NonCon=     1 RMS=5.06D-10 Max=8.99D-09 NDo=     1
 LinEq1:  Iter= 13 NonCon=     1 RMS=1.18D-10 Max=1.40D-09 NDo=     1
 LinEq1:  Iter= 14 NonCon=     0 RMS=2.68D-11 Max=3.04D-10 NDo=     1
 Linear equations converged to 1.000D-10 1.000D-09 after    14 iterations.
 End of Minotr F.D. properties file   721 does not exist.
 End of Minotr F.D. properties file   722 does not exist.
 End of Minotr F.D. properties file   788 does not exist.
 Leave Link 1002 at Mon Sep 13 14:40:41 2021, MaxMem= 16106127360 cpu:              28.3 elap:               3.8
 (Enter /sw/contrib/gaussian/g16/B01/g16/l701.exe)
 ... and contract with generalized density number  2.
 Compute integral first derivatives.
 Leave Link  701 at Mon Sep 13 14:40:41 2021, MaxMem= 16106127360 cpu:               5.3 elap:               0.2
 (Enter /sw/contrib/gaussian/g16/B01/g16/l702.exe)
 L702 exits ... SP integral derivatives will be done elsewhere.
 Leave Link  702 at Mon Sep 13 14:40:42 2021, MaxMem= 16106127360 cpu:               0.5 elap:               0.0
 (Enter /sw/contrib/gaussian/g16/B01/g16/l703.exe)
 Integral derivatives from FoFJK, PRISM(SPDF).
 Compute integral first derivatives, UseDBF=F ICtDFT=           0.
 Calling FoFJK, ICntrl=  10002127 FMM=F ISym2X=0 I1Cent= 0 IOpClX= 0 NMat=1 NMatS=1 NMatT=0.
 FoFJK:  IHMeth= 1 ICntrl=10002127 DoSepK=F KAlg= 0 I1Cent=           0 FoldK=F
 IRaf=         0 NMat=       1 IRICut=       1 DoRegI=T DoRafI=F ISym2E= 0 IDoP0=0 IntGTp=1.
 FoFCou: FMM=F IPFlag=           0 FMFlag=      100000 FMFlg1=         800
         NFxFlg=           0 DoJE=F BraDBF=F KetDBF=F FulRan=T
         wScrn=  0.000000 ICntrl=  10002127 IOpCl=  0 I1Cent=           0 NGrid=           0
         NMat0=    1 NMatS0=      1 NMatT0=    0 NMatD0=    1 NMtDS0=    0 NMtDT0=    0
 Symmetry not used in FoFCou.
 Leave Link  703 at Mon Sep 13 14:40:43 2021, MaxMem= 16106127360 cpu:              39.7 elap:               1.4
 (Enter /sw/contrib/gaussian/g16/B01/g16/l716.exe)
 Dipole        = 2.48671105D+00-7.83347988D-02 1.02049710D-01
 ***** Axes restored to original set *****
 -------------------------------------------------------------------
 Center     Atomic                   Forces (Hartrees/Bohr)
 Number     Number              X              Y              Z
 -------------------------------------------------------------------
      1        8          -0.001051716   -0.004047854    0.007182438
      2       17           0.000783130    0.000324275    0.000161755
      3       17           0.002027555    0.006381002    0.003831692
      4        1          -0.001758969   -0.002657423   -0.011175884
 -------------------------------------------------------------------
 Cartesian Forces:  Max     0.011175884 RMS     0.004693875
 -----------------------------------------------------------------------------------------------
                       Internal Coordinate Forces (Hartree/Bohr or radian)
  Cent   Atom   N1       Length/X         N2         Alpha/Y        N3         Beta/Z          J
 -----------------------------------------------------------------------------------------------
      1  O 
         X        1   0.000000(     1)
      2  Cl       1   0.000783(     2)      2  -0.000515(     5)
      3  Cl       1  -0.006693(     3)      2  -0.022234(     6)      3  -0.000977(     8)     0
      4  H        1   0.000000(     4)      2   0.022090(     7)      3   0.002009(     9)     0
 -----------------------------------------------------------------------------------------------
 Internal  Forces:  Max     0.022234274 RMS     0.010713371
 Leave Link  716 at Mon Sep 13 14:40:43 2021, MaxMem= 16106127360 cpu:               0.8 elap:               0.1
 (Enter /sw/contrib/gaussian/g16/B01/g16/l103.exe)

 GradGradGradGradGradGradGradGradGradGradGradGradGradGradGradGradGradGrad
 Berny optimization.
 Search for a local minimum.
 Step number   3 out of a maximum of   20
 All quantities printed in internal units (Hartrees-Bohrs-Radians)
 Update second derivatives using D2CorN and points    2    3
 DE= -2.61D-06 DEPred=-2.69D-06 R= 9.71D-01
 TightC=F SS=  1.41D+00  RLast= 3.99D-03 DXNew= 5.0454D-01 1.1976D-02
 Trust test= 9.71D-01 RLast= 3.99D-03 DXMaxT set to 3.00D-01
 The second derivative matrix:
                          r1        r2        r3        a1        a2
           r1           0.32729
           r2          -0.00435   0.37758
           r3           0.01159   0.00000   0.02211
           a1          -0.00193  -0.00000   0.00000   0.15621
           a2           0.00363  -0.00000  -0.00000  -0.00199   0.25743
           OOP         -0.02605  -0.00000   0.00000   0.04603  -0.01777
                          OOP
           OOP          0.18745
 ITU=  1  1  0
     Eigenvalues ---    0.327291000.000001000.000001000.000001000.00000
     Eigenvalues --- 1000.00000
 RFO step:  Lambda= 0.00000000D+00 EMin= 3.27292915D-01
 Quartic linear search produced a step of -0.00015.
 Variable       Old X    -DE/DX   Delta X   Delta X   Delta X     New X
                                 (Linear)    (Quad)   (Total)
    r1        1.90919   0.00000   0.00000   0.00000   0.00000   1.90919
    r2        3.18419   0.00078   0.00000   0.00000   0.00000   3.18419
    r3        5.80273  -0.00669   0.00000   0.00000   0.00000   5.80273
    a1        1.80655   0.00201   0.00000   0.00000   0.00000   1.80655
    a2        1.85331  -0.00098   0.00000   0.00000   0.00000   1.85331
   OOP        1.30900   0.02209   0.00000   0.00000   0.00000   1.30900
         Item               Value     Threshold  Converged?
 Maximum Force            0.000000     0.000015     YES
 RMS     Force            0.000000     0.000010     YES
 Maximum Displacement     0.000001     0.000060     YES
 RMS     Displacement     0.000000     0.000040     YES
 Predicted change in Energy=-5.823644D-14
 Optimization completed.
    -- Stationary point found.
                       ----------------------------
                       !   Optimized Parameters   !
                       ! (Angstroms and Degrees)  !
 ----------------------                            ----------------------
 !      Name          Value   Derivative information (Atomic Units)     !
 ------------------------------------------------------------------------
 !       r1          1.0103   -DE/DX =    0.0                           !
 !       r2          1.685    -DE/DX =    0.0008                        !
 !       r3          3.0707   -DE/DX =   -0.0067                        !
 !       a1        103.5079   -DE/DX =    0.002                         !
 !       a2        106.1868   -DE/DX =   -0.001                         !
 !       OOP        75.0      -DE/DX =    0.0221                        !
 ------------------------------------------------------------------------
 Lowest energy point so far.  Saving SCF results.
 Largest change from initial coordinates is atom    4       0.007 Angstoms.
 GradGradGradGradGradGradGradGradGradGradGradGradGradGradGradGradGradGrad

 Leave Link  103 at Mon Sep 13 14:40:43 2021, MaxMem= 16106127360 cpu:               1.6 elap:               0.1
 (Enter /sw/contrib/gaussian/g16/B01/g16/l202.exe)
 ---------------------------------------------------------------------------------------------------
                            Z-MATRIX (ANGSTROMS AND DEGREES)
   CD    Cent   Atom    N1       Length/X        N2       Alpha/Y        N3        Beta/Z          J
 ---------------------------------------------------------------------------------------------------
      1      1  O 
      2         X        1  10.000000(     1)
      3      2  Cl       1   1.685000(     2)      2   90.000(     5)
      4      3  Cl       1   3.070672(     3)      2   90.000(     6)      3  106.187(     8)      0
      5      4  H        1   1.010300(     4)      2   75.000(     7)      3  103.508(     9)      0
 ---------------------------------------------------------------------------------------------------
                         Z-Matrix orientation:                         
 ---------------------------------------------------------------------
 Center     Atomic      Atomic             Coordinates (Angstroms)
 Number     Number       Type             X           Y           Z
 ---------------------------------------------------------------------
      1          8           0        0.000000    0.000000    0.000000
      2         -1           0        0.000000    0.000000   10.000000
      3         17           0        1.685000    0.000000    0.000000
      4         17           0       -0.856013   -2.948944    0.000000
      5          1           0       -0.227944   -0.948880    0.261485
 ---------------------------------------------------------------------
                    Distance matrix (angstroms):
                    1          2          3          4          5
     1  O    0.000000
     2  X   10.000000   0.000000
     3  Cl   1.685000  10.140968   0.000000
     4  Cl   3.070672  10.460833   3.892688   0.000000
     5  H    1.010300   9.787288   2.151303   2.112605   0.000000
 Stoichiometry    Cl2HO(1-)
 Framework group  C1[X(Cl2HO)]
 Deg. of freedom     6
 Full point group                 C1      NOp   1
 RotChk:  IX=0 Diff= 1.39D-16
 Largest Abelian subgroup         C1      NOp   1
 Largest concise Abelian subgroup C1      NOp   1
                         Standard orientation:                         
 ---------------------------------------------------------------------
 Center     Atomic      Atomic             Coordinates (Angstroms)
 Number     Number       Type             X           Y           Z
 ---------------------------------------------------------------------
      1          8           0        0.745438    0.979333   -0.020150
      2         17           0        1.772187   -0.356564   -0.000377
      3         17           0       -2.114399   -0.138753   -0.004661
      4          1           0       -0.145904    0.585725    0.246848
 ---------------------------------------------------------------------
 Rotational constants (GHZ):          24.2270678           1.8368346           1.7081575
 Leave Link  202 at Mon Sep 13 14:40:43 2021, MaxMem= 16106127360 cpu:               0.9 elap:               0.1
 (Enter /sw/contrib/gaussian/g16/B01/g16/l601.exe)
 Copying SCF densities to generalized density rwf, IOpCl= 0 IROHF=0.

 **********************************************************************

            Population analysis using the MP2 Density.

 **********************************************************************

 Orbital symmetries:
       Occupied  (A) (A) (A) (A) (A) (A) (A) (A) (A) (A) (A) (A)
                 (A) (A) (A) (A) (A) (A) (A) (A) (A) (A)
       Virtual   (A) (A) (A) (A) (A) (A) (A) (A) (A) (A) (A) (A)
                 (A) (A) (A) (A) (A) (A) (A) (A) (A) (A) (A) (A)
                 (A) (A) (A) (A) (A) (A) (A) (A) (A) (A) (A) (A)
                 (A) (A) (A) (A) (A) (A) (A) (A) (A) (A) (A) (A)
                 (A) (A) (A) (A) (A) (A) (A) (A) (A) (A) (A) (A)
                 (A) (A) (A) (A) (A) (A) (A) (A) (A) (A) (A) (A)
                 (A) (A) (A) (A) (A) (A) (A) (A) (A) (A) (A) (A)
                 (A) (A) (A) (A) (A) (A) (A) (A) (A) (A) (A) (A)
                 (A) (A) (A) (A) (A) (A) (A) (A) (A) (A) (A) (A)
                 (A) (A) (A) (A) (A) (A) (A) (A) (A) (A) (A) (A)
                 (A) (A) (A) (A) (A) (A) (A) (A) (A) (A) (A) (A)
                 (A) (A) (A) (A) (A) (A) (A) (A) (A) (A) (A) (A)
                 (A) (A) (A)
 The electronic state is 1-A.
 Alpha  occ. eigenvalues -- -104.73505-104.54221 -20.46805 -10.45457 -10.26653
 Alpha  occ. eigenvalues --   -7.92175  -7.91909  -7.91898  -7.73266  -7.73255
 Alpha  occ. eigenvalues --   -7.73255  -1.23337  -0.89925  -0.77665  -0.54280
 Alpha  occ. eigenvalues --   -0.44645  -0.43775  -0.31149  -0.28476  -0.19587
 Alpha  occ. eigenvalues --   -0.18845  -0.18819
 Alpha virt. eigenvalues --    0.15851   0.18211   0.22502   0.23079   0.25873
 Alpha virt. eigenvalues --    0.27296   0.27730   0.28621   0.31146   0.31588
 Alpha virt. eigenvalues --    0.33376   0.34715   0.39527   0.43127   0.45755
 Alpha virt. eigenvalues --    0.49900   0.51119   0.54108   0.55099   0.57359
 Alpha virt. eigenvalues --    0.57777   0.59245   0.60135   0.64566   0.66118
 Alpha virt. eigenvalues --    0.66791   0.68133   0.73111   0.76670   0.78145
 Alpha virt. eigenvalues --    0.84477   0.87109   0.88836   0.89360   0.90549
 Alpha virt. eigenvalues --    0.90818   0.96461   0.97984   1.02071   1.06594
 Alpha virt. eigenvalues --    1.06801   1.09130   1.09427   1.10014   1.12540
 Alpha virt. eigenvalues --    1.14652   1.16839   1.18832   1.19283   1.19648
 Alpha virt. eigenvalues --    1.20827   1.22955   1.26604   1.29677   1.31262
 Alpha virt. eigenvalues --    1.35058   1.38357   1.40917   1.43261   1.43430
 Alpha virt. eigenvalues --    1.46346   1.47758   1.51054   1.57713   1.60471
 Alpha virt. eigenvalues --    1.62860   1.66503   1.67316   1.67945   1.74313
 Alpha virt. eigenvalues --    1.80463   1.83592   1.85036   1.88221   1.93182
 Alpha virt. eigenvalues --    1.97168   2.22902   2.39174   2.46263   2.49680
 Alpha virt. eigenvalues --    2.51285   2.55821   2.58830   2.61524   2.64475
 Alpha virt. eigenvalues --    2.68056   2.70368   2.71569   2.71603   2.74174
 Alpha virt. eigenvalues --    2.76416   2.78534   2.80106   2.81526   2.89643
 Alpha virt. eigenvalues --    2.91566   2.91837   2.96023   3.05406   3.06487
 Alpha virt. eigenvalues --    3.07285   3.10512   3.18961   3.20787   3.21510
 Alpha virt. eigenvalues --    3.26017   3.29378   3.33009   3.33610   3.34333
 Alpha virt. eigenvalues --    3.36794   3.38811   3.39539   3.49246   3.50356
 Alpha virt. eigenvalues --    3.53409   3.54941   3.56188   3.62116   3.92192
 Alpha virt. eigenvalues --    4.17317   4.32043   4.46540   4.55076   4.56507
 Alpha virt. eigenvalues --    4.75938   4.98016   5.06493   5.34373   5.41587
 Alpha virt. eigenvalues --    5.66618   6.21458   6.50678   6.57256   6.86150
 Alpha virt. eigenvalues --    6.89921   6.91537   6.98460   7.29708   7.32931
 Alpha virt. eigenvalues --    7.34296   7.43537   7.53599   7.73657   7.78141
 Alpha virt. eigenvalues --    8.34519  14.42810
          Condensed to atoms (all electrons):
               1          2          3          4
     1  O    8.595273  -0.115367  -0.069175   0.052949
     2  Cl  -0.115367  17.058456   0.006434  -0.001246
     3  Cl  -0.069175   0.006434  17.871505   0.073217
     4  H    0.052949  -0.001246   0.073217   0.581140
 Mulliken charges:
               1
     1  O   -0.463681
     2  Cl   0.051723
     3  Cl  -0.881981
     4  H    0.293939
 Sum of Mulliken charges =  -1.00000
 Mulliken charges with hydrogens summed into heavy atoms:
               1
     1  O   -0.169741
     2  Cl   0.051723
     3  Cl  -0.881981
 Electronic spatial extent (au):  <R**2>=            613.4420
 Charge=             -1.0000 electrons
 Dipole moment (field-independent basis, Debye):
    X=              6.3206    Y=             -0.1991    Z=              0.2594  Tot=              6.3290
 Quadrupole moment (field-independent basis, Debye-Ang):
   XX=            -57.3740   YY=            -37.3416   ZZ=            -36.6659
   XY=             -2.7936   XZ=             -0.0325   YZ=              0.2147
 Traceless Quadrupole moment (field-independent basis, Debye-Ang):
   XX=            -13.5802   YY=              6.4522   ZZ=              7.1279
   XY=             -2.7936   XZ=             -0.0325   YZ=              0.2147
 Octapole moment (field-independent basis, Debye-Ang**2):
  XXX=             56.1535  YYY=              0.4649  ZZZ=             -0.2582  XYY=              7.3414
  XXY=              0.4999  XXZ=             -0.9964  XZZ=              6.7009  YZZ=              1.0671
  YYZ=             -0.0608  XYZ=             -0.2389
 Hexadecapole moment (field-independent basis, Debye-Ang**3):
 XXXX=           -845.9864 YYYY=            -96.2658 ZZZZ=            -50.5587 XXXY=            -11.8122
 XXXZ=              0.9220 YYYX=             -6.8468 YYYZ=             -0.1630 ZZZX=              0.1560
 ZZZY=              0.0335 XXYY=           -139.7463 XXZZ=           -138.0349 YYZZ=            -25.0209
 XXYZ=             -0.0427 YYXZ=             -0.1322 ZZXY=             -0.1925
 N-N= 1.180655085088D+02 E-N=-2.613714460444D+03  KE= 9.949838630933D+02
 No NMR shielding tensors so no spin-rotation constants.
 Leave Link  601 at Mon Sep 13 14:40:43 2021, MaxMem= 16106127360 cpu:               4.1 elap:               0.2
 (Enter /sw/contrib/gaussian/g16/B01/g16/l9999.exe)
 1\1\GINC-N2184\POpt\RMP2-FC\Aug-CC-pVTZ\Cl2H1O1(1-)\CGAVINH\13-Sep-202
 1\1\\#p opt=(z-matrix,tight) mp2/aug-cc-pvtz density=current\\title\\-
 1,1\O\X,1,10.\Cl,1,r2,2,90.\Cl,1,r3,2,90.,3,a2,0\H,1,r1,2,OOP,3,a1,0\\
 r1=1.01030015\r2=1.68499987\r3=3.07067241\a1=103.50790746\a2=106.18683
 755\OOP=75.\\Version=ES64L-G16RevB.01\State=1-A\HF=-994.5228834\MP2=-9
 95.1877748\RMSD=4.922e-09\RMSF=4.694e-03\Dipole=2.4867111,-0.0783348,0
 .1020497\Quadrupole=-10.0965127,4.7970758,5.2994369,-2.0770091,-0.0241
 867,0.1596106\PG=C01 [X(Cl2H1O1)]\\@


 ALL THINGS ARE POSSIBLE EXCEPT SKIING THROUGH A REVOLVING DOOR.
 Job cpu time:       0 days  0 hours 21 minutes 32.3 seconds.
 Elapsed time:       0 days  0 hours  1 minutes  1.5 seconds.
 File lengths (MBytes):  RWF=     19 Int=      0 D2E=      0 Chk=      8 Scr=      1
 Normal termination of Gaussian 16 at Mon Sep 13 14:40:43 2021.
