title                                                                   
POpt      RMP2-FC                                                     Aug-CC-pVTZ         
Number of atoms                            I                4
Info1-9                                    I   N=           9
          26          21           0           0           2         100
           2           2           1
Full Title                                 C   N=           1
title       
Route                                      C   N=           5
# opt=(z-matrix,tight) mp2/aug-cc-pvtz density=current      
Charge                                     I               -1
Multiplicity                               I                1
Number of electrons                        I               44
Number of alpha electrons                  I               22
Number of beta electrons                   I               22
Number of basis functions                  I              169
Number of independent functions            I              169
Number of point charges in /Mol/           I                0
Number of translation vectors              I                0
Atomic numbers                             I   N=           4
           8          17          17           1
Nuclear charges                            R   N=           4
  8.00000000E+00  1.70000000E+01  1.70000000E+01  1.00000000E+00
Current cartesian coordinates              R   N=          12
 -1.91395126E+00  1.32479877E+00 -7.39557099E-32 -2.97824128E+00 -1.67625800E+00
 -1.97215226E-31  3.87892423E+00  9.86764006E-01  1.97215226E-31 -4.33967062E-17
  1.12300772E+00  6.16297582E-33
Number of symbols in /Mol/                 I                0
Force Field                                I                0
Atom Types                                 C   N=           4
                                                
Int Atom Types                             I   N=           4
           0           0           0           0
MM charges                                 R   N=           4
  0.00000000E+00  0.00000000E+00  0.00000000E+00  0.00000000E+00
Integer atomic weights                     I   N=           4
          16          35          35           1
Real atomic weights                        R   N=           4
  1.59949146E+01  3.49688527E+01  3.49688527E+01  1.00782504E+00
Atom fragment info                         I   N=           4
           0           0           0           0
Atom residue num                           I   N=           4
           0           0           0           0
Nuclear spins                              I   N=           4
           0           3           3           1
Nuclear ZEff                               R   N=           4
 -5.60000000E+00 -1.42400000E+01 -1.42400000E+01 -1.00000000E+00
Nuclear ZNuc                               R   N=           4
  8.00000000E+00  1.70000000E+01  1.70000000E+01  1.00000000E+00
Nuclear QMom                               R   N=           4
  0.00000000E+00 -8.16500000E+00 -8.16500000E+00  0.00000000E+00
Nuclear GFac                               R   N=           4
  0.00000000E+00  8.21874000E-01  8.21874000E-01  2.79284600E+00
MicOpt                                     I   N=           4
          -1          -1          -1          -1
Number of residues                         I                0
Number of secondary structures             I                0
SymInf integers                            I   N=          26
           1           2           1           1           1           1
           1          -1           0           0           0           0
           0           0           0           0           0           0
           0           0           0           0           0           0
           0           0
RotTr to input orientation                 R   N=          12
 -3.34242176E-01 -9.42487224E-01 -1.16454425E-16 -9.42487224E-01  3.34242176E-01
 -3.78941257E-17  7.46387097E-17  9.70909926E-17 -1.00000000E+00  6.08882680E-01
 -2.24667824E+00  0.00000000E+00
Number of contracted shells                I               55
Number of primitive shells                 I              140
Pure/Cartesian d shells                    I                0
Pure/Cartesian f shells                    I                0
Highest angular momentum                   I                3
Largest degree of contraction              I               11
Shell types                                I   N=          55
           0           0           0           0           0           1
           1           1           1          -2          -2          -2
          -3          -3           0           0           0           0
           0           0           1           1           1           1
           1          -2          -2          -2          -3          -3
           0           0           0           0           0           0
           1           1           1           1           1          -2
          -2          -2          -3          -3           0           0
           0           0           1           1           1          -2
          -2
Number of primitives per shell             I   N=          55
           7           6           1           1           1           3
           1           1           1           1           1           1
           1           1          11           9           8           1
           1           1           6           6           1           1
           1           1           1           1           1           1
          11           9           8           1           1           1
           6           6           1           1           1           1
           1           1           1           1           3           1
           1           1           1           1           1           1
           1
Shell to atom map                          I   N=          55
           1           1           1           1           1           1
           1           1           1           1           1           1
           1           1           2           2           2           2
           2           2           2           2           2           2
           2           2           2           2           2           2
           3           3           3           3           3           3
           3           3           3           3           3           3
           3           3           3           3           4           4
           4           4           4           4           4           4
           4
Primitive exponents                        R   N=         140
  1.53300000E+04  2.29900000E+03  5.22400000E+02  1.47300000E+02  4.75500000E+01
  1.67600000E+01  6.20700000E+00  5.22400000E+02  1.47300000E+02  4.75500000E+01
  1.67600000E+01  6.20700000E+00  6.88200000E-01  1.75200000E+00  2.38400000E-01
  7.37600000E-02  3.44600000E+01  7.74900000E+00  2.28000000E+00  7.15600000E-01
  2.14000000E-01  5.97400000E-02  2.31400000E+00  6.45000000E-01  2.14000000E-01
  1.42800000E+00  5.00000000E-01  4.56100000E+05  6.83300000E+04  1.55500000E+04
  4.40500000E+03  1.43900000E+03  5.20400000E+02  2.03100000E+02  8.39600000E+01
  3.62000000E+01  1.58300000E+01  6.33400000E+00  4.40500000E+03  1.43900000E+03
  5.20400000E+02  2.03100000E+02  8.39600000E+01  3.62000000E+01  1.58300000E+01
  6.33400000E+00  2.69400000E+00  1.43900000E+03  2.03100000E+02  8.39600000E+01
  3.62000000E+01  1.58300000E+01  6.33400000E+00  2.69400000E+00  4.31300000E-01
  9.76800000E-01  1.62500000E-01  5.91000000E-02  6.63300000E+02  1.56800000E+02
  4.99800000E+01  1.84200000E+01  7.24000000E+00  2.92200000E+00  1.56800000E+02
  4.99800000E+01  1.84200000E+01  7.24000000E+00  2.92200000E+00  3.81800000E-01
  1.02200000E+00  1.30100000E-01  4.19000000E-02  1.04600000E+00  3.44000000E-01
  1.35000000E-01  7.06000000E-01  3.12000000E-01  4.56100000E+05  6.83300000E+04
  1.55500000E+04  4.40500000E+03  1.43900000E+03  5.20400000E+02  2.03100000E+02
  8.39600000E+01  3.62000000E+01  1.58300000E+01  6.33400000E+00  4.40500000E+03
  1.43900000E+03  5.20400000E+02  2.03100000E+02  8.39600000E+01  3.62000000E+01
  1.58300000E+01  6.33400000E+00  2.69400000E+00  1.43900000E+03  2.03100000E+02
  8.39600000E+01  3.62000000E+01  1.58300000E+01  6.33400000E+00  2.69400000E+00
  4.31300000E-01  9.76800000E-01  1.62500000E-01  5.91000000E-02  6.63300000E+02
  1.56800000E+02  4.99800000E+01  1.84200000E+01  7.24000000E+00  2.92200000E+00
  1.56800000E+02  4.99800000E+01  1.84200000E+01  7.24000000E+00  2.92200000E+00
  3.81800000E-01  1.02200000E+00  1.30100000E-01  4.19000000E-02  1.04600000E+00
  3.44000000E-01  1.35000000E-01  7.06000000E-01  3.12000000E-01  3.38700000E+01
  5.09500000E+00  1.15900000E+00  3.25800000E-01  1.02700000E-01  2.52600000E-02
  1.40700000E+00  3.88000000E-01  1.02000000E-01  1.05700000E+00  2.47000000E-01
Contraction coefficients                   R   N=         140
  5.19808943E-04  4.02025621E-03  2.07128267E-02  8.10105536E-02  2.35962985E-01
  4.42653446E-01  3.57064423E-01 -4.42115008E-05 -1.22591041E-03 -1.05517725E-02
 -6.74452633E-02 -1.71198607E-01  1.07329856E+00  1.00000000E+00  1.00000000E+00
  1.00000000E+00  4.11634896E-02  2.57762836E-01  8.02419274E-01  1.00000000E+00
  1.00000000E+00  1.00000000E+00  1.00000000E+00  1.00000000E+00  1.00000000E+00
  1.00000000E+00  1.00000000E+00  4.93229477E-05  3.83207967E-04  2.00947816E-03
  8.38950124E-03  2.94843950E-02  8.78759948E-02  2.11589759E-01  3.65611554E-01
  3.41246350E-01  1.02162570E-01  2.14249949E-03 -2.21747925E-06 -1.71189708E-04
 -1.27922846E-03 -9.32956265E-03 -3.98910062E-02 -1.05536085E-01  9.36202446E-03
  5.10511140E-01  5.73150737E-01  4.03949245E-06  2.12481765E-04  8.59484452E-04
  4.63248159E-03  4.47343490E-04 -7.38438245E-02 -3.62271994E-01  1.16620337E+00
  1.00000000E+00  1.00000000E+00  1.00000000E+00  2.47206402E-03  1.97550234E-02
  9.09917355E-02  2.63187834E-01  4.49078073E-01  3.60183072E-01  3.03427809E-05
 -1.22475826E-03 -6.01429772E-03 -2.76401323E-02  4.35105612E-04  1.00307272E+00
  1.00000000E+00  1.00000000E+00  1.00000000E+00  1.00000000E+00  1.00000000E+00
  1.00000000E+00  1.00000000E+00  1.00000000E+00  4.93229477E-05  3.83207967E-04
  2.00947816E-03  8.38950124E-03  2.94843950E-02  8.78759948E-02  2.11589759E-01
  3.65611554E-01  3.41246350E-01  1.02162570E-01  2.14249949E-03 -2.21747925E-06
 -1.71189708E-04 -1.27922846E-03 -9.32956265E-03 -3.98910062E-02 -1.05536085E-01
  9.36202446E-03  5.10511140E-01  5.73150737E-01  4.03949245E-06  2.12481765E-04
  8.59484452E-04  4.63248159E-03  4.47343490E-04 -7.38438245E-02 -3.62271994E-01
  1.16620337E+00  1.00000000E+00  1.00000000E+00  1.00000000E+00  2.47206402E-03
  1.97550234E-02  9.09917355E-02  2.63187834E-01  4.49078073E-01  3.60183072E-01
  3.03427809E-05 -1.22475826E-03 -6.01429772E-03 -2.76401323E-02  4.35105612E-04
  1.00307272E+00  1.00000000E+00  1.00000000E+00  1.00000000E+00  1.00000000E+00
  1.00000000E+00  1.00000000E+00  1.00000000E+00  1.00000000E+00  2.54948632E-02
  1.90362766E-01  8.52162022E-01  1.00000000E+00  1.00000000E+00  1.00000000E+00
  1.00000000E+00  1.00000000E+00  1.00000000E+00  1.00000000E+00  1.00000000E+00
Coordinates of each shell                  R   N=         165
 -1.91395126E+00  1.32479877E+00 -6.66914608E-32 -1.91395126E+00  1.32479877E+00
 -6.66914608E-32 -1.91395126E+00  1.32479877E+00 -6.66914608E-32 -1.91395126E+00
  1.32479877E+00 -6.66914608E-32 -1.91395126E+00  1.32479877E+00 -6.66914608E-32
 -1.91395126E+00  1.32479877E+00 -6.66914608E-32 -1.91395126E+00  1.32479877E+00
 -6.66914608E-32 -1.91395126E+00  1.32479877E+00 -6.66914608E-32 -1.91395126E+00
  1.32479877E+00 -6.66914608E-32 -1.91395126E+00  1.32479877E+00 -6.66914608E-32
 -1.91395126E+00  1.32479877E+00 -6.66914608E-32 -1.91395126E+00  1.32479877E+00
 -6.66914608E-32 -1.91395126E+00  1.32479877E+00 -6.66914608E-32 -1.91395126E+00
  1.32479877E+00 -6.66914608E-32 -2.97824128E+00 -1.67625800E+00 -1.15294343E-31
 -2.97824128E+00 -1.67625800E+00 -1.15294343E-31 -2.97824128E+00 -1.67625800E+00
 -1.15294343E-31 -2.97824128E+00 -1.67625800E+00 -1.15294343E-31 -2.97824128E+00
 -1.67625800E+00 -1.15294343E-31 -2.97824128E+00 -1.67625800E+00 -1.15294343E-31
 -2.97824128E+00 -1.67625800E+00 -1.15294343E-31 -2.97824128E+00 -1.67625800E+00
 -1.15294343E-31 -2.97824128E+00 -1.67625800E+00 -1.15294343E-31 -2.97824128E+00
 -1.67625800E+00 -1.15294343E-31 -2.97824128E+00 -1.67625800E+00 -1.15294343E-31
 -2.97824128E+00 -1.67625800E+00 -1.15294343E-31 -2.97824128E+00 -1.67625800E+00
 -1.15294343E-31 -2.97824128E+00 -1.67625800E+00 -1.15294343E-31 -2.97824128E+00
 -1.67625800E+00 -1.15294343E-31 -2.97824128E+00 -1.67625800E+00 -1.15294343E-31
  3.87892423E+00  9.86764006E-01  1.46474999E-31  3.87892423E+00  9.86764006E-01
  1.46474999E-31  3.87892423E+00  9.86764006E-01  1.46474999E-31  3.87892423E+00
  9.86764006E-01  1.46474999E-31  3.87892423E+00  9.86764006E-01  1.46474999E-31
  3.87892423E+00  9.86764006E-01  1.46474999E-31  3.87892423E+00  9.86764006E-01
  1.46474999E-31  3.87892423E+00  9.86764006E-01  1.46474999E-31  3.87892423E+00
  9.86764006E-01  1.46474999E-31  3.87892423E+00  9.86764006E-01  1.46474999E-31
  3.87892423E+00  9.86764006E-01  1.46474999E-31  3.87892423E+00  9.86764006E-01
  1.46474999E-31  3.87892423E+00  9.86764006E-01  1.46474999E-31  3.87892423E+00
  9.86764006E-01  1.46474999E-31  3.87892423E+00  9.86764006E-01  1.46474999E-31
  3.87892423E+00  9.86764006E-01  1.46474999E-31 -8.06580825E-17  1.12300772E+00
  3.46053471E-33 -8.06580825E-17  1.12300772E+00  3.46053471E-33 -8.06580825E-17
  1.12300772E+00  3.46053471E-33 -8.06580825E-17  1.12300772E+00  3.46053471E-33
 -8.06580825E-17  1.12300772E+00  3.46053471E-33 -8.06580825E-17  1.12300772E+00
  3.46053471E-33 -8.06580825E-17  1.12300772E+00  3.46053471E-33 -8.06580825E-17
  1.12300772E+00  3.46053471E-33 -8.06580825E-17  1.12300772E+00  3.46053471E-33
Num ILSW                                   I              100
ILSW                                       I   N=         100
           0           0           0           1           2           0
           0           0           0           0           0          -1
           5           0           0           0           2           0
           0           0           1           0           1           0
           1           0           0           0           0           0
           0           0      100000           0          -1           0
           0           0           0           0           0           0
           0           0           0           1           0           0
           0 -2000000000           1           0           0           0
           0           0           4          52           0           0
           0           0           0           0           0           0
           0           0           0           0           0           1
           0           0           0           0           0           0
           0           0           0           0           0           0
           0           0           0           0           0           0
           0           0           0           0           0           0
           0           0           0           0
Num RLSW                                   I               52
RLSW                                       R   N=          52
  1.00000000E+00  1.00000000E+00  1.00000000E+00  1.00000000E+00  1.00000000E+00
  0.00000000E+00  0.00000000E+00  1.00000000E+00  0.00000000E+00  0.00000000E+00
  0.00000000E+00  0.00000000E+00  1.00000000E+00  0.00000000E+00  0.00000000E+00
  0.00000000E+00  0.00000000E+00  1.00000000E+00  0.00000000E+00  0.00000000E+00
  0.00000000E+00  0.00000000E+00  1.00000000E+00  0.00000000E+00  0.00000000E+00
  0.00000000E+00  0.00000000E+00  1.00000000E+00  0.00000000E+00  0.00000000E+00
  0.00000000E+00  0.00000000E+00  1.00000000E+00  0.00000000E+00  0.00000000E+00
  0.00000000E+00  0.00000000E+00  0.00000000E+00  1.00000000E+00  1.00000000E+00
  0.00000000E+00  1.00000000E+00  0.00000000E+00  0.00000000E+00  0.00000000E+00
  0.00000000E+00  0.00000000E+00  0.00000000E+00  0.00000000E+00  0.00000000E+00
  0.00000000E+00  0.00000000E+00
MxBond                                     I                2
NBond                                      I   N=           4
           2           1           0           1
IBond                                      I   N=           8
           2           4           1           0           0           0
           1           0
RBond                                      R   N=           8
  1.00000000E+00  1.00000000E+00  1.00000000E+00  0.00000000E+00  0.00000000E+00
  0.00000000E+00  1.00000000E+00  0.00000000E+00
Virial Ratio                               R      2.000213995238382E+00
SCF Energy                                 R     -9.945252583772807E+02
MP2 Energy                                 R     -9.951908126048207E+02
Total Energy                               R     -9.951908126048207E+02
Post-SCF wavefunction norm                 R      1.103630306120064E+00
RMS Force                                  R      3.101866604487866E-03
RMS Density                                R      4.892292077301758E-09
Job Status                                 I                1
Nuclear derivative order                   I                1
External E-field                           R   N=          35
  0.00000000E+00  0.00000000E+00  0.00000000E+00  0.00000000E+00  0.00000000E+00
  0.00000000E+00  0.00000000E+00  0.00000000E+00  0.00000000E+00  0.00000000E+00
  0.00000000E+00  0.00000000E+00  0.00000000E+00  0.00000000E+00  0.00000000E+00
  0.00000000E+00  0.00000000E+00  0.00000000E+00  0.00000000E+00  0.00000000E+00
  0.00000000E+00  0.00000000E+00  0.00000000E+00  0.00000000E+00  0.00000000E+00
  0.00000000E+00  0.00000000E+00  0.00000000E+00  0.00000000E+00  0.00000000E+00
  0.00000000E+00  0.00000000E+00  0.00000000E+00  0.00000000E+00  0.00000000E+00
IOpCl                                      I                0
IROHF                                      I                0
Alpha Orbital Energies                     R   N=         169
 -1.04732919E+02 -1.04545751E+02 -2.04644037E+01 -1.04524224E+01 -1.02701014E+01
 -7.91959370E+00 -7.91695317E+00 -7.91685369E+00 -7.73623977E+00 -7.73612262E+00
 -7.73611848E+00 -1.22867748E+00 -8.96575919E-01 -7.80946844E-01 -5.38569178E-01
 -4.43385212E-01 -4.34777397E-01 -3.09291327E-01 -2.82267865E-01 -2.00153553E-01
 -1.91939056E-01 -1.91901636E-01  1.59291228E-01  1.83208832E-01  2.25926361E-01
  2.31165820E-01  2.57830697E-01  2.72457943E-01  2.75878350E-01  2.87638332E-01
  3.08781074E-01  3.24572498E-01  3.32352138E-01  3.48668506E-01  3.85025982E-01
  4.46896145E-01  4.53207060E-01  4.99254922E-01  5.17652235E-01  5.39901613E-01
  5.58912287E-01  5.60625400E-01  5.76534816E-01  5.91397244E-01  5.98792458E-01
  6.45530712E-01  6.61141567E-01  6.81494586E-01  6.85679528E-01  7.45469242E-01
  7.75208541E-01  7.78260517E-01  8.34905989E-01  8.79467590E-01  8.83319347E-01
  9.03818400E-01  9.05934620E-01  9.13674935E-01  9.59263896E-01  9.86269360E-01
  1.05029518E+00  1.05991536E+00  1.06044056E+00  1.08289080E+00  1.09187839E+00
  1.09846505E+00  1.12257158E+00  1.12839220E+00  1.16001491E+00  1.18772192E+00
  1.18989522E+00  1.20705833E+00  1.20900009E+00  1.22384613E+00  1.27997952E+00
  1.30933544E+00  1.31325517E+00  1.35430641E+00  1.39005412E+00  1.42246433E+00
  1.43128715E+00  1.43463567E+00  1.46114627E+00  1.47955510E+00  1.53747904E+00
  1.57595029E+00  1.63207358E+00  1.65550369E+00  1.66523654E+00  1.69633053E+00
  1.69925669E+00  1.77102155E+00  1.77811745E+00  1.82691461E+00  1.84767035E+00
  1.88153722E+00  1.94601298E+00  1.98213579E+00  2.26852908E+00  2.38168931E+00
  2.47830409E+00  2.50750938E+00  2.52525389E+00  2.57708401E+00  2.58426058E+00
  2.61024771E+00  2.65614433E+00  2.67701517E+00  2.69935491E+00  2.71643243E+00
  2.72158418E+00  2.75907069E+00  2.76323033E+00  2.78937234E+00  2.79811935E+00
  2.81311198E+00  2.91152228E+00  2.91650291E+00  2.92966198E+00  2.96732328E+00
  3.02715104E+00  3.07913396E+00  3.12055025E+00  3.12304164E+00  3.19221741E+00
  3.21452612E+00  3.22126812E+00  3.27392012E+00  3.29449498E+00  3.31431189E+00
  3.33319238E+00  3.33332847E+00  3.39863851E+00  3.39896328E+00  3.40294402E+00
  3.48906400E+00  3.49112405E+00  3.54436939E+00  3.55062048E+00  3.56531188E+00
  3.64805691E+00  3.93290872E+00  4.22559044E+00  4.30674359E+00  4.43650286E+00
  4.53672884E+00  4.58247136E+00  4.78091081E+00  4.98680722E+00  5.09187170E+00
  5.32968440E+00  5.37317341E+00  5.65500575E+00  6.28803728E+00  6.51801802E+00
  6.66485736E+00  6.84412555E+00  6.90054211E+00  6.91394692E+00  6.98782263E+00
  7.26646813E+00  7.32052107E+00  7.34085323E+00  7.44268064E+00  7.54448512E+00
  7.73575305E+00  7.80811487E+00  8.34417015E+00  1.44861009E+01
Alpha MO coefficients                      R   N=       28561
  5.03004245E-06  2.81696269E-05  2.38144465E-06 -1.53077811E-04 -1.06379507E-04
  2.06064492E-07 -2.99306060E-06  0.00000000E+00 -4.16239453E-06  9.18925682E-06
  0.00000000E+00  6.52936363E-05  1.46222267E-04  0.00000000E+00  1.49451318E-05
  3.59182911E-05  0.00000000E+00 -2.21039575E-06  0.00000000E+00  0.00000000E+00
 -2.71293385E-06  2.08254374E-06  1.45949757E-05  0.00000000E+00  0.00000000E+00
  1.78913639E-05 -1.37429912E-05  2.46224423E-05  0.00000000E+00  0.00000000E+00
  5.59790266E-05 -2.43313534E-05  0.00000000E+00 -2.60554155E-07  1.08359582E-07
  0.00000000E+00  0.00000000E+00 -1.95377367E-06 -4.17621910E-07  0.00000000E+00
 -4.17668288E-06 -1.29084590E-05  0.00000000E+00  0.00000000E+00 -7.18073033E-06
 -6.92880442E-06  9.99534858E-01  1.95401559E-03  1.84790386E-04 -4.17948540E-04
  7.10456223E-05  7.44128795E-05  2.58758731E-05  7.26165873E-05  0.00000000E+00
  5.20902927E-05  1.29212956E-04  0.00000000E+00 -2.60976248E-05 -6.90173332E-05
  0.00000000E+00  7.68572118E-06  5.55419336E-05  0.00000000E+00  3.30434214E-06
  1.11778919E-05  0.00000000E+00 -3.64831272E-06  0.00000000E+00  0.00000000E+00
 -4.17424574E-06  4.28699041E-06 -2.85249091E-05  0.00000000E+00  0.00000000E+00
 -3.72825585E-05  3.26128074E-05 -4.04116767E-07  0.00000000E+00  0.00000000E+00
 -1.06410769E-05  7.82267043E-07  0.00000000E+00 -2.78441016E-06 -5.96509753E-06
  0.00000000E+00  0.00000000E+00 -5.55187633E-06 -2.26021508E-06  0.00000000E+00
  3.91814503E-07 -2.87860143E-06  0.00000000E+00  0.00000000E+00 -6.60832169E-06
 -5.87767658E-06  1.64054474E-07  2.20689892E-06  5.67693477E-06 -1.06484216E-06
 -1.53957440E-05 -8.62295306E-06  1.72367936E-07 -1.21606802E-07  0.00000000E+00
  1.87051298E-06 -1.93852863E-06  0.00000000E+00 -7.85158391E-07  4.87133443E-07
  0.00000000E+00  1.55283035E-05  5.90169421E-06  0.00000000E+00  3.06453009E-06
 -7.02902702E-08  0.00000000E+00 -2.63130772E-07  0.00000000E+00  0.00000000E+00
  2.80581126E-07  2.93177886E-07  1.43549064E-06  0.00000000E+00  0.00000000E+00
 -2.16675347E-06 -9.66575245E-08  3.78937040E-06  0.00000000E+00  0.00000000E+00
 -5.32585378E-06 -4.57109629E-06  0.00000000E+00  5.16084280E-07  2.60015425E-07
  0.00000000E+00  0.00000000E+00 -1.16532928E-07 -1.05368350E-06  0.00000000E+00
 -2.03086184E-06 -6.77750622E-07  0.00000000E+00  0.00000000E+00  1.08271768E-06
  2.75878905E-06 -1.60871151E-06 -1.84576339E-05  5.34377488E-05 -7.14762102E-06
  1.21217558E-06  2.50161950E-06  0.00000000E+00 -1.34805716E-05 -1.42026222E-05
  0.00000000E+00 -4.39862290E-06 -2.40268574E-05  0.00000000E+00 -5.83164722E-07
  0.00000000E+00  0.00000000E+00 -3.13738515E-07  1.06254493E-06 -1.47859434E-05
  0.00000000E+00  0.00000000E+00  1.05684937E-05  1.21811188E-07  1.42267005E-06
  8.10497103E-06  2.55747296E-07 -2.72566373E-06  5.29017300E-05  1.94438659E-07
  3.95454254E-09  0.00000000E+00  9.02886800E-07 -3.34706090E-07  0.00000000E+00
 -5.40714178E-05  7.67275544E-06  0.00000000E+00 -1.88144945E-06  2.79221337E-07
  0.00000000E+00 -3.99370354E-07  0.00000000E+00  0.00000000E+00  5.66236427E-07
 -2.77393037E-08  2.72012860E-06  0.00000000E+00  0.00000000E+00 -4.19041562E-06
  4.25759833E-07  1.74607224E-05  0.00000000E+00  0.00000000E+00 -2.55634068E-05
  2.30625523E-06  0.00000000E+00 -4.29427951E-07  4.02325365E-08  0.00000000E+00
  0.00000000E+00  2.39193934E-07  4.72537934E-08  0.00000000E+00  4.24698801E-06
 -5.47192945E-07  0.00000000E+00  0.00000000E+00 -4.82621915E-06  8.07733211E-07
 -1.70255348E-08  1.83513830E-07  7.51607145E-08 -1.01901599E-06  1.10071615E-05
 -1.28681143E-05  3.88890333E-07  9.59364788E-08  0.00000000E+00  5.23065671E-06
  1.62744683E-06  0.00000000E+00 -1.52285419E-06 -4.23370002E-07  0.00000000E+00
 -8.17469423E-06  2.18432049E-06  0.00000000E+00 -9.69373869E-07 -4.36136807E-06
  0.00000000E+00  3.70526142E-08  0.00000000E+00  0.00000000E+00 -1.09325287E-07
  2.61106914E-07 -1.53653738E-06  0.00000000E+00  0.00000000E+00  2.59695314E-07
  3.00109969E-07  3.53846970E-06  0.00000000E+00  0.00000000E+00 -5.70121751E-06
 -3.03163308E-06  0.00000000E+00 -9.78292308E-07 -1.79404175E-07  0.00000000E+00
  0.00000000E+00  4.00984434E-07  3.62115633E-07  0.00000000E+00  2.32039298E-06
 -2.31990683E-07  0.00000000E+00  0.00000000E+00 -9.84245042E-07 -1.60897722E-06
  9.99532009E-01  1.98293601E-03  2.13924905E-04 -4.24639662E-04 -1.70650355E-04
 -4.01005521E-05 -1.02165142E-05  3.67101624E-07  0.00000000E+00 -2.75652017E-05
  6.48713081E-07  0.00000000E+00  1.23364315E-05 -3.58547187E-07  0.00000000E+00
  8.89374660E-05 -1.72367407E-06  0.00000000E+00  8.78042041E-06 -4.36895744E-07
  0.00000000E+00 -7.34981189E-07  0.00000000E+00  0.00000000E+00  9.75090483E-07
  1.57131346E-08 -6.02659598E-07  0.00000000E+00  0.00000000E+00  1.90933714E-06
 -2.22084140E-07  1.42168543E-05  0.00000000E+00  0.00000000E+00 -2.53870705E-05
  1.23728033E-06  0.00000000E+00  1.60343552E-06 -1.09759425E-07  0.00000000E+00
  0.00000000E+00 -2.04736388E-06  1.54553288E-07  0.00000000E+00 -4.28613403E-06
  2.51604040E-07  0.00000000E+00  0.00000000E+00  5.26844124E-06 -4.68593955E-07
 -3.33824680E-07  7.83707678E-05  3.81841053E-05 -1.93031806E-07 -2.45087235E-06
  4.83224840E-07  0.00000000E+00 -8.49364983E-07  1.08392177E-06  0.00000000E+00
  1.34139310E-04 -1.33313496E-05  0.00000000E+00 -5.45073452E-07  0.00000000E+00
  0.00000000E+00  1.18068222E-06 -2.10015395E-07  4.38100962E-06  0.00000000E+00
  0.00000000E+00 -1.27774382E-05  2.36248763E-06  9.76808416E-01 -9.26076793E-03
  4.33847768E-02  1.25783538E-03  5.07946530E-04  7.48857338E-04 -1.68126525E-03
  0.00000000E+00 -1.02380364E-03  1.32293367E-03  0.00000000E+00 -2.23437406E-04
 -2.38919107E-04  0.00000000E+00 -2.34786724E-04 -2.00742123E-04  0.00000000E+00
  4.00579741E-05  0.00000000E+00  0.00000000E+00  8.82125115E-05 -5.99917360E-05
  4.91824200E-04  0.00000000E+00  0.00000000E+00 -4.83755959E-05 -1.36645715E-04
 -1.39643320E-04  0.00000000E+00  0.00000000E+00 -8.36204068E-05  1.15122077E-04
  0.00000000E+00  1.09269166E-05 -1.94680735E-05  0.00000000E+00  0.00000000E+00
 -6.45414121E-06 -6.65385126E-06  0.00000000E+00  3.53447898E-05 -2.75744669E-05
  0.00000000E+00  0.00000000E+00 -1.15172629E-04  9.42645945E-05  3.70977747E-06
  6.35144694E-05  5.62419132E-05 -2.89482969E-04  3.77390273E-04 -6.68497341E-04
  9.56553987E-07  1.49001913E-05  0.00000000E+00  1.52457143E-04  6.72792567E-04
  0.00000000E+00 -7.78870610E-05 -2.74509601E-04  0.00000000E+00  1.00106487E-04
 -1.98004720E-04  0.00000000E+00 -2.14191103E-05 -1.48482093E-04  0.00000000E+00
  1.77291965E-05  0.00000000E+00  0.00000000E+00  2.35788244E-06 -6.58954824E-06
 -3.44882904E-04  0.00000000E+00  0.00000000E+00 -4.43289654E-04  2.79262331E-04
  1.01008114E-04  0.00000000E+00  0.00000000E+00  2.07155527E-04  6.99639424E-06
  0.00000000E+00 -4.07752493E-05 -1.59752503E-04  0.00000000E+00  0.00000000E+00
 -1.77632183E-04 -1.45339318E-04  0.00000000E+00 -6.47698817E-05 -1.04607703E-04
  0.00000000E+00  0.00000000E+00 -8.22275159E-05 -4.36111358E-05  5.51705080E-06
  7.40085764E-05  2.16976043E-04  2.23199902E-05 -1.28925783E-03 -8.31911244E-04
  1.65274384E-05  1.40754835E-07  0.00000000E+00  2.96789905E-04 -1.80362301E-06
  0.00000000E+00 -7.68593594E-05 -7.01929682E-07  0.00000000E+00  1.06610592E-03
 -4.36572921E-05  0.00000000E+00  1.42587951E-04  4.52332952E-06  0.00000000E+00
  1.93083117E-07  0.00000000E+00  0.00000000E+00  3.58940505E-06 -9.10097528E-07
  9.01508513E-05  0.00000000E+00  0.00000000E+00 -1.65882879E-04  7.67327153E-06
  1.25405887E-04  0.00000000E+00  0.00000000E+00 -2.24718657E-04  8.42349543E-06
  0.00000000E+00 -2.22148645E-05  8.71954533E-07  0.00000000E+00  0.00000000E+00
  2.08493578E-05  2.20275709E-07  0.00000000E+00  1.62302055E-05 -2.70845043E-06
  0.00000000E+00  0.00000000E+00  8.49386448E-07  3.13733545E-06  2.90814563E-04
  1.29322519E-03  1.86519301E-03  2.15425181E-04 -2.60145643E-04 -1.29404119E-05
  0.00000000E+00 -1.38084115E-03  8.02425280E-05  0.00000000E+00  1.36246746E-03
  6.50825255E-05  0.00000000E+00 -9.55290014E-06  0.00000000E+00  0.00000000E+00
  2.41841436E-05  6.35641653E-05 -6.07299737E-04  0.00000000E+00  0.00000000E+00
  1.21744093E-03 -1.68084311E-04 -6.71094307E-05 -4.58108693E-05 -1.06603099E-04
  2.83416925E-03  2.61089870E-03 -3.06386335E-05 -3.71422513E-05  0.00000000E+00
 -8.31004912E-05 -5.61267501E-04  0.00000000E+00 -7.94234401E-04 -2.32587214E-03
  0.00000000E+00 -3.11023754E-04 -9.20345257E-04  0.00000000E+00 -2.20420984E-05
  0.00000000E+00  0.00000000E+00 -3.58711303E-05  4.13493000E-05 -2.14731840E-04
  0.00000000E+00  0.00000000E+00 -2.30139756E-04  1.00020673E-04 -2.55009022E-04
  0.00000000E+00  0.00000000E+00 -7.76497510E-04  5.39312696E-05  0.00000000E+00
  5.76059683E-06  2.22818201E-05  0.00000000E+00  0.00000000E+00  6.39589272E-05