title                                                                   
Freq      RMP2-FC                                                     Aug-CC-pVTZ         
Number of atoms                            I                4
Info1-9                                    I   N=           9
          25          20        1002           0           0         100
           6           2           1
Full Title                                 C   N=           1
title       
Route                                      C   N=           4
# opt=(z-matrix,tight) mp2/aug-cc-pvtz freq=anh 
Charge                                     I               -1
Multiplicity                               I                1
Number of electrons                        I               62
Number of alpha electrons                  I               31
Number of beta electrons                   I               31
Number of basis functions                  I              178
Number of independent functions            I              178
Number of point charges in /Mol/           I                0
Number of translation vectors              I                0
Atomic numbers                             I   N=           4
           8           1          17          35
Nuclear charges                            R   N=           4
  8.00000000E+00  1.00000000E+00  1.70000000E+01  3.50000000E+01
Current cartesian coordinates              R   N=          12
  2.62976696E+00  1.88115491E+00  2.99916232E-06  8.55389697E-01  1.13949440E+00
 -3.76007968E-05  4.50602897E+00 -6.91949702E-01  5.91464794E-08 -2.81417194E+00
 -1.26445393E-01  3.60057373E-07
Number of symbols in /Mol/                 I                0
Force Field                                I                0
Atom Types                                 C   N=           4
                                                
Int Atom Types                             I   N=           4
           0           0           0           0
MM charges                                 R   N=           4
  0.00000000E+00  0.00000000E+00  0.00000000E+00  0.00000000E+00
Integer atomic weights                     I   N=           4
          16           1          35          79
Real atomic weights                        R   N=           4
  1.59949146E+01  1.00782504E+00  3.49688527E+01  7.89183361E+01
Atom fragment info                         I   N=           4
           0           0           0           0
Atom residue num                           I   N=           4
           0           0           0           0
Nuclear spins                              I   N=           4
           0           1           3           3
Nuclear ZEff                               R   N=           4
 -5.60000000E+00 -1.00000000E+00 -1.42400000E+01 -2.45000000E+01
Nuclear ZNuc                               R   N=           4
  8.00000000E+00  1.00000000E+00  1.70000000E+01  3.50000000E+01
Nuclear QMom                               R   N=           4
  0.00000000E+00  0.00000000E+00 -8.16500000E+00  3.13000000E+01
Nuclear GFac                               R   N=           4
  0.00000000E+00  2.79284600E+00  8.21874000E-01  2.10639900E+00
MicOpt                                     I   N=           4
          -1          -1          -1          -1
Number of residues                         I                0
Number of secondary structures             I                0
SymInf integers                            I   N=          26
           1           1           1           1           1           0
           0           0           0           0           0           0
           0           0           0           0           0           0
           0           0           0           0           0           0
           0           0
RotTr to input orientation                 R   N=          12
  3.85650426E-01 -1.71703678E-05 -9.22644974E-01 -9.22644975E-01 -1.36629207E-05
 -3.85650425E-01 -5.98426553E-06  1.00000000E+00 -2.11112647E-05  7.21467378E-01
  6.78569741E-05  3.15180947E+00
Number of contracted shells                I               58
Number of primitive shells                 I              180
Pure/Cartesian d shells                    I                0
Pure/Cartesian f shells                    I                0
Highest angular momentum                   I                3
Largest degree of contraction              I               15
Shell types                                I   N=          58
           0           0           0           0           0           1
           1           1           1          -2          -2          -2
          -3          -3           0           0           0           0
           1           1           1          -2          -2           0
           0           0           0           0           0           1
           1           1           1           1          -2          -2
          -2          -3          -3           0           0           0
           0           0           0           0           1           1
           1           1           1           1          -2          -2
          -2          -2          -3          -3
Number of primitives per shell             I   N=          58
           7           6           1           1           1           3
           1           1           1           1           1           1
           1           1           3           1           1           1
           1           1           1           1           1          11
           9           8           1           1           1           6
           6           1           1           1           1           1
           1           1           1          15          12          10
          10           1           1           1           9           9
           8           1           1           1           7           1
           1           1           1           1
Shell to atom map                          I   N=          58
           1           1           1           1           1           1
           1           1           1           1           1           1
           1           1           2           2           2           2
           2           2           2           2           2           3
           3           3           3           3           3           3
           3           3           3           3           3           3
           3           3           3           4           4           4
           4           4           4           4           4           4
           4           4           4           4           4           4
           4           4           4           4
Primitive exponents                        R   N=         180
  1.53300000E+04  2.29900000E+03  5.22400000E+02  1.47300000E+02  4.75500000E+01
  1.67600000E+01  6.20700000E+00  5.22400000E+02  1.47300000E+02  4.75500000E+01
  1.67600000E+01  6.20700000E+00  6.88200000E-01  1.75200000E+00  2.38400000E-01
  7.37600000E-02  3.44600000E+01  7.74900000E+00  2.28000000E+00  7.15600000E-01
  2.14000000E-01  5.97400000E-02  2.31400000E+00  6.45000000E-01  2.14000000E-01
  1.42800000E+00  5.00000000E-01  3.38700000E+01  5.09500000E+00  1.15900000E+00
  3.25800000E-01  1.02700000E-01  2.52600000E-02  1.40700000E+00  3.88000000E-01
  1.02000000E-01  1.05700000E+00  2.47000000E-01  4.56100000E+05  6.83300000E+04
  1.55500000E+04  4.40500000E+03  1.43900000E+03  5.20400000E+02  2.03100000E+02
  8.39600000E+01  3.62000000E+01  1.58300000E+01  6.33400000E+00  4.40500000E+03
  1.43900000E+03  5.20400000E+02  2.03100000E+02  8.39600000E+01  3.62000000E+01
  1.58300000E+01  6.33400000E+00  2.69400000E+00  1.43900000E+03  2.03100000E+02
  8.39600000E+01  3.62000000E+01  1.58300000E+01  6.33400000E+00  2.69400000E+00
  4.31300000E-01  9.76800000E-01  1.62500000E-01  5.91000000E-02  6.63300000E+02
  1.56800000E+02  4.99800000E+01  1.84200000E+01  7.24000000E+00  2.92200000E+00
  1.56800000E+02  4.99800000E+01  1.84200000E+01  7.24000000E+00  2.92200000E+00
  3.81800000E-01  1.02200000E+00  1.30100000E-01  4.19000000E-02  1.04600000E+00
  3.44000000E-01  1.35000000E-01  7.06000000E-01  3.12000000E-01  1.06390000E+07
  1.59340000E+06  3.62610000E+05  1.02700000E+05  3.35010000E+04  1.20930000E+04
  4.71590000E+03  1.95560000E+03  8.52610000E+02  3.87670000E+02  1.82680000E+02
  8.82450000E+01  3.92630000E+01  9.40570000E+00  1.89950000E+00  3.35010000E+04
  1.20930000E+04  4.71590000E+03  1.95560000E+03  8.52610000E+02  3.87670000E+02
  1.82680000E+02  8.82450000E+01  3.92630000E+01  1.92340000E+01  9.40570000E+00
  1.89950000E+00  4.71590000E+03  8.52610000E+02  3.87670000E+02  1.82680000E+02
  8.82450000E+01  3.92630000E+01  1.92340000E+01  9.40570000E+00  4.16010000E+00
  1.89950000E+00  4.71590000E+03  8.52610000E+02  3.87670000E+02  8.82450000E+01
  3.92630000E+01  1.92340000E+01  9.40570000E+00  4.16010000E+00  1.89950000E+00
  3.01140000E-01  6.04720000E-01  1.25150000E-01  4.55930000E-02  8.67650000E+03
  2.05590000E+03  6.66230000E+02  2.53100000E+02  1.06120000E+02  4.72420000E+01
  2.18250000E+01  9.96840000E+00  1.99820000E+00  8.67650000E+03  6.66230000E+02
  2.53100000E+02  1.06120000E+02  4.72420000E+01  2.18250000E+01  9.96840000E+00
  4.51710000E+00  1.99820000E+00  6.66230000E+02  1.06120000E+02  4.72420000E+01
  2.18250000E+01  9.96840000E+00  4.51710000E+00  1.99820000E+00  2.81450000E-01
  7.09880000E-01  1.02040000E-01  3.51420000E-02  4.03830000E+02  1.21170000E+02
  4.63450000E+01  1.97210000E+01  8.86240000E+00  3.99620000E+00  1.76360000E+00
  7.06190000E-01  2.63900000E-01  1.04700000E-01  5.51500000E-01  2.58000000E-01
Contraction coefficients                   R   N=         180
  5.19808943E-04  4.02025621E-03  2.07128267E-02  8.10105536E-02  2.35962985E-01
  4.42653446E-01  3.57064423E-01 -4.42115008E-05 -1.22591041E-03 -1.05517725E-02
 -6.74452633E-02 -1.71198607E-01  1.07329856E+00  1.00000000E+00  1.00000000E+00
  1.00000000E+00  4.11634896E-02  2.57762836E-01  8.02419274E-01  1.00000000E+00
  1.00000000E+00  1.00000000E+00  1.00000000E+00  1.00000000E+00  1.00000000E+00
  1.00000000E+00  1.00000000E+00  2.54948632E-02  1.90362766E-01  8.52162022E-01
  1.00000000E+00  1.00000000E+00  1.00000000E+00  1.00000000E+00  1.00000000E+00
  1.00000000E+00  1.00000000E+00  1.00000000E+00  4.93229477E-05  3.83207967E-04
  2.00947816E-03  8.38950124E-03  2.94843950E-02  8.78759948E-02  2.11589759E-01
  3.65611554E-01  3.41246350E-01  1.02162570E-01  2.14249949E-03 -2.21747925E-06
 -1.71189708E-04 -1.27922846E-03 -9.32956265E-03 -3.98910062E-02 -1.05536085E-01
  9.36202446E-03  5.10511140E-01  5.73150737E-01  4.03949245E-06  2.12481765E-04
  8.59484452E-04  4.63248159E-03  4.47343490E-04 -7.38438245E-02 -3.62271994E-01
  1.16620337E+00  1.00000000E+00  1.00000000E+00  1.00000000E+00  2.47206402E-03
  1.97550234E-02  9.09917355E-02  2.63187834E-01  4.49078073E-01  3.60183072E-01
  3.03427809E-05 -1.22475826E-03 -6.01429772E-03 -2.76401323E-02  4.35105612E-04
  1.00307272E+00  1.00000000E+00  1.00000000E+00  1.00000000E+00  1.00000000E+00
  1.00000000E+00  1.00000000E+00  1.00000000E+00  1.00000000E+00  5.89674518E-06
  4.60752740E-05  2.42070343E-04  1.02205299E-03  3.70930499E-03  1.19720307E-02
  3.46735726E-02  8.90729487E-02  1.93334549E-01  3.20663919E-01  3.29580713E-01
  1.49250790E-01  1.55764867E-02  7.93747636E-04  2.65221775E-04 -5.68536848E-06
 -3.52666574E-05 -3.27539377E-04 -1.87629276E-03 -1.01414527E-02 -3.80702440E-02
 -9.57536910E-02 -4.73840598E-02  3.47577995E-01  5.73945554E-01  2.14222079E-01
 -1.02928963E-02  7.18105399E-06  1.20828593E-04  4.42852463E-04  3.05163083E-03
  3.69571776E-03 -4.41792565E-02 -2.33790718E-01 -4.89037435E-02  6.44374705E-01
  5.44424123E-01  2.45813907E-06  1.21542842E-05 -4.20845287E-05 -2.71411136E-04
  1.88335237E-03  1.04009470E-02  6.18574958E-03 -1.11556547E-01 -4.47970305E-01
  1.18314733E+00  1.00000000E+00  1.00000000E+00  1.00000000E+00  4.37079993E-04
  3.79355062E-03  2.05440673E-02  7.95459389E-02  2.18602295E-01  3.89303910E-01
  3.60668111E-01  1.10677963E-01 -1.34807692E-03  1.00103778E-06 -7.06114784E-05
 -1.15560817E-03 -7.09755620E-03 -2.44937124E-02 -1.01982599E-02  2.19854720E-01
  5.15741017E-01  3.67494091E-01 -2.33484889E-05 -3.27796533E-04  4.19438933E-04
 -2.20691716E-03 -6.45224464E-03 -4.68458724E-02 -4.09196666E-02  1.01815889E+00
  1.00000000E+00  1.00000000E+00  1.00000000E+00  1.51744738E-03  1.30531170E-02
  5.97884776E-02  1.75631556E-01  3.28164786E-01  3.96050780E-01  2.81996460E-01
  1.00000000E+00  1.00000000E+00  1.00000000E+00  1.00000000E+00  1.00000000E+00
Coordinates of each shell                  R   N=         174
  2.62976696E+00  1.88115491E+00  2.99916232E-06  2.62976696E+00  1.88115491E+00
  2.99916232E-06  2.62976696E+00  1.88115491E+00  2.99916232E-06  2.62976696E+00
  1.88115491E+00  2.99916232E-06  2.62976696E+00  1.88115491E+00  2.99916232E-06
  2.62976696E+00  1.88115491E+00  2.99916232E-06  2.62976696E+00  1.88115491E+00
  2.99916232E-06  2.62976696E+00  1.88115491E+00  2.99916232E-06  2.62976696E+00
  1.88115491E+00  2.99916232E-06  2.62976696E+00  1.88115491E+00  2.99916232E-06
  2.62976696E+00  1.88115491E+00  2.99916232E-06  2.62976696E+00  1.88115491E+00
  2.99916232E-06  2.62976696E+00  1.88115491E+00  2.99916232E-06  2.62976696E+00
  1.88115491E+00  2.99916232E-06  8.55389697E-01  1.13949440E+00 -3.76007968E-05
  8.55389697E-01  1.13949440E+00 -3.76007968E-05  8.55389697E-01  1.13949440E+00
 -3.76007968E-05  8.55389697E-01  1.13949440E+00 -3.76007968E-05  8.55389697E-01
  1.13949440E+00 -3.76007968E-05  8.55389697E-01  1.13949440E+00 -3.76007968E-05
  8.55389697E-01  1.13949440E+00 -3.76007968E-05  8.55389697E-01  1.13949440E+00
 -3.76007968E-05  8.55389697E-01  1.13949440E+00 -3.76007968E-05  4.50602897E+00
 -6.91949702E-01  5.91464794E-08  4.50602897E+00 -6.91949702E-01  5.91464794E-08
  4.50602897E+00 -6.91949702E-01  5.91464794E-08  4.50602897E+00 -6.91949702E-01
  5.91464794E-08  4.50602897E+00 -6.91949702E-01  5.91464794E-08  4.50602897E+00
 -6.91949702E-01  5.91464794E-08  4.50602897E+00 -6.91949702E-01  5.91464794E-08
  4.50602897E+00 -6.91949702E-01  5.91464794E-08  4.50602897E+00 -6.91949702E-01
  5.91464794E-08  4.50602897E+00 -6.91949702E-01  5.91464794E-08  4.50602897E+00
 -6.91949702E-01  5.91464794E-08  4.50602897E+00 -6.91949702E-01  5.91464794E-08
  4.50602897E+00 -6.91949702E-01  5.91464794E-08  4.50602897E+00 -6.91949702E-01
  5.91464794E-08  4.50602897E+00 -6.91949702E-01  5.91464794E-08  4.50602897E+00
 -6.91949702E-01  5.91464794E-08 -2.81417194E+00 -1.26445393E-01  3.60057373E-07
 -2.81417194E+00 -1.26445393E-01  3.60057373E-07 -2.81417194E+00 -1.26445393E-01
  3.60057373E-07 -2.81417194E+00 -1.26445393E-01  3.60057373E-07 -2.81417194E+00
 -1.26445393E-01  3.60057373E-07 -2.81417194E+00 -1.26445393E-01  3.60057373E-07
 -2.81417194E+00 -1.26445393E-01  3.60057373E-07 -2.81417194E+00 -1.26445393E-01
  3.60057373E-07 -2.81417194E+00 -1.26445393E-01  3.60057373E-07 -2.81417194E+00
 -1.26445393E-01  3.60057373E-07 -2.81417194E+00 -1.26445393E-01  3.60057373E-07
 -2.81417194E+00 -1.26445393E-01  3.60057373E-07 -2.81417194E+00 -1.26445393E-01
  3.60057373E-07 -2.81417194E+00 -1.26445393E-01  3.60057373E-07 -2.81417194E+00
 -1.26445393E-01  3.60057373E-07 -2.81417194E+00 -1.26445393E-01  3.60057373E-07
 -2.81417194E+00 -1.26445393E-01  3.60057373E-07 -2.81417194E+00 -1.26445393E-01
  3.60057373E-07 -2.81417194E+00 -1.26445393E-01  3.60057373E-07
Num ILSW                                   I              100
ILSW                                       I   N=         100
           0           0           0           1           2           0
           0           0           0           0           0          -1
           5           0           0           0           2           0
           0           0           1           0           1           0
           1           0           0           0           0           0
           0           0      100000           0          -1           0
           0           0           0           0           0           0
           0           0           0           1           1           0
           0 -2000000000           1           0           0           0
           0           0           4          52           0           0
           0           0           0           0           0           0
           0           0           0           0           4           1
           0           0           0           0           0           0
           0           0           0           0           0           0
           0           0           0           0           0           0
           0           0           0           0           0           0
           0           0           0           0
Num RLSW                                   I               52
RLSW                                       R   N=          52
  1.00000000E+00  1.00000000E+00  1.00000000E+00  1.00000000E+00  1.00000000E+00
  0.00000000E+00  0.00000000E+00  1.00000000E+00  0.00000000E+00  0.00000000E+00
  0.00000000E+00  0.00000000E+00  1.00000000E+00  0.00000000E+00  0.00000000E+00
  0.00000000E+00  0.00000000E+00  1.00000000E+00  0.00000000E+00  0.00000000E+00
  0.00000000E+00  0.00000000E+00  1.00000000E+00  0.00000000E+00  0.00000000E+00
  0.00000000E+00  0.00000000E+00  1.00000000E+00  0.00000000E+00  0.00000000E+00
  0.00000000E+00  0.00000000E+00  1.00000000E+00  0.00000000E+00  0.00000000E+00
  0.00000000E+00  0.00000000E+00  0.00000000E+00  1.00000000E+00  1.00000000E+00
  0.00000000E+00  1.00000000E+00  0.00000000E+00  0.00000000E+00  0.00000000E+00
  0.00000000E+00  0.00000000E+00  0.00000000E+00  0.00000000E+00  0.00000000E+00
  0.00000000E+00  0.00000000E+00
MxBond                                     I                2
NBond                                      I   N=           4
           2           1           1           0
IBond                                      I   N=           8
           2           3           1           0           1           0
           0           0
RBond                                      R   N=           8
  1.00000000E+00  1.00000000E+00  1.00000000E+00  0.00000000E+00  1.00000000E+00
  0.00000000E+00  0.00000000E+00  0.00000000E+00
Virial Ratio                               R      2.000047704344016E+00
SCF Energy                                 R     -3.107478529798238E+03
MP2 Energy                                 R     -3.108182834305229E+03
Total Energy                               R     -3.108182834305229E+03
Post-SCF wavefunction norm                 R      1.563536280664176E+00
RMS Force                                  R      3.620842796089159E-06
RMS Density                                R      9.775157237544410E-10
NImag                                      I                0
Job Status                                 I                1
Nuclear derivative order                   I                3
External E-field                           R   N=          35
  0.00000000E+00  0.00000000E+00  0.00000000E+00  0.00000000E+00  0.00000000E+00
  0.00000000E+00  0.00000000E+00  0.00000000E+00  0.00000000E+00  0.00000000E+00
  0.00000000E+00  0.00000000E+00  0.00000000E+00  0.00000000E+00  0.00000000E+00
  0.00000000E+00  0.00000000E+00  0.00000000E+00  0.00000000E+00  0.00000000E+00
  0.00000000E+00  0.00000000E+00  0.00000000E+00  0.00000000E+00  0.00000000E+00
  0.00000000E+00  0.00000000E+00  0.00000000E+00  0.00000000E+00  0.00000000E+00
  0.00000000E+00  0.00000000E+00  0.00000000E+00  0.00000000E+00  0.00000000E+00
IOpCl                                      I                0
IROHF                                      I                0
Alpha Orbital Energies                     R   N=         178
 -4.89755886E+02 -1.04732344E+02 -6.48962593E+01 -5.82507612E+01 -5.82507169E+01
 -5.82507147E+01 -2.04619561E+01 -1.04518454E+01 -9.56880720E+00 -7.91901196E+00
 -7.91638143E+00 -7.91628050E+00 -7.17662063E+00 -7.17605958E+00 -7.17605285E+00
 -2.91832057E+00 -2.91804969E+00 -2.91804105E+00 -2.91743423E+00 -2.91743332E+00
 -1.23025116E+00 -8.97132034E-01 -7.31508773E-01 -5.41075120E-01 -4.42893918E-01
 -4.34512754E-01 -3.09409091E-01 -2.81820533E-01 -1.86122774E-01 -1.76313140E-01
 -1.76290784E-01  1.55723232E-01  1.81005523E-01  2.16218852E-01  2.27050189E-01
  2.40840344E-01  2.45009002E-01  2.49900313E-01  2.86404271E-01  3.04430164E-01
  3.18552031E-01  3.21264681E-01  3.25180664E-01  3.59017976E-01  4.35744665E-01
  4.36152542E-01  4.70265739E-01  4.80457061E-01  4.85895831E-01  5.03127402E-01
  5.39831722E-01  5.41741694E-01  5.69415963E-01  5.93166837E-01  5.98851351E-01
  6.04544366E-01  6.09637440E-01  6.56718204E-01  6.97670386E-01  7.41628332E-01
  7.46313131E-01  7.54322999E-01  7.77828029E-01  7.86493499E-01  8.46752233E-01
  8.89189990E-01  8.96860475E-01  9.15298467E-01  9.44194699E-01  9.97432372E-01
  9.99431065E-01  1.00411739E+00  1.01110790E+00  1.02211911E+00  1.03735942E+00
  1.06580221E+00  1.07897164E+00  1.09071947E+00  1.09739826E+00  1.11091225E+00
  1.13202549E+00  1.15386323E+00  1.17694971E+00  1.18231647E+00  1.20613296E+00
  1.22268209E+00  1.24334145E+00  1.28240949E+00  1.28988515E+00  1.32543217E+00
  1.33011347E+00  1.37387810E+00  1.38928343E+00  1.47592419E+00  1.50603428E+00
  1.51466314E+00  1.56984812E+00  1.59390276E+00  1.63130623E+00  1.66841480E+00
  1.70128941E+00  1.70975662E+00  1.78094262E+00  1.78774485E+00  1.80173255E+00
  1.90022906E+00  1.97562090E+00  2.14876866E+00  2.37712282E+00  2.40952102E+00
  2.41714294E+00  2.42154986E+00  2.46277075E+00  2.50243719E+00  2.50724077E+00
  2.52826866E+00  2.53533993E+00  2.54931519E+00  2.55174883E+00  2.55455451E+00
  2.56019215E+00  2.58259884E+00  2.60591284E+00  2.62784495E+00  2.64712961E+00
  2.66041979E+00  2.67587913E+00  2.68377651E+00  2.69139948E+00  2.72059238E+00
  2.72756609E+00  2.73938222E+00  2.75627122E+00  2.78458919E+00  2.80815699E+00
  2.81623538E+00  2.88512658E+00  3.02823971E+00  3.07007437E+00  3.09510495E+00
  3.16468452E+00  3.19868350E+00  3.21537135E+00  3.25248504E+00  3.29389189E+00
  3.31277735E+00  3.33384952E+00  3.53408465E+00  3.54707551E+00  3.57186139E+00
  3.94154434E+00  4.19330938E+00  4.31453559E+00  4.45060653E+00  4.54741263E+00
  4.59257261E+00  4.78368523E+00  4.98867786E+00  5.03293203E+00  5.27367898E+00
  5.34983342E+00  5.39761690E+00  5.67540086E+00  6.42380610E+00  6.60209685E+00
  6.85054248E+00  6.90255083E+00  6.91533274E+00  6.99524930E+00  7.28812487E+00
  7.34544278E+00  7.34600502E+00  7.45309716E+00  7.55426145E+00  7.74754681E+00
  7.81962244E+00  8.36333039E+00  1.47537555E+01
Alpha MO coefficients                      R   N=       31684
  1.46639864E-07  7.79731853E-07 -3.60786622E-08  2.43372050E-06  8.89996880E-06
  2.75773251E-08  2.05667824E-08  1.02908456E-12 -2.71618314E-07 -1.61994061E-07
 -9.19609914E-12  3.25570752E-06  1.88347764E-06 -1.43232624E-10 -1.10963689E-06
 -6.18899613E-07 -1.12051019E-10 -3.38737484E-08 -1.42210216E-12 -1.74002473E-12
  3.32077144E-08  2.65192451E-08  1.21491562E-07  1.93826707E-11  1.23607046E-11
 -1.21536986E-07 -7.08267258E-08  1.35378919E-06  5.28980481E-13 -1.36961819E-11
 -1.37793901E-06 -1.37590117E-06  7.41430742E-12  5.12933547E-08  2.76996484E-08
 -4.54928932E-12 -4.59018586E-12 -1.51477911E-08 -4.06737410E-08 -7.70505535E-12
 -2.12147950E-07 -1.22809391E-07  1.50073842E-12  5.90835870E-13  1.13899996E-07
  2.07922869E-07  1.80689574E-07  4.89589065E-06 -2.15238676E-06 -3.89354202E-07
 -9.07710967E-08 -1.20623705E-08 -7.54727293E-12  5.85854090E-07  1.63686244E-07
  1.08041599E-10 -1.31962227E-05 -4.75185681E-06  8.65814132E-11  2.33224388E-08
  1.59694948E-11  7.18121530E-12 -5.44370745E-08 -4.59590170E-08  1.27708884E-06
  2.98343277E-11  1.03920145E-11 -1.72310361E-06 -1.50568107E-06 -5.14653082E-09
 -7.01417394E-08 -2.01150259E-07 -1.91648323E-08  1.25657034E-06 -2.22041184E-07
 -1.75473239E-08 -3.92735841E-10  3.53842542E-13 -2.79940082E-07  8.86345335E-09
  3.24485521E-12  7.36000444E-08 -1.01189334E-08 -1.28684525E-12 -4.83238003E-07
  6.70453833E-07 -3.22579760E-11  1.77535510E-07 -1.08599425E-07  1.77901091E-11
 -1.34898372E-08  1.07382277E-12  2.93056474E-13  7.66581738E-09  1.72033096E-09
 -5.79852163E-08 -1.70998968E-12 -1.53817350E-12  4.03769722E-08 -1.11747132E-07
 -7.57812621E-08  1.87204443E-11 -6.48544149E-12 -1.49112809E-07 -2.74295448E-07
  3.68810518E-12  4.33635452E-08  1.53293810E-08 -1.36383271E-13 -3.59118250E-12
  1.45964836E-10 -6.97302257E-10 -6.56269915E-12 -7.76137980E-08 -9.70455221E-08
  2.85095743E-13  8.82885512E-12  6.76345543E-08  6.38210792E-08  1.00053504E+00
 -1.74580395E-03 -3.65672115E-04  2.77917826E-05 -3.90525455E-05 -1.90317689E-05
 -1.63158318E-06  5.90352154E-07  2.19046345E-07 -2.27240850E-11  1.72183161E-09
 -5.31899609E-09  4.18634751E-12  2.18534734E-06  7.46954904E-07 -3.48057954E-11
 -4.64139691E-07 -1.56507365E-07  7.02226713E-12 -7.83329815E-06 -2.69420380E-06
  1.01436450E-10 -3.21649954E-07 -1.39632620E-07  4.91262235E-12 -1.34260389E-08
 -2.60387383E-12 -8.74005906E-13  2.01961445E-08  1.63679151E-08 -3.17590143E-09
  5.02951437E-12  1.65722971E-12 -3.49803781E-09 -1.04845562E-08 -3.46271997E-07
 -2.53159826E-11 -8.47512491E-12  4.98750256E-07  3.97779059E-07  1.36185331E-06
  6.65745132E-11  2.33662401E-11 -1.87648302E-06 -1.50207640E-06  8.59772248E-12
 -1.70730276E-07 -6.19855285E-08 -8.26278122E-12 -6.47232411E-12  1.31122530E-07
  2.03663482E-07 -7.42413821E-12  1.22942777E-07  5.10419715E-08  6.44303294E-12
  5.62709604E-12 -8.49887867E-08 -1.58728713E-07  4.95774362E-06  2.78262564E-05
  2.42702675E-06 -1.55024600E-04 -1.08434542E-04  6.36071973E-07 -2.91497040E-06
 -4.94262341E-11  1.44063293E-06  9.92076242E-06  2.45437986E-10 -1.04588380E-04
  1.22583049E-04  8.97534201E-11 -2.45038070E-05  3.14459193E-05 -1.06090725E-10
 -2.21966402E-06  1.13864768E-11  1.41567452E-11 -1.14838663E-06 -3.23544185E-06
  1.46054323E-05 -5.82987674E-11 -9.69421951E-11  7.54880494E-06  2.13114664E-05
  2.44676769E-05  4.35721424E-10 -1.28926085E-10  3.41446888E-05  5.05607689E-05
  1.39953060E-11  2.38648642E-07  1.91866038E-07  4.05865187E-11  3.32342857E-12
  1.59506308E-06  1.20692057E-06 -5.35326950E-11  7.63460475E-06 -1.12398030E-05
 -1.91256695E-10 -4.32514619E-11  9.80829299E-06  1.04384102E-06 -1.72347236E-06
 -1.87498430E-05  6.21616243E-05 -8.04729963E-06 -1.82690084E-06  2.06532535E-06
 -8.75727191E-12  1.70336538E-05 -1.02317789E-05  1.20265592E-10  1.13504721E-05
 -2.47098177E-05  2.50514557E-10 -5.57002281E-07  2.71595030E-12  4.68281321E-12
  3.20049689E-07 -1.10682624E-06 -1.56965187E-05  3.86551106E-10  8.99419975E-12
  1.01143484E-05  6.51873519E-06  9.99534852E-01  1.95424832E-03  1.85132146E-04
 -4.18144557E-04  6.99336902E-05  7.57423996E-05 -4.54010186E-05  6.21156543E-05
 -1.73772454E-11 -8.66617460E-05  1.08834279E-04 -3.84854854E-11  4.46211224E-05
 -5.86280530E-05  2.06940559E-11 -2.30652014E-05  5.11933438E-05  3.25485200E-10
 -6.52664749E-06  9.83996293E-06  8.95139004E-11 -3.61699468E-06 -8.47782583E-13
  1.74978918E-12 -1.16080678E-06 -5.78510078E-06 -2.85289403E-05 -4.52240455E-12
  4.77909960E-11 -1.33307267E-05 -4.77781782E-05 -4.66179853E-07 -2.63902435E-10
  2.06349006E-11 -8.48130402E-06 -6.52376619E-06  2.44444888E-11  4.32205007E-06
 -4.92278795E-06 -5.89799554E-11  7.85170135E-12  5.30237758E-06  2.76067467E-06
 -8.52058801E-11  5.68302590E-07 -2.87482292E-06  1.21966482E-10 -5.36576159E-11
  8.75313485E-06  1.31770646E-06  5.99716672E-08  3.19521072E-07  1.83119479E-06
  4.41362984E-06  8.40479949E-07 -2.31631158E-05 -4.64208288E-06  8.18007723E-08
  8.26302413E-09 -2.86499147E-12 -9.23790280E-07 -2.93453285E-07  2.91817702E-11
 -6.77372054E-06 -3.01032098E-06  1.98902348E-10  2.15622818E-06  5.01527982E-07
 -7.35449914E-11 -1.75613654E-05  1.66582507E-06  1.98164777E-10 -1.51651803E-06
 -1.24365214E-06 -4.44276212E-11  6.21590133E-08  5.68083474E-12  1.94478739E-12
 -1.17144594E-07  9.24135610E-08 -4.83118055E-07 -4.72283977E-11 -1.74754945E-11
  8.85309701E-07 -5.56315980E-07  3.27516537E-06  2.65995977E-10  1.11501730E-10
 -4.92583460E-06 -9.75007881E-07  3.21414311E-06  9.47808534E-11 -9.44583781E-11
 -6.33930297E-06  6.92152221E-07  5.97869327E-12 -3.02544994E-07  1.48993928E-07
 -2.37054264E-11  5.78313695E-11  7.26878417E-07 -5.62905769E-07 -1.10667172E-10
  2.33255310E-06 -7.56715530E-08  1.44760008E-10 -3.98950155E-11 -3.28378474E-06
  7.94527292E-07  5.54825138E-07  3.56845752E-06  1.17919635E-08  1.18997252E-05
  4.45506623E-05 -4.82639119E-08 -2.04950710E-08 -5.29897024E-13 -1.32594652E-06
 -7.54528489E-07 -2.55686680E-11  1.74218718E-05  7.62210324E-06 -6.22221588E-10
 -5.81757458E-06 -4.33814366E-06 -5.15115030E-10 -1.50753343E-07 -8.24780354E-12
 -8.99157947E-12  1.65234019E-07  1.29765610E-07  7.22898724E-07  7.24719782E-11
  5.20687386E-11 -8.64022081E-07 -5.63514005E-07  6.44884243E-06 -1.17525664E-11
 -6.88007059E-11 -7.33413109E-06 -6.82145830E-06  2.53557895E-11  1.93706544E-07
  9.57631012E-08 -1.36472569E-11 -1.24067472E-11 -6.98576033E-08 -1.09888590E-07
 -3.32726539E-11 -1.16498587E-06 -5.58551108E-07  6.13166724E-12 -1.80664234E-12
  6.57144122E-07  1.08897185E-06  5.35478394E-07  2.56722628E-05 -9.22127687E-06
  1.44720162E-06  6.55482666E-08  9.47837557E-08 -2.97484971E-11  2.40805867E-06
  1.13693199E-06  5.39102990E-10 -6.30652158E-05 -2.21097391E-05  3.94556680E-10
 -1.20677672E-07  7.53059614E-11  3.40890233E-11  4.29683973E-08  4.27222178E-08
  6.05037927E-06  7.62915211E-11  3.70453012E-11 -8.39403847E-06 -6.87036442E-06
 -1.81314923E-08 -2.63610987E-07 -7.39904628E-07 -8.18368149E-08  4.41036571E-06
 -3.14095614E-06 -8.84606344E-08 -4.49407189E-09  1.96713189E-12 -1.28217094E-06
 -3.70261465E-07  1.85409734E-11  3.64156804E-07  3.63352596E-08 -7.44999121E-12