 Entering Gaussian System, Link 0=g16
 Input=brhocl_5_sp.gjf
 Output=brhocl_5_sp.log
 Initial command:
 /sw/contrib/gaussian/g16/B01/g16/l1.exe "/scr/Gau-22783.inp" -scrdir="/scr/"
 Entering Link 1 = /sw/contrib/gaussian/g16/B01/g16/l1.exe PID=     22784.
  
 Copyright (c) 1988-2017, Gaussian, Inc.  All Rights Reserved.
  
 This is part of the Gaussian(R) 16 program.  It is based on
 the Gaussian(R) 09 system (copyright 2009, Gaussian, Inc.),
 the Gaussian(R) 03 system (copyright 2003, Gaussian, Inc.),
 the Gaussian(R) 98 system (copyright 1998, Gaussian, Inc.),
 the Gaussian(R) 94 system (copyright 1995, Gaussian, Inc.),
 the Gaussian 92(TM) system (copyright 1992, Gaussian, Inc.),
 the Gaussian 90(TM) system (copyright 1990, Gaussian, Inc.),
 the Gaussian 88(TM) system (copyright 1988, Gaussian, Inc.),
 the Gaussian 86(TM) system (copyright 1986, Carnegie Mellon
 University), and the Gaussian 82(TM) system (copyright 1983,
 Carnegie Mellon University). Gaussian is a federally registered
 trademark of Gaussian, Inc.
  
 This software contains proprietary and confidential information,
 including trade secrets, belonging to Gaussian, Inc.
  
 This software is provided under written license and may be
 used, copied, transmitted, or stored only in accord with that
 written license.
  
 The following legend is applicable only to US Government
 contracts under FAR:
  
                    RESTRICTED RIGHTS LEGEND
  
 Use, reproduction and disclosure by the US Government is
 subject to restrictions as set forth in subparagraphs (a)
 and (c) of the Commercial Computer Software - Restricted
 Rights clause in FAR 52.227-19.
  
 Gaussian, Inc.
 340 Quinnipiac St., Bldg. 40, Wallingford CT 06492
  
  
 ---------------------------------------------------------------
 Warning -- This program may not be used in any manner that
 competes with the business of Gaussian, Inc. or will provide
 assistance to any competitor of Gaussian, Inc.  The licensee
 of this program is prohibited from giving any competitor of
 Gaussian, Inc. access to this program.  By using this program,
 the user acknowledges that Gaussian, Inc. is engaged in the
 business of creating and licensing software in the field of
 computational chemistry and represents and warrants to the
 licensee that it is not a competitor of Gaussian, Inc. and that
 it will not use this program in any manner prohibited above.
 ---------------------------------------------------------------
  

 Cite this work as:
 Gaussian 16, Revision B.01,
 M. J. Frisch, G. W. Trucks, H. B. Schlegel, G. E. Scuseria, 
 M. A. Robb, J. R. Cheeseman, G. Scalmani, V. Barone, 
 G. A. Petersson, H. Nakatsuji, X. Li, M. Caricato, A. V. Marenich, 
 J. Bloino, B. G. Janesko, R. Gomperts, B. Mennucci, H. P. Hratchian, 
 J. V. Ortiz, A. F. Izmaylov, J. L. Sonnenberg, D. Williams-Young, 
 F. Ding, F. Lipparini, F. Egidi, J. Goings, B. Peng, A. Petrone, 
 T. Henderson, D. Ranasinghe, V. G. Zakrzewski, J. Gao, N. Rega, 
 G. Zheng, W. Liang, M. Hada, M. Ehara, K. Toyota, R. Fukuda, 
 J. Hasegawa, M. Ishida, T. Nakajima, Y. Honda, O. Kitao, H. Nakai, 
 T. Vreven, K. Throssell, J. A. Montgomery, Jr., J. E. Peralta, 
 F. Ogliaro, M. J. Bearpark, J. J. Heyd, E. N. Brothers, K. N. Kudin, 
 V. N. Staroverov, T. A. Keith, R. Kobayashi, J. Normand, 
 K. Raghavachari, A. P. Rendell, J. C. Burant, S. S. Iyengar, 
 J. Tomasi, M. Cossi, J. M. Millam, M. Klene, C. Adamo, R. Cammi, 
 J. W. Ochterski, R. L. Martin, K. Morokuma, O. Farkas, 
 J. B. Foresman, and D. J. Fox, Gaussian, Inc., Wallingford CT, 2016.
 
 ******************************************
 Gaussian 16:  ES64L-G16RevB.01 20-Dec-2017
                23-Sep-2021 
 ******************************************
 %nproc=28
 Will use up to   28 processors via shared memory.
 %mem=120GB
 %chk=/gscratch/ilahie/mccoygrp/coire_hocl/brhocl/brhocl_5_sp.chk
 ----------------------------------------------------
 #p pop=NBO SP NoSymm mp2/aug-cc-pvtz density=current
 ----------------------------------------------------
 1/30=1,38=1,172=1/1;
 2/12=2,15=1,17=6,18=5,40=1/2;
 3/5=16,6=1,7=10,11=9,25=1,30=1,71=1/1,2,3;
 4//1;
 5/5=2,38=5/2;
 8/6=4,10=1/1;
 9/15=1,16=-3/6;
 10/5=1,13=10,31=1/2;
 6/7=2,8=2,9=2,10=2,22=-1,40=1/1,7;
 99/5=1,9=1/99;
 Leave Link    1 at Thu Sep 23 16:32:39 2021, MaxMem= 16106127360 cpu:               2.9 elap:               0.1
 (Enter /sw/contrib/gaussian/g16/B01/g16/l101.exe)
 -----
 title
 -----
 Symbolic Z-matrix:
 Charge = -1 Multiplicity = 1
 O                     0.        0.        0. 
 Br                    3.07382   0.        0. 
 Cl                   -0.39092   1.63833   0. 
 H                     1.01328   0.        0.08865 
 
 ITRead=  0  0  0  0
 MicOpt= -1 -1 -1 -1
 NAtoms=      4 NQM=        4 NQMF=       0 NMMI=      0 NMMIF=      0
                NMic=       0 NMicF=      0.
                    Isotopes and Nuclear Properties:
 (Nuclear quadrupole moments (NQMom) in fm**2, nuclear magnetic moments (NMagM)
  in nuclear magnetons)

  Atom         1           2           3           4
 IAtWgt=          16          79          35           1
 AtmWgt=  15.9949146  78.9183361  34.9688527   1.0078250
 NucSpn=           0           3           3           1
 AtZEff=  -0.0000000  -0.0000000  -0.0000000  -0.0000000
 NQMom=    0.0000000  31.3000000  -8.1650000   0.0000000
 NMagM=    0.0000000   2.1063990   0.8218740   2.7928460
 AtZNuc=   8.0000000  35.0000000  17.0000000   1.0000000
 Leave Link  101 at Thu Sep 23 16:32:39 2021, MaxMem= 16106127360 cpu:               2.8 elap:               0.1
 (Enter /sw/contrib/gaussian/g16/B01/g16/l202.exe)
                          Input orientation:                          
 ---------------------------------------------------------------------
 Center     Atomic      Atomic             Coordinates (Angstroms)
 Number     Number       Type             X           Y           Z
 ---------------------------------------------------------------------
      1          8           0        0.000000    0.000000    0.000000
      2         35           0        3.073817    0.000000    0.000000
      3         17           0       -0.390921    1.638333    0.000000
      4          1           0        1.013279    0.000000    0.088650
 ---------------------------------------------------------------------
                    Distance matrix (angstroms):
                    1          2          3          4
     1  O    0.000000
     2  Br   3.073817   0.000000
     3  Cl   1.684326   3.832564   0.000000
     4  H    1.017150   2.062444   2.159576   0.000000
 Symmetry turned off by external request.
 Stoichiometry    BrClHO(1-)
 Framework group  C1[X(BrClHO)]
 Deg. of freedom     6
 Full point group                 C1      NOp   1
 Rotational constants (GHZ):          22.6354272           1.2807889           1.2122433
 Leave Link  202 at Thu Sep 23 16:32:39 2021, MaxMem= 16106127360 cpu:               0.2 elap:               0.0
 (Enter /sw/contrib/gaussian/g16/B01/g16/l301.exe)
 Standard basis: Aug-CC-pVTZ (5D, 7F)
 Ernie: Thresh=  0.10000D-02 Tol=  0.10000D-05 Strict=F.
 Ernie:  48 primitive shells out of 228 were deleted.
   178 basis functions,   430 primitive gaussians,   208 cartesian basis functions
    31 alpha electrons       31 beta electrons
       nuclear repulsion energy       190.3938185126 Hartrees.
 IExCor=    0 DFT=F Ex=HF Corr=None ExCW=0 ScaHFX=  1.000000
 ScaDFX=  1.000000  1.000000  1.000000  1.000000 ScalE2=  1.000000  1.000000
 IRadAn=      5 IRanWt=     -1 IRanGd=            0 ICorTp=0 IEmpDi=  4
 NAtoms=    4 NActive=    4 NUniq=    4 SFac= 1.00D+00 NAtFMM=   60 NAOKFM=F Big=F
 Integral buffers will be    131072 words long.
 Raffenetti 1 integral format.
 Two-electron integral symmetry is turned off.
 Leave Link  301 at Thu Sep 23 16:32:39 2021, MaxMem= 16106127360 cpu:               2.7 elap:               0.1
 (Enter /sw/contrib/gaussian/g16/B01/g16/l302.exe)
 NPDir=0 NMtPBC=     1 NCelOv=     1 NCel=       1 NClECP=     1 NCelD=      1
         NCelK=      1 NCelE2=     1 NClLst=     1 CellRange=     0.0.
 One-electron integrals computed using PRISM.
 NBasis=   178 RedAO= T EigKep=  2.41D-04  NBF=   178
 NBsUse=   178 1.00D-06 EigRej= -1.00D+00 NBFU=   178
 Leave Link  302 at Thu Sep 23 16:32:39 2021, MaxMem= 16106127360 cpu:               5.1 elap:               0.2
 (Enter /sw/contrib/gaussian/g16/B01/g16/l303.exe)
 DipDrv:  MaxL=1.
 Leave Link  303 at Thu Sep 23 16:32:39 2021, MaxMem= 16106127360 cpu:               0.8 elap:               0.1
 (Enter /sw/contrib/gaussian/g16/B01/g16/l401.exe)
 ExpMin= 2.53D-02 ExpMax= 1.06D+07 ExpMxC= 1.21D+04 IAcc=3 IRadAn=         5 AccDes= 0.00D+00
 Harris functional with IExCor=  205 and IRadAn=       5 diagonalized for initial guess.
 HarFok:  IExCor=  205 AccDes= 0.00D+00 IRadAn=         5 IDoV= 1 UseB2=F ITyADJ=14
 ICtDFT=  3500011 ScaDFX=  1.000000  1.000000  1.000000  1.000000
 FoFCou: FMM=F IPFlag=           0 FMFlag=      100000 FMFlg1=           0
         NFxFlg=           0 DoJE=T BraDBF=F KetDBF=T FulRan=T
         wScrn=  0.000000 ICntrl=       500 IOpCl=  0 I1Cent=   200000004 NGrid=           0
         NMat0=    1 NMatS0=      1 NMatT0=    0 NMatD0=    1 NMtDS0=    0 NMtDT0=    0
 Symmetry not used in FoFCou.
 Harris En= -3106.38946375338    
 JPrj=0 DoOrth=F DoCkMO=F.
 Leave Link  401 at Thu Sep 23 16:32:40 2021, MaxMem= 16106127360 cpu:               7.9 elap:               0.3
 (Enter /sw/contrib/gaussian/g16/B01/g16/l502.exe)
 Keep R1 ints in memory in canonical form, NReq=149454866.
 FoFCou: FMM=F IPFlag=           0 FMFlag=           0 FMFlg1=           0
         NFxFlg=           0 DoJE=F BraDBF=F KetDBF=F FulRan=T
         wScrn=  0.000000 ICntrl=       600 IOpCl=  0 I1Cent=           0 NGrid=           0
         NMat0=    1 NMatS0=  15931 NMatT0=    0 NMatD0=    1 NMtDS0=    0 NMtDT0=    0
 Symmetry not used in FoFCou.
 Two-electron integral symmetry not used.
 Closed shell SCF:
 Using DIIS extrapolation, IDIIS=  1040.
 NGot= 16106127360 LenX= 15979127348 LenY= 15979083643
 Requested convergence on RMS density matrix=1.00D-08 within 128 cycles.
 Requested convergence on MAX density matrix=1.00D-06.
 Requested convergence on             energy=1.00D-06.
 No special actions if energy rises.

 Cycle   1  Pass 1  IDiag  1:
 E= -3107.31675047331    
 DIIS: error= 6.26D-02 at cycle   1 NSaved=   1.
 NSaved= 1 IEnMin= 1 EnMin= -3107.31675047331     IErMin= 1 ErrMin= 6.26D-02
 ErrMax= 6.26D-02  0.00D+00 EMaxC= 1.00D-01 BMatC= 6.36D-01 BMatP= 6.36D-01
 IDIUse=3 WtCom= 3.74D-01 WtEn= 6.26D-01
 Coeff-Com:  0.100D+01
 Coeff-En:   0.100D+01
 Coeff:      0.100D+01
 Gap=     0.557 Goal=   None    Shift=    0.000
 GapD=    0.557 DampG=2.000 DampE=0.500 DampFc=1.0000 IDamp=-1.
 RMSDP=3.05D-03 MaxDP=1.00D-01              OVMax= 1.16D-01

 Cycle   2  Pass 1  IDiag  1:
 E= -3107.45106339274     Delta-E=       -0.134312919435 Rises=F Damp=F
 DIIS: error= 1.64D-02 at cycle   2 NSaved=   2.
 NSaved= 2 IEnMin= 2 EnMin= -3107.45106339274     IErMin= 2 ErrMin= 1.64D-02
 ErrMax= 1.64D-02  0.00D+00 EMaxC= 1.00D-01 BMatC= 4.19D-02 BMatP= 6.36D-01
 IDIUse=3 WtCom= 8.36D-01 WtEn= 1.64D-01
 Coeff-Com:  0.132D+00 0.868D+00
 Coeff-En:   0.000D+00 0.100D+01
 Coeff:      0.111D+00 0.889D+00
 Gap=     0.334 Goal=   None    Shift=    0.000
 RMSDP=1.12D-03 MaxDP=3.78D-02 DE=-1.34D-01 OVMax= 7.17D-02

 Cycle   3  Pass 1  IDiag  1:
 E= -3107.46873597463     Delta-E=       -0.017672581884 Rises=F Damp=F
 DIIS: error= 8.43D-03 at cycle   3 NSaved=   3.
 NSaved= 3 IEnMin= 3 EnMin= -3107.46873597463     IErMin= 3 ErrMin= 8.43D-03
 ErrMax= 8.43D-03  0.00D+00 EMaxC= 1.00D-01 BMatC= 1.35D-02 BMatP= 4.19D-02
 IDIUse=3 WtCom= 9.16D-01 WtEn= 8.43D-02
 Coeff-Com:  0.689D-02 0.360D+00 0.634D+00
 Coeff-En:   0.000D+00 0.181D+00 0.819D+00
 Coeff:      0.631D-02 0.344D+00 0.649D+00
 Gap=     0.333 Goal=   None    Shift=    0.000
 RMSDP=3.44D-04 MaxDP=1.33D-02 DE=-1.77D-02 OVMax= 3.50D-02

 Cycle   4  Pass 1  IDiag  1:
 E= -3107.47797383866     Delta-E=       -0.009237864038 Rises=F Damp=F
 DIIS: error= 1.33D-03 at cycle   4 NSaved=   4.
 NSaved= 4 IEnMin= 4 EnMin= -3107.47797383866     IErMin= 4 ErrMin= 1.33D-03
 ErrMax= 1.33D-03  0.00D+00 EMaxC= 1.00D-01 BMatC= 1.68D-04 BMatP= 1.35D-02
 IDIUse=3 WtCom= 9.87D-01 WtEn= 1.33D-02
 Coeff-Com: -0.512D-02-0.283D-01 0.484D-01 0.985D+00
 Coeff-En:   0.000D+00 0.000D+00 0.000D+00 0.100D+01
 Coeff:     -0.505D-02-0.279D-01 0.477D-01 0.985D+00
 Gap=     0.332 Goal=   None    Shift=    0.000
 RMSDP=6.02D-05 MaxDP=1.37D-03 DE=-9.24D-03 OVMax= 3.52D-03

 Cycle   5  Pass 1  IDiag  1:
 E= -3107.47816841666     Delta-E=       -0.000194577997 Rises=F Damp=F
 DIIS: error= 2.10D-04 at cycle   5 NSaved=   5.
 NSaved= 5 IEnMin= 5 EnMin= -3107.47816841666     IErMin= 5 ErrMin= 2.10D-04
 ErrMax= 2.10D-04  0.00D+00 EMaxC= 1.00D-01 BMatC= 1.19D-05 BMatP= 1.68D-04
 IDIUse=3 WtCom= 9.98D-01 WtEn= 2.10D-03
 Coeff-Com:  0.808D-03-0.174D-01-0.394D-01-0.169D+00 0.123D+01
 Coeff-En:   0.000D+00 0.000D+00 0.000D+00 0.000D+00 0.100D+01
 Coeff:      0.806D-03-0.174D-01-0.393D-01-0.169D+00 0.123D+01
 Gap=     0.332 Goal=   None    Shift=    0.000
 RMSDP=3.03D-05 MaxDP=1.04D-03 DE=-1.95D-04 OVMax= 2.86D-03

 Cycle   6  Pass 1  IDiag  1:
 E= -3107.47820166285     Delta-E=       -0.000033246189 Rises=F Damp=F
 DIIS: error= 1.18D-04 at cycle   6 NSaved=   6.
 NSaved= 6 IEnMin= 6 EnMin= -3107.47820166285     IErMin= 6 ErrMin= 1.18D-04
 ErrMax= 1.18D-04  0.00D+00 EMaxC= 1.00D-01 BMatC= 1.68D-06 BMatP= 1.19D-05
 IDIUse=3 WtCom= 9.99D-01 WtEn= 1.18D-03
 Coeff-Com:  0.469D-03 0.407D-02-0.142D-02-0.123D+00-0.525D-01 0.117D+01
 Coeff-En:   0.000D+00 0.000D+00 0.000D+00 0.000D+00 0.000D+00 0.100D+01
 Coeff:      0.468D-03 0.407D-02-0.142D-02-0.123D+00-0.524D-01 0.117D+01
 Gap=     0.333 Goal=   None    Shift=    0.000
 RMSDP=1.29D-05 MaxDP=5.28D-04 DE=-3.32D-05 OVMax= 1.43D-03

 Cycle   7  Pass 1  IDiag  1:
 E= -3107.47820732725     Delta-E=       -0.000005664399 Rises=F Damp=F
 DIIS: error= 4.39D-05 at cycle   7 NSaved=   7.
 NSaved= 7 IEnMin= 7 EnMin= -3107.47820732725     IErMin= 7 ErrMin= 4.39D-05
 ErrMax= 4.39D-05  0.00D+00 EMaxC= 1.00D-01 BMatC= 1.78D-07 BMatP= 1.68D-06
 IDIUse=1 WtCom= 1.00D+00 WtEn= 0.00D+00
 Coeff-Com: -0.227D-03 0.881D-03 0.654D-02 0.546D-01-0.154D+00-0.274D+00
 Coeff-Com:  0.137D+01
 Coeff:     -0.227D-03 0.881D-03 0.654D-02 0.546D-01-0.154D+00-0.274D+00
 Coeff:      0.137D+01
 Gap=     0.333 Goal=   None    Shift=    0.000
 RMSDP=5.24D-06 MaxDP=1.97D-04 DE=-5.66D-06 OVMax= 5.55D-04

 Cycle   8  Pass 1  IDiag  1:
 E= -3107.47820801278     Delta-E=       -0.000000685527 Rises=F Damp=F
 DIIS: error= 8.08D-06 at cycle   8 NSaved=   8.
 NSaved= 8 IEnMin= 8 EnMin= -3107.47820801278     IErMin= 8 ErrMin= 8.08D-06
 ErrMax= 8.08D-06  0.00D+00 EMaxC= 1.00D-01 BMatC= 8.65D-09 BMatP= 1.78D-07
 IDIUse=1 WtCom= 1.00D+00 WtEn= 0.00D+00
 Coeff-Com:  0.150D-04-0.477D-03-0.110D-02-0.442D-02 0.281D-01 0.129D-01
 Coeff-Com: -0.318D+00 0.128D+01
 Coeff:      0.150D-04-0.477D-03-0.110D-02-0.442D-02 0.281D-01 0.129D-01
 Coeff:     -0.318D+00 0.128D+01
 Gap=     0.333 Goal=   None    Shift=    0.000
 RMSDP=1.18D-06 MaxDP=2.90D-05 DE=-6.86D-07 OVMax= 1.28D-04

 Cycle   9  Pass 1  IDiag  1:
 E= -3107.47820804744     Delta-E=       -0.000000034665 Rises=F Damp=F
 DIIS: error= 3.34D-06 at cycle   9 NSaved=   9.
 NSaved= 9 IEnMin= 9 EnMin= -3107.47820804744     IErMin= 9 ErrMin= 3.34D-06
 ErrMax= 3.34D-06  0.00D+00 EMaxC= 1.00D-01 BMatC= 1.12D-09 BMatP= 8.65D-09
 IDIUse=1 WtCom= 1.00D+00 WtEn= 0.00D+00
 Coeff-Com:  0.123D-04-0.515D-04-0.307D-03-0.246D-02 0.668D-02 0.152D-01
 Coeff-Com: -0.494D-01-0.199D+00 0.123D+01
 Coeff:      0.123D-04-0.515D-04-0.307D-03-0.246D-02 0.668D-02 0.152D-01
 Coeff:     -0.494D-01-0.199D+00 0.123D+01
 Gap=     0.333 Goal=   None    Shift=    0.000
 RMSDP=4.34D-07 MaxDP=9.41D-06 DE=-3.47D-08 OVMax= 5.31D-05

 Cycle  10  Pass 1  IDiag  1:
 E= -3107.47820805248     Delta-E=       -0.000000005036 Rises=F Damp=F
 DIIS: error= 1.75D-06 at cycle  10 NSaved=  10.
 NSaved=10 IEnMin=10 EnMin= -3107.47820805248     IErMin=10 ErrMin= 1.75D-06
 ErrMax= 1.75D-06  0.00D+00 EMaxC= 1.00D-01 BMatC= 2.47D-10 BMatP= 1.12D-09
 IDIUse=1 WtCom= 1.00D+00 WtEn= 0.00D+00
 Coeff-Com: -0.342D-05 0.136D-03 0.245D-03 0.399D-03-0.597D-02 0.118D-02
 Coeff-Com:  0.585D-01-0.246D+00-0.936D-01 0.129D+01
 Coeff:     -0.342D-05 0.136D-03 0.245D-03 0.399D-03-0.597D-02 0.118D-02
 Coeff:      0.585D-01-0.246D+00-0.936D-01 0.129D+01
 Gap=     0.333 Goal=   None    Shift=    0.000
 RMSDP=2.61D-07 MaxDP=6.34D-06 DE=-5.04D-09 OVMax= 3.14D-05

 Cycle  11  Pass 1  IDiag  1:
 E= -3107.47820805369     Delta-E=       -0.000000001210 Rises=F Damp=F
 DIIS: error= 5.61D-07 at cycle  11 NSaved=  11.
 NSaved=11 IEnMin=11 EnMin= -3107.47820805369     IErMin=11 ErrMin= 5.61D-07
 ErrMax= 5.61D-07  0.00D+00 EMaxC= 1.00D-01 BMatC= 2.41D-11 BMatP= 2.47D-10
 IDIUse=1 WtCom= 1.00D+00 WtEn= 0.00D+00
 Coeff-Com: -0.154D-05-0.218D-04 0.101D-04 0.613D-03-0.593D-03-0.344D-02
 Coeff-Com:  0.322D-02 0.562D-01-0.150D+00-0.205D+00 0.130D+01
 Coeff:     -0.154D-05-0.218D-04 0.101D-04 0.613D-03-0.593D-03-0.344D-02
 Coeff:      0.322D-02 0.562D-01-0.150D+00-0.205D+00 0.130D+01
 Gap=     0.333 Goal=   None    Shift=    0.000
 RMSDP=8.61D-08 MaxDP=2.29D-06 DE=-1.21D-09 OVMax= 1.01D-05

 Cycle  12  Pass 1  IDiag  1:
 E= -3107.47820805382     Delta-E=       -0.000000000133 Rises=F Damp=F
 DIIS: error= 1.24D-07 at cycle  12 NSaved=  12.
 NSaved=12 IEnMin=12 EnMin= -3107.47820805382     IErMin=12 ErrMin= 1.24D-07
 ErrMax= 1.24D-07  0.00D+00 EMaxC= 1.00D-01 BMatC= 1.64D-12 BMatP= 2.41D-11
 IDIUse=1 WtCom= 1.00D+00 WtEn= 0.00D+00
 Coeff-Com:  0.122D-06-0.113D-04-0.218D-04-0.306D-04 0.532D-03-0.593D-04
 Coeff-Com: -0.594D-02 0.267D-01 0.315D-02-0.143D+00 0.126D+00 0.993D+00
 Coeff:      0.122D-06-0.113D-04-0.218D-04-0.306D-04 0.532D-03-0.593D-04
 Coeff:     -0.594D-02 0.267D-01 0.315D-02-0.143D+00 0.126D+00 0.993D+00
 Gap=     0.333 Goal=   None    Shift=    0.000
 RMSDP=1.55D-08 MaxDP=3.75D-07 DE=-1.33D-10 OVMax= 1.56D-06

 Cycle  13  Pass 1  IDiag  1:
 E= -3107.47820805381     Delta-E=        0.000000000013 Rises=F Damp=F
 DIIS: error= 2.27D-08 at cycle  13 NSaved=  13.
 NSaved=13 IEnMin=12 EnMin= -3107.47820805382     IErMin=13 ErrMin= 2.27D-08
 ErrMax= 2.27D-08  0.00D+00 EMaxC= 1.00D-01 BMatC= 1.02D-13 BMatP= 1.64D-12
 IDIUse=1 WtCom= 1.00D+00 WtEn= 0.00D+00
 Coeff-Com:  0.831D-07 0.263D-05 0.233D-05-0.268D-04-0.423D-04 0.136D-03
 Coeff-Com:  0.937D-03-0.808D-02 0.971D-02 0.366D-01-0.116D+00-0.135D+00
 Coeff-Com:  0.121D+01
 Coeff:      0.831D-07 0.263D-05 0.233D-05-0.268D-04-0.423D-04 0.136D-03
 Coeff:      0.937D-03-0.808D-02 0.971D-02 0.366D-01-0.116D+00-0.135D+00
 Coeff:      0.121D+01
 Gap=     0.333 Goal=   None    Shift=    0.000
 RMSDP=4.95D-09 MaxDP=1.26D-07 DE= 1.27D-11 OVMax= 3.83D-07

 SCF Done:  E(RHF) =  -3107.47820805     A.U. after   13 cycles
            NFock= 13  Conv=0.50D-08     -V/T= 2.0000
 KE= 3.107330059563D+03 PE=-7.823316304027D+03 EE= 1.418114217898D+03
 Leave Link  502 at Thu Sep 23 16:32:44 2021, MaxMem= 16106127360 cpu:              50.5 elap:               4.8
 (Enter /sw/contrib/gaussian/g16/B01/g16/l801.exe)
 ExpMin= 2.53D-02 ExpMax= 1.06D+07 ExpMxC= 1.21D+04 IAcc=3 IRadAn=         5 AccDes= 0.00D+00
 HarFok:  IExCor=  205 AccDes= 0.00D+00 IRadAn=         5 IDoV=-2 UseB2=F ITyADJ=14
 ICtDFT= 12500011 ScaDFX=  1.000000  1.000000  1.000000  1.000000
 Largest valence mixing into a core orbital is  4.47D-04
 Largest core mixing into a valence orbital is  1.58D-04
 Range of M.O.s used for correlation:    16   178
 NBasis=   178 NAE=    31 NBE=    31 NFC=    15 NFV=     0
 NROrb=    163 NOA=    16 NOB=    16 NVA=   147 NVB=   147

 **** Warning!!: The largest alpha MO coefficient is  0.18135449D+02

 Leave Link  801 at Thu Sep 23 16:32:45 2021, MaxMem= 16106127360 cpu:               2.1 elap:               0.1
 (Enter /sw/contrib/gaussian/g16/B01/g16/l906.exe)
 Frozen-core derivative calculation, NFC=  15 NFV=   0.
 FulOut=F Deriv=T AODrv=F NAtomX=     4
   MMem=         124  MDisk=          16 MDiskD=          16
  W3Min=     1147744 MinDsk=     1765480 NBas6D=         208
 NBas2D=       22240    NTT=       21736    LW2=     9911920
    MDV= 16105652725 MDiskM=      387107 NBas2p=       22041
 Fully in-core method, ICMem=   527338992.
 IMap=   1   2   3   4   5   6   7   8   9  10  11  12  13  14  15  16  17  18  19  20
 IMap=  21  22  23  24  25  26  27  28  29  30  31
 JobTyp=1 Pass  1 fully in-core, NPsUse= 28.
 Compute canonical integrals.
 FoFCou: FMM=F IPFlag=           0 FMFlag=           0 FMFlg1=           0
         NFxFlg=           0 DoJE=F BraDBF=F KetDBF=F FulRan=T
         wScrn=  0.000000 ICntrl=       600 IOpCl=  1 I1Cent=           0 NGrid=           0
         NMat0=    1 NMatS0=  22240 NMatT0=    0 NMatD0=    1 NMtDS0=    0 NMtDT0=    0
 Symmetry not used in FoFCou.
 Spin components of T(2) and E(2):
     alpha-alpha T2 =       0.3035975811D-01 E2=     -0.9425611903D-01
     alpha-beta  T2 =       0.1615373220D+00 E2=     -0.5157318434D+00
     beta-beta   T2 =       0.3035975811D-01 E2=     -0.9425611903D-01
 The integrals were generated   1 times.
 ANorm=    0.1105557252D+01
 E2 =    -0.7042440814D+00 EUMP2 =    -0.31081824521352D+04
 Leave Link  906 at Thu Sep 23 16:32:51 2021, MaxMem= 16106127360 cpu:             175.5 elap:               6.3
 (Enter /sw/contrib/gaussian/g16/B01/g16/l1002.exe)
 Minotr:  Closed shell wavefunction.
          Computing MP2/KS-MP2 derivatives.
          Using Z-Vector for PSCF gradient.
          Skipping F1 and S1 gradient terms here.
          Frozen-core window.
          Direct CPHF calculation.
          Differentiating once with respect to electric field.
                with respect to dipole field.
          Electric field/nuclear overlap derivatives assumed to be zero.
          Requested convergence is 1.0D-10 RMS, and 1.0D-09 maximum.
          NewPWx=F KeepS1=T KeepF1=T KeepIn=T MapXYZ=F SortEE=F KeepMc=T.
 Keep R1 ints in memory in canonical form, NReq=149459410.
 FoFCou: FMM=F IPFlag=           0 FMFlag=           0 FMFlg1=           0
         NFxFlg=           0 DoJE=F BraDBF=F KetDBF=F FulRan=T
         wScrn=  0.000000 ICntrl=       600 IOpCl=  0 I1Cent=           0 NGrid=           0
         NMat0=    1 NMatS0=  15931 NMatT0=    0 NMatD0=    1 NMtDS0=    0 NMtDT0=    0
 Symmetry not used in FoFCou.
 Two-electron integral symmetry not used.
          MDV=   16106127360 using IRadAn=       5.
          Solving linear equations separately, MaxMat=       0.
          There are     1 degrees of freedom in the 1st order CPHF.  IDoFFX=0 NUNeed=     1.
 LinEq1:  Iter=  0 NonCon=     1 RMS=2.65D-03 Max=4.49D-02 NDo=     1
 AX will form     1 AO Fock derivatives at one time.
 LinEq1:  Iter=  1 NonCon=     1 RMS=4.17D-04 Max=4.41D-03 NDo=     1
 LinEq1:  Iter=  2 NonCon=     1 RMS=1.96D-04 Max=4.07D-03 NDo=     1
 LinEq1:  Iter=  3 NonCon=     1 RMS=6.38D-05 Max=1.04D-03 NDo=     1
 LinEq1:  Iter=  4 NonCon=     1 RMS=2.71D-05 Max=9.12D-04 NDo=     1
 LinEq1:  Iter=  5 NonCon=     1 RMS=9.78D-06 Max=1.60D-04 NDo=     1
 LinEq1:  Iter=  6 NonCon=     1 RMS=2.09D-06 Max=2.35D-05 NDo=     1
 LinEq1:  Iter=  7 NonCon=     1 RMS=5.46D-07 Max=1.02D-05 NDo=     1
 LinEq1:  Iter=  8 NonCon=     1 RMS=1.78D-07 Max=4.61D-06 NDo=     1
 LinEq1:  Iter=  9 NonCon=     1 RMS=5.47D-08 Max=1.35D-06 NDo=     1
 LinEq1:  Iter= 10 NonCon=     1 RMS=1.47D-08 Max=2.16D-07 NDo=     1
 LinEq1:  Iter= 11 NonCon=     1 RMS=3.36D-09 Max=5.36D-08 NDo=     1
 LinEq1:  Iter= 12 NonCon=     1 RMS=6.57D-10 Max=1.78D-08 NDo=     1
 LinEq1:  Iter= 13 NonCon=     1 RMS=2.04D-10 Max=4.23D-09 NDo=     1
 LinEq1:  Iter= 14 NonCon=     1 RMS=6.42D-11 Max=1.19D-09 NDo=     1
 LinEq1:  Iter= 15 NonCon=     0 RMS=1.20D-11 Max=1.98D-10 NDo=     1
 Linear equations converged to 1.000D-10 1.000D-09 after    15 iterations.
 End of Minotr F.D. properties file   721 does not exist.
 End of Minotr F.D. properties file   722 does not exist.
 End of Minotr F.D. properties file   788 does not exist.
 Leave Link 1002 at Thu Sep 23 16:32:56 2021, MaxMem= 16106127360 cpu:              41.9 elap:               5.0
 (Enter /sw/contrib/gaussian/g16/B01/g16/l601.exe)
 Copying SCF densities to generalized density rwf, IOpCl= 0 IROHF=0.

 **********************************************************************

            Population analysis using the MP2 Density.

 **********************************************************************

 Alpha  occ. eigenvalues -- -489.75617-104.73085 -64.89655 -58.25105 -58.25100
 Alpha  occ. eigenvalues --  -58.25100 -20.46106 -10.45035  -9.56909  -7.91752
 Alpha  occ. eigenvalues --   -7.91488  -7.91478  -7.17692  -7.17634  -7.17633
 Alpha  occ. eigenvalues --   -2.91863  -2.91835  -2.91834  -2.91769  -2.91769
 Alpha  occ. eigenvalues --   -1.22766  -0.89481  -0.73183  -0.53796  -0.44156
 Alpha  occ. eigenvalues --   -0.43337  -0.30757  -0.28016  -0.18637  -0.17653
 Alpha  occ. eigenvalues --   -0.17647
 Alpha virt. eigenvalues --    0.15612   0.18117   0.21576   0.22790   0.24123
 Alpha virt. eigenvalues --    0.24636   0.25006   0.28718   0.30390   0.31375
 Alpha virt. eigenvalues --    0.32434   0.32824   0.35934   0.43288   0.43901
 Alpha virt. eigenvalues --    0.46851   0.48232   0.48602   0.50322   0.54169
 Alpha virt. eigenvalues --    0.54327   0.57021   0.59374   0.60078   0.60206
 Alpha virt. eigenvalues --    0.61060   0.65612   0.69945   0.73698   0.74308
 Alpha virt. eigenvalues --    0.75440   0.77794   0.78689   0.84804   0.88980
 Alpha virt. eigenvalues --    0.89590   0.91748   0.94399   0.99659   1.00075
 Alpha virt. eigenvalues --    1.00314   1.00902   1.02011   1.03102   1.06896
 Alpha virt. eigenvalues --    1.08067   1.09284   1.10535   1.10835   1.13384
 Alpha virt. eigenvalues --    1.15522   1.17714   1.18138   1.20807   1.22102
 Alpha virt. eigenvalues --    1.23785   1.27690   1.29776   1.32659   1.34187
 Alpha virt. eigenvalues --    1.37582   1.38890   1.47670   1.50645   1.52110
 Alpha virt. eigenvalues --    1.56070   1.58748   1.63140   1.66550   1.70082
 Alpha virt. eigenvalues --    1.70732   1.76888   1.79035   1.79876   1.89717
 Alpha virt. eigenvalues --    1.97483   2.15004   2.37876   2.39384   2.41964
 Alpha virt. eigenvalues --    2.43487   2.46537   2.49865   2.50769   2.52848
 Alpha virt. eigenvalues --    2.53557   2.54945   2.55093   2.55523   2.56429
 Alpha virt. eigenvalues --    2.58132   2.60142   2.62967   2.64223   2.65721
 Alpha virt. eigenvalues --    2.67809   2.68736   2.70164   2.72039   2.72416
 Alpha virt. eigenvalues --    2.74672   2.75853   2.78199   2.80228   2.81334
 Alpha virt. eigenvalues --    2.88228   3.01502   3.07617   3.09788   3.17678
 Alpha virt. eigenvalues --    3.19985   3.21762   3.25666   3.29058   3.31147
 Alpha virt. eigenvalues --    3.34129   3.53053   3.54845   3.57382   3.93310
 Alpha virt. eigenvalues --    4.18349   4.30746   4.45231   4.53648   4.57636
 Alpha virt. eigenvalues --    4.77499   4.96703   5.02229   5.21975   5.32547
 Alpha virt. eigenvalues --    5.38509   5.65871   6.43155   6.59166   6.85179
 Alpha virt. eigenvalues --    6.90269   6.91717   6.99859   7.27564   7.33109
 Alpha virt. eigenvalues --    7.34719   7.44918   7.55466   7.74345   7.81433
 Alpha virt. eigenvalues --    8.34998  14.54926
          Condensed to atoms (all electrons):
               1          2          3          4
     1  O    8.667790  -0.092783  -0.115636   0.032360
     2  Br  -0.092783  35.891479   0.004315   0.044465
     3  Cl  -0.115636   0.004315  17.069069  -0.006299
     4  H    0.032360   0.044465  -0.006299   0.638818
 Mulliken charges:
               1
     1  O   -0.491730
     2  Br  -0.847476
     3  Cl   0.048551
     4  H    0.290656
 Sum of Mulliken charges =  -1.00000
 Mulliken charges with hydrogens summed into heavy atoms:
               1
     1  O   -0.201075
     2  Br  -0.847476
     3  Cl   0.048551
 Electronic spatial extent (au):  <R**2>=           1480.0028
 Charge=             -1.0000 electrons
 Dipole moment (field-independent basis, Debye):
    X=            -10.5058    Y=             -0.6680    Z=              0.0571  Tot=             10.5271
 Quadrupole moment (field-independent basis, Debye-Ang):
   XX=            -79.1489   YY=            -43.3424   ZZ=            -43.1608
   XY=              0.4392   XZ=              0.0156   YZ=             -0.0274
 Traceless Quadrupole moment (field-independent basis, Debye-Ang):
   XX=            -23.9315   YY=             11.8750   ZZ=             12.0566
   XY=              0.4392   XZ=              0.0156   YZ=             -0.0274
 Octapole moment (field-independent basis, Debye-Ang**2):
  XXX=           -308.6103  YYY=            -63.1725  ZZZ=             -0.3533  XYY=            -66.2605
  XXY=            -21.7442  XXZ=             -0.5893  XZZ=            -65.7801  YZZ=            -22.3163
  YYZ=             -0.1662  XYZ=              0.0169
 Hexadecapole moment (field-independent basis, Debye-Ang**3):
 XXXX=          -1708.4481 YYYY=           -258.8669 ZZZZ=            -61.9087 XXXY=             28.2392
 XXXZ=             -2.4860 YYYX=             22.0148 YYYZ=             -0.1385 ZZZX=             -0.5505
 ZZZY=             -0.0446 XXYY=           -275.8825 XXZZ=           -240.5389 YYZZ=            -57.9276
 XXYZ=             -0.0336 YYXZ=             -0.1282 ZZXY=              9.2664
 N-N= 1.903938185126D+02 E-N=-7.821887102636D+03  KE= 3.107356782075D+03
 No NMR shielding tensors so no spin-rotation constants.
 Leave Link  601 at Thu Sep 23 16:32:56 2021, MaxMem= 16106127360 cpu:               4.3 elap:               0.2
 (Enter /sw/contrib/gaussian/g16/B01/g16/l607.exe)
 ******************************Gaussian NBO Version 3.1******************************
             N A T U R A L   A T O M I C   O R B I T A L   A N D
          N A T U R A L   B O N D   O R B I T A L   A N A L Y S I S
 ******************************Gaussian NBO Version 3.1******************************
       /RESON  / : Allow strongly delocalized NBO set

 Analyzing the MP2 density

 Job title: title                                                           

 Storage needed:     95974 in NPA,    127345 in NBO (********** available)
 GSVD:  LWork=        4314 too small for GESVD, short by       49391 words or       49391 for optimal perf.


 NATURAL POPULATIONS:  Natural atomic orbital occupancies 
                                                          
   NAO  Atom  No  lang   Type(AO)    Occupancy
 --------------------------------------------
     1    O    1  S      Cor( 1S)     1.99970
     2    O    1  S      Val( 2S)     1.79082
     3    O    1  S      Ryd( 3S)     0.00984
     4    O    1  S      Ryd( 4S)     0.00113
     5    O    1  S      Ryd( 5S)     0.00019
     6    O    1  px     Val( 2p)     1.65680
     7    O    1  px     Ryd( 3p)     0.01130
     8    O    1  px     Ryd( 4p)     0.00076
     9    O    1  px     Ryd( 5p)     0.00047
    10    O    1  py     Val( 2p)     1.26443
    11    O    1  py     Ryd( 3p)     0.00782
    12    O    1  py     Ryd( 4p)     0.00063
    13    O    1  py     Ryd( 5p)     0.00040
    14    O    1  pz     Val( 2p)     1.94525
    15    O    1  pz     Ryd( 3p)     0.02017
    16    O    1  pz     Ryd( 4p)     0.00067
    17    O    1  pz     Ryd( 5p)     0.00015
    18    O    1  dxy    Ryd( 3d)     0.00943
    19    O    1  dxy    Ryd( 4d)     0.00046
    20    O    1  dxy    Ryd( 5d)     0.00017
    21    O    1  dxz    Ryd( 3d)     0.00719
    22    O    1  dxz    Ryd( 4d)     0.00061
    23    O    1  dxz    Ryd( 5d)     0.00033
    24    O    1  dyz    Ryd( 3d)     0.00927
    25    O    1  dyz    Ryd( 4d)     0.00057
    26    O    1  dyz    Ryd( 5d)     0.00012
    27    O    1  dx2y2  Ryd( 3d)     0.01277
    28    O    1  dx2y2  Ryd( 4d)     0.00037
    29    O    1  dx2y2  Ryd( 5d)     0.00014
    30    O    1  dz2    Ryd( 3d)     0.00967
    31    O    1  dz2    Ryd( 4d)     0.00057
    32    O    1  dz2    Ryd( 5d)     0.00016
    33    O    1  f(0)   Ryd( 4f)     0.00071
    34    O    1  f(0)   Ryd( 5f)     0.00011
    35    O    1  f(C1)  Ryd( 4f)     0.00058
    36    O    1  f(C1)  Ryd( 5f)     0.00011
    37    O    1  f(S1)  Ryd( 4f)     0.00067
    38    O    1  f(S1)  Ryd( 5f)     0.00012
    39    O    1  f(C2)  Ryd( 4f)     0.00058
    40    O    1  f(C2)  Ryd( 5f)     0.00013
    41    O    1  f(S2)  Ryd( 4f)     0.00055
    42    O    1  f(S2)  Ryd( 5f)     0.00011
    43    O    1  f(C3)  Ryd( 4f)     0.00056
    44    O    1  f(C3)  Ryd( 5f)     0.00015
    45    O    1  f(S3)  Ryd( 4f)     0.00057
    46    O    1  f(S3)  Ryd( 5f)     0.00012

    47   Br    2  S      Cor( 1S)     2.00000
    48   Br    2  S      Cor( 2S)     2.00000
    49   Br    2  S      Cor( 3S)     1.99982
    50   Br    2  S      Val( 4S)     1.96530
    51   Br    2  S      Ryd( 5S)     0.00182
    52   Br    2  S      Ryd( 6S)     0.00046
    53   Br    2  S      Ryd( 7S)     0.00016
    54   Br    2  px     Cor( 2p)     2.00000
    55   Br    2  px     Cor( 3p)     1.99991
    56   Br    2  px     Val( 4p)     1.84799
    57   Br    2  px     Ryd( 5p)     0.00938
    58   Br    2  px     Ryd( 6p)     0.00075
    59   Br    2  px     Ryd( 7p)     0.00012
    60   Br    2  py     Cor( 3p)     2.00000
    61   Br    2  py     Cor( 2p)     2.00000
    62   Br    2  py     Val( 4p)     1.95343
    63   Br    2  py     Ryd( 5p)     0.01108
    64   Br    2  py     Ryd( 6p)     0.00081
    65   Br    2  py     Ryd( 7p)     0.00008
    66   Br    2  pz     Cor( 3p)     2.00000
    67   Br    2  pz     Cor( 2p)     2.00000
    68   Br    2  pz     Val( 4p)     1.95340
    69   Br    2  pz     Ryd( 5p)     0.01115
    70   Br    2  pz     Ryd( 6p)     0.00081
    71   Br    2  pz     Ryd( 7p)     0.00009
    72   Br    2  dxy    Cor( 3d)     1.99766
    73   Br    2  dxy    Ryd( 4d)     0.01884
    74   Br    2  dxy    Ryd( 5d)     0.00138
    75   Br    2  dxy    Ryd( 6d)     0.00023
    76   Br    2  dxz    Cor( 3d)     1.99766
    77   Br    2  dxz    Ryd( 4d)     0.01890
    78   Br    2  dxz    Ryd( 5d)     0.00143
    79   Br    2  dxz    Ryd( 6d)     0.00021
    80   Br    2  dyz    Cor( 3d)     1.99769
    81   Br    2  dyz    Ryd( 4d)     0.01861
    82   Br    2  dyz    Ryd( 5d)     0.00175
    83   Br    2  dyz    Ryd( 6d)     0.00025
    84   Br    2  dx2y2  Cor( 3d)     1.99762
    85   Br    2  dx2y2  Ryd( 4d)     0.01844
    86   Br    2  dx2y2  Ryd( 5d)     0.00161
    87   Br    2  dx2y2  Ryd( 6d)     0.00022
    88   Br    2  dz2    Cor( 3d)     1.99766
    89   Br    2  dz2    Ryd( 4d)     0.01855
    90   Br    2  dz2    Ryd( 5d)     0.00170
    91   Br    2  dz2    Ryd( 6d)     0.00022
    92   Br    2  f(0)   Ryd( 4f)     0.00173
    93   Br    2  f(0)   Ryd( 5f)     0.00026
    94   Br    2  f(C1)  Ryd( 4f)     0.00176
    95   Br    2  f(C1)  Ryd( 5f)     0.00028
    96   Br    2  f(S1)  Ryd( 4f)     0.00175
    97   Br    2  f(S1)  Ryd( 5f)     0.00024
    98   Br    2  f(C2)  Ryd( 4f)     0.00171
    99   Br    2  f(C2)  Ryd( 5f)     0.00026
   100   Br    2  f(S2)  Ryd( 4f)     0.00176
   101   Br    2  f(S2)  Ryd( 5f)     0.00025
   102   Br    2  f(C3)  Ryd( 4f)     0.00176
   103   Br    2  f(C3)  Ryd( 5f)     0.00028
   104   Br    2  f(S3)  Ryd( 4f)     0.00167
   105   Br    2  f(S3)  Ryd( 5f)     0.00026

   106   Cl    3  S      Cor( 1S)     2.00000
   107   Cl    3  S      Cor( 2S)     1.99978
   108   Cl    3  S      Val( 3S)     1.88150
   109   Cl    3  S      Ryd( 4S)     0.00782
   110   Cl    3  S      Ryd( 5S)     0.00053
   111   Cl    3  S      Ryd( 6S)     0.00017
   112   Cl    3  px     Cor( 2p)     2.00003
   113   Cl    3  px     Val( 3p)     1.89050
   114   Cl    3  px     Ryd( 4p)     0.00947
   115   Cl    3  px     Ryd( 5p)     0.00052
   116   Cl    3  px     Ryd( 6p)     0.00008
   117   Cl    3  py     Cor( 2p)     1.99996
   118   Cl    3  py     Val( 3p)     0.97193
   119   Cl    3  py     Ryd( 4p)     0.00694
   120   Cl    3  py     Ryd( 5p)     0.00052
   121   Cl    3  py     Ryd( 6p)     0.00023
   122   Cl    3  pz     Cor( 2p)     2.00003
   123   Cl    3  pz     Val( 3p)     1.95446
   124   Cl    3  pz     Ryd( 4p)     0.01064
   125   Cl    3  pz     Ryd( 5p)     0.00068
   126   Cl    3  pz     Ryd( 6p)     0.00003
   127   Cl    3  dxy    Ryd( 3d)     0.01732
   128   Cl    3  dxy    Ryd( 4d)     0.00070
   129   Cl    3  dxy    Ryd( 5d)     0.00026
   130   Cl    3  dxz    Ryd( 3d)     0.01718
   131   Cl    3  dxz    Ryd( 4d)     0.00076
   132   Cl    3  dxz    Ryd( 5d)     0.00019
   133   Cl    3  dyz    Ryd( 3d)     0.02107
   134   Cl    3  dyz    Ryd( 4d)     0.00107
   135   Cl    3  dyz    Ryd( 5d)     0.00037
   136   Cl    3  dx2y2  Ryd( 3d)     0.01807
   137   Cl    3  dx2y2  Ryd( 4d)     0.00063
   138   Cl    3  dx2y2  Ryd( 5d)     0.00025
   139   Cl    3  dz2    Ryd( 3d)     0.01753
   140   Cl    3  dz2    Ryd( 4d)     0.00059
   141   Cl    3  dz2    Ryd( 5d)     0.00016
   142   Cl    3  f(0)   Ryd( 4f)     0.00131
   143   Cl    3  f(0)   Ryd( 5f)     0.00013
   144   Cl    3  f(C1)  Ryd( 4f)     0.00128
   145   Cl    3  f(C1)  Ryd( 5f)     0.00013
   146   Cl    3  f(S1)  Ryd( 4f)     0.00144
   147   Cl    3  f(S1)  Ryd( 5f)     0.00014
   148   Cl    3  f(C2)  Ryd( 4f)     0.00131
   149   Cl    3  f(C2)  Ryd( 5f)     0.00013
   150   Cl    3  f(S2)  Ryd( 4f)     0.00123
   151   Cl    3  f(S2)  Ryd( 5f)     0.00014
   152   Cl    3  f(C3)  Ryd( 4f)     0.00140
   153   Cl    3  f(C3)  Ryd( 5f)     0.00013
   154   Cl    3  f(S3)  Ryd( 4f)     0.00143
   155   Cl    3  f(S3)  Ryd( 5f)     0.00014

   156    H    4  S      Val( 1S)     0.50060
   157    H    4  S      Ryd( 2S)     0.00866
   158    H    4  S      Ryd( 3S)     0.00031
   159    H    4  S      Ryd( 4S)     0.00018
   160    H    4  px     Ryd( 2p)     0.00529
   161    H    4  px     Ryd( 3p)     0.00111
   162    H    4  px     Ryd( 4p)     0.00033
   163    H    4  py     Ryd( 2p)     0.00398
   164    H    4  py     Ryd( 3p)     0.00044
   165    H    4  py     Ryd( 4p)     0.00014
   166    H    4  pz     Ryd( 2p)     0.00546
   167    H    4  pz     Ryd( 3p)     0.00038
   168    H    4  pz     Ryd( 4p)     0.00026
   169    H    4  dxy    Ryd( 3d)     0.00028
   170    H    4  dxy    Ryd( 4d)     0.00009
   171    H    4  dxz    Ryd( 3d)     0.00044
   172    H    4  dxz    Ryd( 4d)     0.00012
   173    H    4  dyz    Ryd( 3d)     0.00024
   174    H    4  dyz    Ryd( 4d)     0.00006
   175    H    4  dx2y2  Ryd( 3d)     0.00023
   176    H    4  dx2y2  Ryd( 4d)     0.00013
   177    H    4  dz2    Ryd( 3d)     0.00026
   178    H    4  dz2    Ryd( 4d)     0.00009

 WARNING:  5 low occupancy (<1.9990e) core orbitals found on Br    2


 Summary of Natural Population Analysis:                  
                                                          
                                       Natural Population 
                Natural  -----------------------------------------------
    Atom  No    Charge         Core      Valence    Rydberg      Total
 -----------------------------------------------------------------------
      O    1   -0.76742      1.99970     6.65730    0.11043     8.76742
     Br    2   -0.86117     27.98802     7.72013    0.15302    35.86117
     Cl    3    0.15768      9.99980     6.69839    0.14413    16.84232
      H    4    0.47091      0.00000     0.50060    0.02848     0.52909
 =======================================================================
   * Total *   -1.00000     39.98752    21.57642    0.43606    62.00000

                                 Natural Population      
 --------------------------------------------------------
   Core                      39.98752 ( 99.9688% of  40)
   Valence                   21.57642 ( 98.0746% of  22)
   Natural Minimal Basis     61.56394 ( 99.2967% of  62)
   Natural Rydberg Basis      0.43606 (  0.7033% of  62)
 --------------------------------------------------------

    Atom  No          Natural Electron Configuration
 ----------------------------------------------------------------------------
      O    1      [core]2S( 1.79)2p( 4.87)3S( 0.01)3p( 0.04)3d( 0.05)
     Br    2      [core]4S( 1.97)4p( 5.75)4d( 0.09)5p( 0.03)4f( 0.01)5d( 0.01)
     Cl    3      [core]3S( 1.88)3p( 4.82)4S( 0.01)3d( 0.09)4p( 0.03)4f( 0.01)
      H    4            1S( 0.50)2S( 0.01)2p( 0.01)


 NATURAL BOND ORBITAL ANALYSIS:
 Warning:  a bond orbital has occupanc of -0.00001
 Warning:  a bond orbital has occupanc of -0.00000

                       Occupancies       Lewis Structure    Low   High
           Occ.    -------------------  -----------------   occ   occ
  Cycle   Thresh.   Lewis   Non-Lewis     CR  BD  3C  LP    (L)   (NL)   Dev
 =============================================================================
   1(1)    1.90    61.41604   0.58396     20   2   0   9     1      1    0.17
 Warning:  a bond orbital has occupanc of -0.00001
 Warning:  a bond orbital has occupanc of -0.00000
   2(2)    1.90    61.16138   0.83862     20   2   0   9     1      1    0.54
 Warning:  a bond orbital has occupanc of -0.00001
 Warning:  a bond orbital has occupanc of -0.00000
   3(3)    1.90    61.41604   0.58396     20   2   0   9     1      1    0.17
 Warning:  a bond orbital has occupanc of -0.00001
 Warning:  a bond orbital has occupanc of -0.00000
   4(1)    1.80    61.41604   0.58396     20   2   0   9     0      1    0.17
 Warning:  a bond orbital has occupanc of -0.00001
 Warning:  a bond orbital has occupanc of -0.00000
   5(2)    1.80    61.41604   0.58396     20   2   0   9     0      1    0.17
 Warning:  a bond orbital has occupanc of -0.00001
 Warning:  a bond orbital has occupanc of -0.00000
   6(1)    1.70    61.41604   0.58396     20   2   0   9     0      1    0.17
 Warning:  a bond orbital has occupanc of -0.00001
 Warning:  a bond orbital has occupanc of -0.00000
   7(2)    1.70    61.41604   0.58396     20   2   0   9     0      1    0.17
 Warning:  a bond orbital has occupanc of -0.00001
 Warning:  a bond orbital has occupanc of -0.00000
   8(1)    1.60    61.05217   0.94783     20   1   0  10     0      1    0.54
 Warning:  a bond orbital has occupanc of -0.00001
 Warning:  a bond orbital has occupanc of -0.00000
   9(2)    1.60    61.05217   0.94783     20   1   0  10     0      1    0.54
 Warning:  a bond orbital has occupanc of -0.00001
 Warning:  a bond orbital has occupanc of -0.00000
  10(1)    1.50    61.05217   0.94783     20   1   0  10     0      1    0.54
 Warning:  a bond orbital has occupanc of -0.00001
 Warning:  a bond orbital has occupanc of -0.00000
  11(2)    1.50    61.05217   0.94783     20   1   0  10     0      1    0.54
 Warning:  a bond orbital has occupanc of -0.00001
 Warning:  a bond orbital has occupanc of -0.00000
  12(1)    1.90    61.41604   0.58396     20   2   0   9     1      1    0.17
 -----------------------------------------------------------------------------

 Structure accepted: RESONANCE keyword permits strongly delocalized structure

 WARNING:  5 low occupancy (<1.9990e) core orbitals found on Br    2

 --------------------------------------------------------
   Core                     39.98752 ( 99.969% of  40)
   Valence Lewis            21.42852 ( 97.402% of  22)
  ==================       ============================
   Total Lewis              61.41604 ( 99.058% of  62)
  -----------------------------------------------------
   Valence non-Lewis         0.19357 (  0.312% of  62)
   Rydberg non-Lewis         0.39040 (  0.630% of  62)
  ==================       ============================
   Total non-Lewis           0.58396 (  0.942% of  62)
 --------------------------------------------------------


       (Occupancy)   Bond orbital/ Coefficients/ Hybrids
 ---------------------------------------------------------------------------------
     1. (1.93933) BD ( 1) O   1 -Cl   3  
                ( 58.85%)   0.7671* O   1 s( 10.51%)p 8.47( 88.96%)d 0.05(  0.51%)
                                                  f 0.00(  0.02%)
                                            0.0003  0.3210 -0.0426 -0.0148 -0.0006
                                           -0.1910  0.0349  0.0073  0.0025  0.9225
                                           -0.0249 -0.0089 -0.0112  0.0057  0.0027
                                            0.0005 -0.0001 -0.0049 -0.0006 -0.0032
                                            0.0013  0.0001 -0.0003  0.0029  0.0004
                                           -0.0001 -0.0573 -0.0046 -0.0011 -0.0420
                                           -0.0034  0.0007 -0.0000 -0.0000  0.0028
                                           -0.0004 -0.0109  0.0011 -0.0005  0.0003
                                            0.0009 -0.0002  0.0035  0.0021 -0.0049
                                            0.0006
                ( 41.15%)   0.6415*Cl   3 s(  8.57%)p10.52( 90.16%)d 0.13(  1.16%)
                                                  f 0.01(  0.11%)
                                           -0.0000  0.0005  0.2874 -0.0549 -0.0100
                                            0.0026  0.0001  0.2310 -0.0133 -0.0059
                                            0.0019 -0.0004 -0.9186  0.0637  0.0129
                                           -0.0040  0.0000  0.0012  0.0000 -0.0004
                                            0.0001 -0.0519  0.0048 -0.0004  0.0013
                                           -0.0000 -0.0002 -0.0017 -0.0002 -0.0001
                                           -0.0741  0.0095  0.0007 -0.0567  0.0061
                                            0.0011 -0.0002  0.0000 -0.0054  0.0009
                                            0.0204 -0.0030  0.0000 -0.0001 -0.0003
                                            0.0002 -0.0177  0.0020  0.0186 -0.0020
     2. (1.96420) BD ( 1) O   1 - H   4  
                ( 80.06%)   0.8948* O   1 s( 28.93%)p 2.44( 70.58%)d 0.02(  0.47%)
                                                  f 0.00(  0.01%)
                                            0.0003  0.5378 -0.0063 -0.0083  0.0022
                                            0.8358 -0.0077 -0.0068 -0.0050 -0.0125
                                            0.0151  0.0014  0.0024  0.0819 -0.0001
                                           -0.0007 -0.0009  0.0266  0.0049  0.0010
                                            0.0115  0.0007 -0.0005  0.0028  0.0005
                                            0.0001  0.0512  0.0040  0.0014 -0.0349
                                           -0.0015  0.0031 -0.0020 -0.0000 -0.0086
                                           -0.0002 -0.0003  0.0005  0.0012  0.0004
                                            0.0001 -0.0002  0.0010  0.0029 -0.0018
                                           -0.0006
                ( 19.94%)   0.4465* H   4 s( 99.82%)p 0.00(  0.18%)d 0.00(  0.00%)
                                            0.9980  0.0458  0.0042 -0.0019  0.0148
                                           -0.0338  0.0112  0.0141  0.0018  0.0043
                                            0.0056 -0.0036  0.0001  0.0013  0.0019
                                           -0.0005 -0.0002  0.0003  0.0002  0.0024
                                            0.0001 -0.0004 -0.0034
     3. (1.99969) CR ( 1) O   1           s(100.00%)p 0.00(  0.00%)
                                            1.0000 -0.0004  0.0000  0.0000 -0.0000
                                           -0.0001 -0.0000  0.0000  0.0000 -0.0002
                                            0.0000  0.0000  0.0000 -0.0000 -0.0000
                                            0.0000  0.0000 -0.0000 -0.0000 -0.0000
                                           -0.0000 -0.0000  0.0000 -0.0000 -0.0000
                                           -0.0000  0.0000  0.0000 -0.0000  0.0000
                                            0.0000 -0.0000  0.0000  0.0000  0.0000
                                            0.0000  0.0000 -0.0000 -0.0000 -0.0000
                                           -0.0000  0.0000 -0.0000 -0.0000  0.0000
                                           -0.0000
     4. (2.00000) CR ( 1)Br   2           s(100.00%)
                                            1.0000 -0.0000  0.0000  0.0000 -0.0000
                                            0.0000  0.0000 -0.0000  0.0000  0.0000
                                           -0.0000  0.0000  0.0000  0.0000 -0.0000
                                           -0.0000 -0.0000 -0.0000 -0.0000 -0.0000
                                           -0.0000  0.0000  0.0000  0.0000  0.0000
                                           -0.0000  0.0000 -0.0000  0.0000  0.0000
                                            0.0000  0.0000  0.0000  0.0000 -0.0000
                                            0.0000 -0.0000 -0.0000 -0.0000 -0.0000
                                           -0.0000  0.0000  0.0000 -0.0000  0.0000
                                           -0.0000 -0.0000  0.0000  0.0000  0.0000
                                            0.0000  0.0000  0.0000  0.0000  0.0000
                                           -0.0000 -0.0000 -0.0000 -0.0000
     5. (2.00000) CR ( 2)Br   2           s(100.00%)
                                           -0.0000  1.0000  0.0000  0.0000 -0.0000
                                            0.0000  0.0000 -0.0000  0.0000  0.0000
                                           -0.0000  0.0000  0.0000 -0.0000  0.0000
                                            0.0000  0.0000  0.0000 -0.0000  0.0000
                                           -0.0000 -0.0000  0.0000  0.0000  0.0000
                                            0.0000 -0.0000  0.0000  0.0000  0.0000
                                            0.0000  0.0000  0.0000 -0.0000  0.0000
                                           -0.0000  0.0000 -0.0000 -0.0000 -0.0000
                                           -0.0000  0.0000  0.0000 -0.0000  0.0000
                                           -0.0000 -0.0000  0.0000  0.0000 -0.0000
                                           -0.0000  0.0000  0.0000 -0.0000 -0.0000
                                           -0.0000 -0.0000  0.0000  0.0000
     6. (1.99982) CR ( 3)Br   2           s(100.00%)
                                            0.0000  0.0000  1.0000 -0.0002  0.0000
                                           -0.0000 -0.0000  0.0000 -0.0000 -0.0001
                                            0.0000 -0.0000 -0.0000 -0.0000  0.0000
                                            0.0000  0.0000  0.0000  0.0000 -0.0000
                                            0.0000  0.0000 -0.0000  0.0000 -0.0000
                                            0.0000 -0.0000  0.0000 -0.0000 -0.0000
                                           -0.0000  0.0000 -0.0000 -0.0000  0.0000
                                           -0.0000  0.0000  0.0000  0.0000  0.0000
                                            0.0000 -0.0000 -0.0000 -0.0000 -0.0000
                                           -0.0000  0.0000 -0.0000 -0.0000 -0.0000
                                           -0.0000  0.0000 -0.0000 -0.0000 -0.0000
                                            0.0000  0.0000  0.0000  0.0000
     7. (2.00000) CR ( 4)Br   2           s(  0.00%)p 1.00(100.00%)
                                           -0.0000 -0.0000  0.0000  0.0000 -0.0000
                                            0.0000  0.0000  1.0000  0.0000  0.0000
                                           -0.0000  0.0000  0.0000  0.0000  0.0000
                                            0.0000 -0.0000 -0.0000 -0.0000 -0.0000
                                            0.0000  0.0000  0.0000  0.0000 -0.0000
                                           -0.0000 -0.0000 -0.0000  0.0000  0.0000
                                           -0.0000  0.0000  0.0000  0.0000 -0.0000
                                            0.0000 -0.0000 -0.0000 -0.0000 -0.0000
                                           -0.0000  0.0000  0.0000 -0.0000  0.0000
                                           -0.0000 -0.0000  0.0000  0.0000  0.0000
                                            0.0000  0.0000  0.0000  0.0000 -0.0000
                                           -0.0000 -0.0000  0.0000 -0.0000
     8. (1.99991) CR ( 5)Br   2           s(  0.00%)p 1.00(100.00%)
                                           -0.0000 -0.0000  0.0000  0.0001 -0.0000
                                            0.0000  0.0000 -0.0000 -1.0000  0.0000
                                           -0.0000  0.0000  0.0000 -0.0000  0.0000
                                            0.0000 -0.0000 -0.0000 -0.0000 -0.0000
                                            0.0000  0.0000  0.0000  0.0000 -0.0000
                                            0.0000 -0.0000 -0.0000  0.0000  0.0000
                                           -0.0000  0.0000  0.0000  0.0000 -0.0000
                                            0.0000 -0.0000 -0.0000 -0.0000 -0.0000
                                           -0.0000  0.0000  0.0000 -0.0000  0.0000
                                           -0.0000 -0.0000  0.0000  0.0000 -0.0000
                                            0.0000  0.0000  0.0000 -0.0000 -0.0000
                                           -0.0000 -0.0000  0.0000 -0.0000
     9. (2.00000) CR ( 6)Br   2           s(  0.00%)p 1.00(100.00%)
                                            0.0000 -0.0000 -0.0000 -0.0000  0.0000
                                           -0.0000 -0.0000  0.0000  0.0000 -0.0000
                                           -0.0000  0.0000 -0.0000  1.0000  0.0000
                                            0.0000  0.0000  0.0000 -0.0000  0.0000
                                           -0.0000 -0.0000  0.0000 -0.0000  0.0000
                                            0.0000 -0.0000  0.0000  0.0000  0.0000
                                           -0.0000  0.0000 -0.0000 -0.0000  0.0000
                                           -0.0000  0.0000 -0.0000  0.0000 -0.0000
                                            0.0000  0.0000  0.0000 -0.0000  0.0000
                                           -0.0000 -0.0000  0.0000  0.0000 -0.0000
                                           -0.0000  0.0000  0.0000 -0.0000 -0.0000
                                           -0.0000 -0.0000  0.0000  0.0000
    10. (2.00000) CR ( 7)Br   2           s(  0.00%)p 1.00(100.00%)
                                           -0.0000  0.0000  0.0000 -0.0000 -0.0000
                                            0.0000  0.0000  0.0000 -0.0000  0.0000
                                            0.0000 -0.0000  0.0000  0.0000  1.0000
                                           -0.0002 -0.0000 -0.0000  0.0000 -0.0000
                                            0.0000 -0.0000 -0.0000 -0.0000 -0.0000
                                           -0.0000  0.0000 -0.0000 -0.0000 -0.0000
                                            0.0000 -0.0000  0.0000  0.0000 -0.0000
                                            0.0000 -0.0000  0.0000 -0.0000  0.0000
                                           -0.0000 -0.0000 -0.0000  0.0000 -0.0000
                                            0.0000  0.0000 -0.0000 -0.0000  0.0000
                                            0.0000 -0.0000 -0.0000  0.0000  0.0000
                                            0.0000  0.0000 -0.0000 -0.0000
    11. (2.00000) CR ( 8)Br   2           s(  0.00%)p 1.00(100.00%)
                                           -0.0000  0.0000 -0.0000 -0.0000 -0.0000
                                            0.0000  0.0000 -0.0000  0.0000  0.0000
                                            0.0000 -0.0000  0.0000  0.0000 -0.0000
                                           -0.0000 -0.0000 -0.0000 -0.0000  1.0000
                                            0.0000  0.0000  0.0000  0.0000 -0.0000
                                           -0.0000  0.0000  0.0000  0.0000  0.0000
                                           -0.0000  0.0000  0.0000  0.0000 -0.0000
                                            0.0000 -0.0000  0.0000 -0.0000  0.0000
                                            0.0000 -0.0000  0.0000 -0.0000  0.0000
                                           -0.0000 -0.0000 -0.0000 -0.0000 -0.0000
                                            0.0000  0.0000  0.0000 -0.0000 -0.0000
                                            0.0000  0.0000 -0.0000 -0.0000
    12. (2.00000) CR ( 9)Br   2           s(  0.00%)p 1.00(100.00%)
                                           -0.0000 -0.0000  0.0000  0.0000  0.0000
                                           -0.0000 -0.0000  0.0000 -0.0000 -0.0000
                                           -0.0000  0.0000 -0.0000 -0.0000  0.0000
                                            0.0000  0.0000  0.0000  0.0000  0.0000
                                            1.0000 -0.0002 -0.0000 -0.0000  0.0000
                                            0.0000 -0.0000 -0.0000 -0.0000 -0.0000
                                            0.0000 -0.0000 -0.0000 -0.0000  0.0000
                                           -0.0000  0.0000 -0.0000  0.0000 -0.0000
                                           -0.0000  0.0000 -0.0000  0.0000 -0.0000
                                            0.0000  0.0000  0.0000  0.0000  0.0000
                                           -0.0000 -0.0000 -0.0000  0.0000  0.0000
                                           -0.0000 -0.0000  0.0000  0.0000
    13. (1.99766) CR (10)Br   2           s(  0.00%)p 0.00(  0.00%)d 1.00(100.00%)
                                           -0.0000  0.0000  0.0000  0.0000 -0.0000
                                            0.0000  0.0000 -0.0000 -0.0000  0.0000
                                            0.0000 -0.0000  0.0000  0.0000 -0.0000
                                           -0.0000 -0.0000 -0.0000  0.0000 -0.0000
                                            0.0000  0.0000 -0.0000  0.0000 -0.0000
                                            1.0000  0.0000 -0.0000 -0.0000 -0.0000
                                            0.0000 -0.0000  0.0000  0.0000 -0.0000
                                            0.0000 -0.0000  0.0000 -0.0000  0.0000
                                           -0.0000 -0.0000 -0.0000  0.0000 -0.0000
                                            0.0000  0.0000 -0.0000 -0.0000  0.0000
                                            0.0000 -0.0000 -0.0000  0.0000  0.0000
                                            0.0000  0.0000 -0.0000 -0.0000
    14. (1.99766) CR (11)Br   2           s(  0.00%)p 0.00(  0.00%)d 1.00(100.00%)
                                            0.0000  0.0000 -0.0000 -0.0000  0.0000
                                           -0.0000 -0.0000  0.0000 -0.0000 -0.0000
                                            0.0000 -0.0000 -0.0000  0.0000 -0.0000
                                           -0.0000 -0.0000  0.0000  0.0000  0.0000
                                           -0.0000 -0.0000 -0.0000 -0.0000  0.0000
                                           -0.0000  0.0000 -0.0000 -0.0000  1.0000
                                            0.0000 -0.0000 -0.0000 -0.0000  0.0000
                                           -0.0000  0.0000  0.0000  0.0000 -0.0000
                                           -0.0000 -0.0000 -0.0000  0.0000 -0.0000
                                            0.0000  0.0000  0.0000  0.0000  0.0000
                                           -0.0000 -0.0000 -0.0000  0.0000  0.0000
                                           -0.0000  0.0000 -0.0000 -0.0000
    15. (1.99769) CR (12)Br   2           s(  0.00%)p 0.00(  0.00%)d 1.00(100.00%)
                                            0.0000 -0.0000 -0.0000 -0.0000  0.0000
                                           -0.0000 -0.0000  0.0000 -0.0000 -0.0000
                                           -0.0000  0.0000 -0.0000 -0.0000  0.0000
                                            0.0000  0.0000  0.0000 -0.0000  0.0000
                                           -0.0000 -0.0000 -0.0000 -0.0000  0.0000
                                            0.0000 -0.0000  0.0000  0.0000 -0.0000
                                            0.0000 -0.0000 -0.0000  1.0000  0.0000
                                           -0.0000  0.0000 -0.0000  0.0000 -0.0000
                                            0.0000  0.0000 -0.0000  0.0000  0.0000
                                            0.0000  0.0000  0.0000  0.0000 -0.0000
                                           -0.0000 -0.0000 -0.0000 -0.0000 -0.0000
                                           -0.0000 -0.0000  0.0000  0.0000
    16. (1.99762) CR (13)Br   2           s(  0.00%)p 0.00(  0.00%)d 1.00(100.00%)
                                           -0.0000 -0.0000  0.0000  0.0000 -0.0000
                                            0.0000  0.0000 -0.0000  0.0000  0.0000
                                           -0.0000  0.0000  0.0000 -0.0000  0.0000
                                            0.0000 -0.0000 -0.0000 -0.0000  0.0000
                                           -0.0000 -0.0000  0.0000 -0.0000  0.0000
                                            0.0000 -0.0000 -0.0000  0.0000  0.0000
                                            0.0000 -0.0000  0.0000 -0.0000  0.0000
                                           -0.0000 -0.0000  1.0000 -0.0000 -0.0000
                                           -0.0000  0.0000  0.0000  0.0000  0.0000
                                            0.0000 -0.0000  0.0000  0.0000 -0.0000
                                            0.0000 -0.0000  0.0000 -0.0000  0.0000
                                           -0.0000 -0.0000  0.0000  0.0000
    17. (1.99766) CR (14)Br   2           s(  0.00%)p 0.00(  0.00%)d 1.00(100.00%)
                                            0.0000  0.0000 -0.0000 -0.0000  0.0000
                                           -0.0000 -0.0000  0.0000 -0.0000 -0.0000
                                            0.0000 -0.0000 -0.0000  0.0000 -0.0000
                                           -0.0000  0.0000  0.0000  0.0000 -0.0000
                                            0.0000  0.0000  0.0000  0.0000 -0.0000
                                           -0.0000  0.0000  0.0000 -0.0000 -0.0000
                                           -0.0000  0.0000  0.0000  0.0000 -0.0000
                                            0.0000 -0.0000  0.0000  0.0000  0.0000
                                            0.0000  1.0000 -0.0000 -0.0000 -0.0000
                                           -0.0000 -0.0000 -0.0000 -0.0000  0.0000
                                           -0.0000  0.0000  0.0000  0.0000 -0.0000
                                            0.0000  0.0000 -0.0000 -0.0000
    18. (2.00000) CR ( 1)Cl   3           s(100.00%)
                                            1.0000  0.0000 -0.0000 -0.0000 -0.0000
                                            0.0000  0.0000  0.0000 -0.0000 -0.0000
                                            0.0000 -0.0000 -0.0000  0.0000  0.0000
                                           -0.0000 -0.0000  0.0000  0.0000 -0.0000
                                            0.0000 -0.0000  0.0000 -0.0000  0.0000
                                           -0.0000 -0.0000 -0.0000 -0.0000 -0.0000
                                           -0.0000  0.0000  0.0000 -0.0000  0.0000
                                            0.0000 -0.0000  0.0000 -0.0000  0.0000
                                            0.0000 -0.0000 -0.0000 -0.0000 -0.0000
                                            0.0000 -0.0000  0.0000  0.0000 -0.0000
    19. (1.99979) CR ( 2)Cl   3           s(100.00%)p 0.00(  0.00%)
                                            0.0000  1.0000 -0.0004  0.0000  0.0000
                                           -0.0000 -0.0000 -0.0001  0.0000  0.0000
                                           -0.0000  0.0000  0.0004 -0.0000 -0.0000
                                            0.0000 -0.0000 -0.0000 -0.0000  0.0000
                                           -0.0000  0.0000 -0.0000 -0.0000 -0.0000
                                            0.0000  0.0000  0.0000  0.0000  0.0000
                                            0.0000 -0.0000 -0.0000  0.0000 -0.0000
                                           -0.0000  0.0000 -0.0000  0.0000 -0.0000
                                           -0.0000  0.0000 -0.0000  0.0000  0.0000
                                           -0.0000  0.0000 -0.0000 -0.0000  0.0000
    20. (2.00003) CR ( 3)Cl   3           s(  0.00%)p 1.00(100.00%)
                                            0.0000 -0.0000 -0.0000  0.0000  0.0000
                                           -0.0000  1.0000  0.0001  0.0000  0.0000
                                           -0.0000  0.0000  0.0001 -0.0000 -0.0000
                                            0.0000 -0.0000 -0.0000  0.0000  0.0000
                                            0.0000  0.0000  0.0000  0.0000 -0.0000
                                            0.0000  0.0000  0.0000 -0.0000  0.0000
                                            0.0000 -0.0000 -0.0000  0.0000 -0.0000
                                           -0.0000 -0.0000  0.0000  0.0000 -0.0000
                                           -0.0000  0.0000  0.0000 -0.0000  0.0000
                                           -0.0000  0.0000 -0.0000 -0.0000  0.0000
    21. (1.99996) CR ( 4)Cl   3           s(  0.00%)p 1.00(100.00%)
                                           -0.0000  0.0000  0.0001 -0.0000 -0.0000
                                            0.0000  0.0000  0.0002 -0.0000 -0.0000
                                            0.0000  1.0000 -0.0003  0.0000  0.0000
                                           -0.0000 -0.0000  0.0000  0.0000 -0.0000
                                            0.0000 -0.0000  0.0000  0.0000  0.0000
                                           -0.0000 -0.0000 -0.0000 -0.0000 -0.0000
                                           -0.0000  0.0000 -0.0000 -0.0000  0.0000
                                            0.0000 -0.0000  0.0000 -0.0000  0.0000
                                            0.0000 -0.0000 -0.0000 -0.0000 -0.0000
                                            0.0000 -0.0000  0.0000  0.0000 -0.0000
    22. (2.00003) CR ( 5)Cl   3           s(  0.00%)p 1.00(100.00%)
                                           -0.0000 -0.0000 -0.0000  0.0000  0.0000
                                            0.0000 -0.0000  0.0000  0.0000 -0.0000
                                            0.0000 -0.0000  0.0000 -0.0000  0.0000
                                            0.0000  1.0000  0.0002  0.0000  0.0000
                                           -0.0000 -0.0000 -0.0000 -0.0000 -0.0000
                                           -0.0000 -0.0000  0.0000  0.0000  0.0000
                                            0.0000 -0.0000 -0.0000  0.0000  0.0000
                                            0.0000 -0.0000  0.0000  0.0000 -0.0000
                                           -0.0000  0.0000 -0.0000  0.0000 -0.0000
                                            0.0000 -0.0000  0.0000 -0.0000 -0.0000
    23. (1.96622) LP ( 1) O   1           s( 60.70%)p 0.65( 39.20%)d 0.00(  0.09%)
                                                  f 0.00(  0.00%)
                                            0.0002  0.7790  0.0118  0.0085 -0.0015
                                           -0.4985 -0.0075 -0.0046 -0.0011 -0.3729
                                           -0.0046 -0.0054 -0.0025 -0.0656 -0.0010
                                           -0.0006 -0.0001 -0.0271 -0.0021  0.0048
                                           -0.0033 -0.0001  0.0003 -0.0035 -0.0004
                                            0.0003 -0.0039  0.0007  0.0020  0.0115
                                            0.0007  0.0008  0.0008 -0.0001  0.0026
                                           -0.0003  0.0006  0.0005  0.0002 -0.0003
                                           -0.0004  0.0001  0.0052 -0.0028 -0.0002
                                            0.0007
    24. (1.95222) LP ( 2) O   1           s(  0.00%)p 1.00( 99.80%)d 0.00(  0.18%)
                                                  f 0.00(  0.01%)
                                           -0.0000  0.0052  0.0012  0.0007 -0.0001
                                           -0.1010 -0.0021 -0.0005 -0.0006 -0.0288
                                           -0.0005 -0.0001 -0.0004  0.9933  0.0189
                                            0.0060  0.0073 -0.0041 -0.0002  0.0008
                                            0.0176 -0.0050 -0.0111  0.0355  0.0040
                                           -0.0033 -0.0012  0.0006  0.0011  0.0056
                                           -0.0002 -0.0014 -0.0100  0.0007  0.0018
                                            0.0001  0.0002 -0.0001 -0.0040  0.0024
                                           -0.0030 -0.0001  0.0005 -0.0004  0.0005
                                           -0.0001
    25. (1.97795) LP ( 1)Br   2           s( 91.13%)p 0.10(  8.87%)d 0.00(  0.00%)
                                                  f 0.00(  0.00%)
                                           -0.0000 -0.0000  0.0002  0.9546 -0.0002
                                            0.0009  0.0006 -0.0000  0.0001  0.2972
                                           -0.0016  0.0007  0.0000  0.0000 -0.0000
                                           -0.0074 -0.0002 -0.0001 -0.0001  0.0000
                                           -0.0000 -0.0186  0.0001 -0.0000  0.0000
                                           -0.0000  0.0001 -0.0001  0.0001  0.0000
                                            0.0004  0.0000  0.0001  0.0000 -0.0000
                                            0.0000 -0.0000 -0.0000 -0.0008 -0.0001
                                           -0.0003  0.0000  0.0006  0.0000  0.0003
                                            0.0000 -0.0000  0.0001  0.0001  0.0000
                                            0.0000 -0.0000  0.0000  0.0000  0.0000
                                           -0.0002 -0.0001 -0.0000 -0.0001
    26. (1.95404) LP ( 2)Br   2           s(  0.00%)p 1.00( 99.99%)d 0.00(  0.01%)
                                                  f 0.00(  0.00%)
                                           -0.0000 -0.0000 -0.0000  0.0002 -0.0003
                                            0.0002  0.0006 -0.0000  0.0000  0.0606
                                            0.0001 -0.0001  0.0001  0.0000 -0.0000
                                           -0.0459 -0.0002 -0.0001  0.0000 -0.0000
                                            0.0002  0.9970  0.0035  0.0019 -0.0003
                                           -0.0000  0.0005 -0.0001 -0.0000  0.0000
                                           -0.0094  0.0018  0.0015  0.0000 -0.0002
                                            0.0002 -0.0001  0.0000 -0.0007  0.0001
                                            0.0002 -0.0000  0.0014 -0.0004  0.0002
                                           -0.0023 -0.0012 -0.0007 -0.0004  0.0000
                                            0.0000  0.0029  0.0014 -0.0000 -0.0001
                                            0.0002  0.0000 -0.0002 -0.0001
    27. (1.95371) LP ( 3)Br   2           s(  0.01%)p 1.00( 99.98%)d 0.00(  0.01%)
                                                  f 0.00(  0.00%)
                                           -0.0000 -0.0000 -0.0000  0.0075  0.0004
                                           -0.0001 -0.0007 -0.0000  0.0000  0.0039
                                           -0.0000  0.0001 -0.0001 -0.0000  0.0002
                                            0.9988  0.0035  0.0017 -0.0004 -0.0000
                                            0.0000  0.0457  0.0002  0.0001  0.0000
                                            0.0000 -0.0101  0.0015  0.0018  0.0000
                                           -0.0004  0.0001  0.0000 -0.0000  0.0008
                                           -0.0003  0.0002 -0.0000  0.0009 -0.0006
                                            0.0007  0.0000  0.0002 -0.0001  0.0001
                                           -0.0001 -0.0001  0.0000  0.0001 -0.0009
                                           -0.0005  0.0002  0.0001 -0.0004 -0.0002
                                           -0.0002 -0.0001  0.0035  0.0016
    28. (1.83640) LP ( 4)Br   2           s(  8.86%)p10.28( 91.07%)d 0.01(  0.06%)
                                                  f 0.00(  0.01%)
                                           -0.0000  0.0000  0.0000  0.2977  0.0006
                                           -0.0033 -0.0019 -0.0000  0.0000 -0.9525
                                            0.0073  0.0042 -0.0007 -0.0000  0.0000
                                           -0.0012  0.0003  0.0004  0.0002 -0.0000
                                            0.0000  0.0578  0.0001 -0.0002  0.0002
                                            0.0000  0.0000  0.0001 -0.0005  0.0000
                                           -0.0035  0.0009 -0.0003  0.0000 -0.0000
                                            0.0000 -0.0000 -0.0000  0.0207 -0.0040
                                           -0.0012 -0.0000 -0.0128  0.0027 -0.0003
                                           -0.0008 -0.0003  0.0049  0.0025 -0.0000
                                           -0.0001  0.0010  0.0004  0.0000  0.0000
                                           -0.0060 -0.0025 -0.0000  0.0002
    29. (1.97372) LP ( 1)Cl   3           s( 91.55%)p 0.09(  8.42%)d 0.00(  0.02%)
                                                  f 0.00(  0.00%)
                                            0.0000  0.0003  0.9568  0.0064  0.0011
                                           -0.0003 -0.0000 -0.0343  0.0003  0.0006
                                            0.0002  0.0000  0.2881 -0.0064 -0.0030
                                            0.0014 -0.0000  0.0049  0.0001  0.0000
                                            0.0000  0.0056  0.0002  0.0004  0.0001
                                            0.0000 -0.0000  0.0001  0.0001  0.0001
                                            0.0109 -0.0006 -0.0003  0.0077  0.0005
                                            0.0004 -0.0001  0.0000  0.0004  0.0001
                                           -0.0021 -0.0004  0.0000 -0.0000 -0.0001
                                            0.0001  0.0018  0.0001 -0.0030  0.0002
    30. (1.95605) LP ( 2)Cl   3           s(  0.00%)p 1.00( 99.94%)d 0.00(  0.05%)
                                                  f 0.00(  0.01%)
                                            0.0000  0.0000  0.0026 -0.0008 -0.0004
                                           -0.0003 -0.0000  0.0660  0.0009  0.0004
                                           -0.0000 -0.0000  0.0162  0.0002 -0.0000
                                            0.0001  0.0002 -0.9973 -0.0152 -0.0051
                                            0.0023  0.0006  0.0011  0.0005  0.0051
                                            0.0069  0.0027 -0.0070 -0.0165 -0.0080
                                           -0.0005 -0.0006 -0.0003 -0.0001 -0.0001
                                           -0.0001  0.0055 -0.0010 -0.0004  0.0002
                                            0.0001 -0.0001  0.0054 -0.0006  0.0037
                                           -0.0011 -0.0003 -0.0000 -0.0004  0.0001
    31. (1.95468) LP ( 3)Cl   3           s(  0.13%)p99.99( 99.82%)d 0.29(  0.04%)
                                                  f 0.06(  0.01%)
                                            0.0000 -0.0000  0.0358  0.0058  0.0039
                                            0.0018  0.0002 -0.9690 -0.0126 -0.0014
                                           -0.0000  0.0001 -0.2336 -0.0033 -0.0006
                                           -0.0007  0.0000 -0.0678 -0.0011 -0.0002
                                            0.0001  0.0042 -0.0115 -0.0058 -0.0001
                                            0.0003  0.0002  0.0003 -0.0009 -0.0005
                                            0.0063  0.0110  0.0061 -0.0007 -0.0026
                                           -0.0003  0.0005 -0.0001  0.0023 -0.0003
                                            0.0007  0.0002  0.0002  0.0001  0.0003
                                           -0.0001  0.0058 -0.0009  0.0065 -0.0011
    32. (0.01976) RY*( 1) O   1           s(  0.01%)p 1.00( 98.73%)d 0.01(  1.21%)
                                                  f 0.00(  0.05%)
                                           -0.0000  0.0000  0.0093  0.0009  0.0000
                                            0.0021 -0.0975  0.0033  0.0023  0.0012
                                           -0.0272  0.0010 -0.0003 -0.0232  0.9874
                                           -0.0376 -0.0126 -0.0104 -0.0020  0.0004
                                            0.0428 -0.0076 -0.0175  0.0941  0.0264
                                            0.0055 -0.0020  0.0015  0.0017  0.0137
                                            0.0009 -0.0012 -0.0121  0.0106  0.0013
                                           -0.0013  0.0005 -0.0003 -0.0114  0.0096
                                           -0.0028  0.0034  0.0017 -0.0014  0.0008
                                           -0.0009
    33. (0.01630) RY*( 2) O   1           s( 30.33%)p 2.23( 67.57%)d 0.06(  1.90%)
                                                  f 0.01(  0.19%)
                                           -0.0000  0.0034  0.5496 -0.0345 -0.0072
                                            0.0099 -0.6394  0.0029  0.0525  0.0402
                                           -0.5044 -0.0045  0.0352  0.0014 -0.0821
                                            0.0014  0.0059 -0.1195 -0.0258 -0.0096
                                           -0.0062  0.0013  0.0026 -0.0169 -0.0036
                                           -0.0015  0.0299  0.0076 -0.0003  0.0514
                                            0.0038 -0.0040 -0.0017  0.0003 -0.0024
                                           -0.0024 -0.0047  0.0002  0.0059 -0.0029
                                           -0.0013  0.0009  0.0375 -0.0178 -0.0100
                                            0.0034
    34. (0.00808) RY*( 3) O   1           s( 18.39%)p 0.62( 11.49%)d 3.75( 68.95%)
                                                  f 0.06(  1.17%)
                                           -0.0000  0.0165  0.4224 -0.0698  0.0170
                                            0.0154  0.3115 -0.0292  0.0694 -0.0157
                                           -0.0891  0.0016  0.0565  0.0004  0.0237
                                           -0.0022  0.0019  0.6270  0.0083  0.0082
                                           -0.0057  0.0019 -0.0005  0.0378  0.0022
                                            0.0019 -0.4959 -0.0111 -0.0376  0.2173
                                           -0.0099  0.0059 -0.0035  0.0018  0.0030
                                           -0.0065 -0.0221  0.0135 -0.0043  0.0017
                                            0.0064 -0.0032 -0.0923  0.0397 -0.0254
                                            0.0124
    35. (0.00706) RY*( 4) O   1           s(  0.02%)p15.21(  0.35%)d99.99( 97.90%)
                                                  f74.77(  1.73%)
[...]
                                           -0.0019  0.0508  0.0389  0.2402  0.1204
                                           -0.0134  0.0250  0.0345  0.0066 -0.1133
                                            0.0919  0.1667 -0.0867
   162. (0.00036) RY*( 8) H   4           s( 19.16%)p 2.97( 56.99%)d 1.24( 23.84%)
                                           -0.0039 -0.0106  0.4221  0.1154 -0.0661
                                            0.0152  0.3545 -0.0712  0.5952  0.2201
                                           -0.0280  0.1675  0.0552  0.3386 -0.1159
                                            0.0413  0.0047 -0.0378 -0.0079 -0.2070
                                            0.1947  0.1135 -0.1162
   163. (0.00032) RY*( 9) H   4           s(  1.46%)p62.22( 91.03%)d 5.13(  7.51%)
                                           -0.0022 -0.0124  0.1131  0.0409 -0.0240
                                            0.0355  0.0028 -0.0185  0.0786  0.0504
                                            0.1207 -0.9374  0.0783  0.0722 -0.0087
                                           -0.0488  0.2277  0.0515 -0.0371 -0.0860
                                           -0.0082  0.0536  0.0346
   164. (0.00026) RY*(10) H   4           s(  2.44%)p 9.70( 23.64%)d30.34( 73.92%)
                                            0.0121  0.0488  0.0101  0.1474  0.0284
                                            0.2016 -0.4176 -0.0918 -0.0075  0.0848
                                           -0.0124  0.0622 -0.0286  0.1625 -0.0303
                                            0.0023 -0.0157  0.0335 -0.0091 -0.6446
                                           -0.0909 -0.5096  0.1641
   165. (0.00024) RY*(11) H   4           s(  2.29%)p 1.06(  2.43%)d41.58( 95.28%)
                                            0.0027  0.0010  0.1109  0.1030 -0.0052
                                            0.0782 -0.0208  0.0443  0.0657 -0.0724
                                           -0.0112  0.0772 -0.0084 -0.2603 -0.0296
                                           -0.1449  0.0075  0.9037 -0.1485 -0.0759
                                            0.0132  0.1287 -0.0435
   166. (0.00022) RY*(12) H   4           s(  8.99%)p 3.17( 28.50%)d 6.95( 62.50%)
                                            0.0154  0.0229  0.1573  0.2539  0.0048
                                            0.3477 -0.3605  0.0603  0.0888 -0.1322
                                            0.0163  0.0618  0.0317 -0.2751 -0.0032
                                           -0.0346 -0.0052 -0.2912  0.0511 -0.1824
                                           -0.1470  0.6370  0.0127
   167. (0.00019) RY*(13) H   4           s(  8.93%)p 1.64( 14.65%)d 8.56( 76.42%)
                                           -0.0056 -0.0292  0.2814  0.0960 -0.0233
                                           -0.1167  0.2968  0.0626 -0.0603 -0.1868
                                           -0.0014 -0.0404  0.0122 -0.6939 -0.0916
                                            0.0224  0.0455 -0.2157  0.0375 -0.2348
                                            0.1977 -0.3264 -0.1515
   168. (0.00013) RY*(14) H   4           s(  0.20%)p99.99( 38.53%)d99.99( 61.27%)
                                           -0.0010 -0.0028  0.0204  0.0399  0.0091
                                           -0.0022  0.0254  0.0007 -0.0003  0.0271
                                           -0.0223 -0.2144 -0.5809 -0.0187  0.0113
                                            0.4325 -0.6371  0.0601  0.0113 -0.0651
                                            0.0254  0.0760 -0.0698
   169. (0.00013) RY*(15) H   4           s( 67.22%)p 0.17( 11.61%)d 0.31( 21.16%)
                                           -0.0054 -0.0393 -0.0448  0.8177 -0.0158
                                           -0.2382 -0.1030  0.0110  0.1383  0.1703
                                           -0.0100 -0.0054  0.0120 -0.0525  0.2340
                                            0.0154 -0.0035 -0.0125  0.0095  0.3335
                                           -0.0920 -0.1798  0.0397
   170. (0.00010) RY*(16) H   4           s(  7.38%)p 3.91( 28.86%)d 8.63( 63.76%)
   171. (0.00005) RY*(17) H   4           s(  0.79%)p43.59( 34.31%)d82.45( 64.90%)
   172. (0.00006) RY*(18) H   4           s( 20.59%)p 1.74( 35.87%)d 2.11( 43.53%)
   173. (0.00006) RY*(19) H   4           s(  0.00%)p 1.00(  0.17%)d99.99( 99.83%)
   174. (0.00004) RY*(20) H   4           s( 19.27%)p 0.52(  9.93%)d 3.67( 70.80%)
   175. (0.00005) RY*(21) H   4           s(  1.78%)p 3.78(  6.75%)d51.27( 91.47%)
   176. (0.00004) RY*(22) H   4           s(  5.76%)p 8.07( 46.48%)d 8.29( 47.76%)
   177. (0.05816) BD*( 1) O   1 -Cl   3  
                ( 41.15%)   0.6415* O   1 s( 10.51%)p 8.47( 88.96%)d 0.05(  0.51%)
                                                  f 0.00(  0.02%)
                                           -0.0003 -0.3210  0.0426  0.0148  0.0006
                                            0.1910 -0.0349 -0.0073 -0.0025 -0.9225
                                            0.0249  0.0089  0.0112 -0.0057 -0.0027
                                           -0.0005  0.0001  0.0049  0.0006  0.0032
                                           -0.0013 -0.0001  0.0003 -0.0029 -0.0004
                                            0.0001  0.0573  0.0046  0.0011  0.0420
                                            0.0034 -0.0007  0.0000  0.0000 -0.0028
                                            0.0004  0.0109 -0.0011  0.0005 -0.0003
                                           -0.0009  0.0002 -0.0035 -0.0021  0.0049
                                           -0.0006
                ( 58.85%)  -0.7671*Cl   3 s(  8.57%)p10.52( 90.16%)d 0.13(  1.16%)
                                                  f 0.01(  0.11%)
                                            0.0000 -0.0005 -0.2874  0.0549  0.0100
                                           -0.0026 -0.0001 -0.2310  0.0133  0.0059
                                           -0.0019  0.0004  0.9186 -0.0637 -0.0129
                                            0.0040 -0.0000 -0.0012 -0.0000  0.0004
                                           -0.0001  0.0519 -0.0048  0.0004 -0.0013
                                            0.0000  0.0002  0.0017  0.0002  0.0001
                                            0.0741 -0.0095 -0.0007  0.0567 -0.0061
                                           -0.0011  0.0002 -0.0000  0.0054 -0.0009
                                           -0.0204  0.0030 -0.0000  0.0001  0.0003
                                           -0.0002  0.0177 -0.0020 -0.0186  0.0020
   178. (0.13541) BD*( 1) O   1 - H   4  
                ( 19.94%)   0.4465* O   1 s( 28.93%)p 2.44( 70.58%)d 0.02(  0.47%)
                                                  f 0.00(  0.01%)
                                           -0.0003 -0.5378  0.0063  0.0083 -0.0022
                                           -0.8358  0.0077  0.0068  0.0050  0.0125
                                           -0.0151 -0.0014 -0.0024 -0.0819  0.0001
                                            0.0007  0.0009 -0.0266 -0.0049 -0.0010
                                           -0.0115 -0.0007  0.0005 -0.0028 -0.0005
                                           -0.0001 -0.0512 -0.0040 -0.0014  0.0349
                                            0.0015 -0.0031  0.0020  0.0000  0.0086
                                            0.0002  0.0003 -0.0005 -0.0012 -0.0004
                                           -0.0001  0.0002 -0.0010 -0.0029  0.0018
                                            0.0006
                ( 80.06%)  -0.8948* H   4 s( 99.82%)p 0.00(  0.18%)d 0.00(  0.00%)
                                           -0.9980 -0.0458 -0.0042  0.0019 -0.0148
                                            0.0338 -0.0112 -0.0141 -0.0018 -0.0043
                                           -0.0056  0.0036 -0.0001 -0.0013 -0.0019
                                            0.0005  0.0002 -0.0003 -0.0002 -0.0024
                                           -0.0001  0.0004  0.0034


 NHO Directionality and "Bond Bending" (deviations from line of nuclear centers)

         [Thresholds for printing:  angular deviation  >  1.0 degree]
                                    hybrid p-character > 25.0%
                                    orbital occupancy  >  0.10e

                                Line of Centers        Hybrid 1              Hybrid 2
                                ---------------  -------------------   ------------------
                NBO               Theta   Phi    Theta   Phi    Dev    Theta   Phi    Dev
 ========================================================================================
     1. BD (   1) O   1 -Cl   3    90.0  103.4    89.4   99.5   4.0      --     --    --
    23. LP (   1) O   1             --     --     96.0  217.0   --       --     --    --
    24. LP (   2) O   1             --     --      6.0  195.9   --       --     --    --
    26. LP (   2)Br   2             --     --      4.3  322.7   --       --     --    --
    27. LP (   3)Br   2             --     --     87.4   89.8   --       --     --    --
    28. LP (   4)Br   2             --     --     86.5  180.0   --       --     --    --
    30. LP (   2)Cl   3             --     --    176.1   13.8   --       --     --    --
    31. LP (   3)Cl   3             --     --     93.9  193.6   --       --     --    --


 Natural Bond Orbitals (Summary):

           NBO                  Occupancy  
 -----------------------------------------------
 Molecular unit  1  (HOCl)
     1. BD (   1) O   1 -Cl   3          1.93933
     2. BD (   1) O   1 - H   4          1.96420
     3. CR (   1) O   1                  1.99969
    18. CR (   1)Cl   3                  2.00000
    19. CR (   2)Cl   3                  1.99979
    20. CR (   3)Cl   3                  2.00003
    21. CR (   4)Cl   3                  1.99996
    22. CR (   5)Cl   3                  2.00003
    23. LP (   1) O   1                  1.96622
    24. LP (   2) O   1                  1.95222
    29. LP (   1)Cl   3                  1.97372
    30. LP (   2)Cl   3                  1.95605
    31. LP (   3)Cl   3                  1.95468
    32. RY*(   1) O   1                  0.01976
    33. RY*(   2) O   1                  0.01630
    34. RY*(   3) O   1                  0.00808
    35. RY*(   4) O   1                  0.00706
    36. RY*(   5) O   1                  0.00637
    37. RY*(   6) O   1                  0.00620
    38. RY*(   7) O   1                  0.00574
    39. RY*(   8) O   1                  0.00350
    40. RY*(   9) O   1                  0.00247
    41. RY*(  10) O   1                  0.00081
    42. RY*(  11) O   1                  0.00065
    43. RY*(  12) O   1                  0.00062
    44. RY*(  13) O   1                  0.00059
    45. RY*(  14) O   1                  0.00051
    46. RY*(  15) O   1                  0.00050
    47. RY*(  16) O   1                  0.00048
    48. RY*(  17) O   1                  0.00047
    49. RY*(  18) O   1                  0.00048
    50. RY*(  19) O   1                  0.00045
    51. RY*(  20) O   1                  0.00044
    52. RY*(  21) O   1                  0.00045
    53. RY*(  22) O   1                  0.00042
    54. RY*(  23) O   1                  0.00036
    55. RY*(  24) O   1                  0.00031
    56. RY*(  25) O   1                  0.00025
    57. RY*(  26) O   1                  0.00019
    58. RY*(  27) O   1                  0.00012
    59. RY*(  28) O   1                  0.00013
    60. RY*(  29) O   1                  0.00013
    61. RY*(  30) O   1                  0.00009
    62. RY*(  31) O   1                  0.00009
    63. RY*(  32) O   1                  0.00008
    64. RY*(  33) O   1                  0.00007
    65. RY*(  34) O   1                  0.00008
    66. RY*(  35) O   1                  0.00008
    67. RY*(  36) O   1                  0.00005
    68. RY*(  37) O   1                  0.00006
    69. RY*(  38) O   1                  0.00006
    70. RY*(  39) O   1                  0.00004
    71. RY*(  40) O   1                  0.00002
    72. RY*(  41) O   1                 -0.00001
   114. RY*(   1)Cl   3                  0.02269
   115. RY*(   2)Cl   3                  0.01758
   116. RY*(   3)Cl   3                  0.01678
   117. RY*(   4)Cl   3                  0.01667
   118. RY*(   5)Cl   3                  0.01166
   119. RY*(   6)Cl   3                  0.00929
   120. RY*(   7)Cl   3                  0.00907
   121. RY*(   8)Cl   3                  0.00631
   122. RY*(   9)Cl   3                  0.00168
   123. RY*(  10)Cl   3                  0.00127
   124. RY*(  11)Cl   3                  0.00127
   125. RY*(  12)Cl   3                  0.00119
   126. RY*(  13)Cl   3                  0.00120
   127. RY*(  14)Cl   3                  0.00116
   128. RY*(  15)Cl   3                  0.00111
   129. RY*(  16)Cl   3                  0.00095
   130. RY*(  17)Cl   3                  0.00077
   131. RY*(  18)Cl   3                  0.00076
   132. RY*(  19)Cl   3                  0.00064
   133. RY*(  20)Cl   3                  0.00056
   134. RY*(  21)Cl   3                  0.00044
   135. RY*(  22)Cl   3                  0.00036
   136. RY*(  23)Cl   3                  0.00036
   137. RY*(  24)Cl   3                  0.00031
   138. RY*(  25)Cl   3                  0.00018
   139. RY*(  26)Cl   3                  0.00015
   140. RY*(  27)Cl   3                  0.00016
   141. RY*(  28)Cl   3                  0.00013
   142. RY*(  29)Cl   3                  0.00012
   143. RY*(  30)Cl   3                  0.00013
   144. RY*(  31)Cl   3                  0.00011
   145. RY*(  32)Cl   3                  0.00010
   146. RY*(  33)Cl   3                  0.00010
   147. RY*(  34)Cl   3                  0.00010
   148. RY*(  35)Cl   3                  0.00010
   149. RY*(  36)Cl   3                  0.00008
   150. RY*(  37)Cl   3                  0.00007
   151. RY*(  38)Cl   3                  0.00004
   152. RY*(  39)Cl   3                  0.00003
   153. RY*(  40)Cl   3                  0.00004
   154. RY*(  41)Cl   3                 -0.00000
   155. RY*(   1) H   4                  0.01070
   156. RY*(   2) H   4                  0.00560
   157. RY*(   3) H   4                  0.00488
   158. RY*(   4) H   4                  0.00384
   159. RY*(   5) H   4                  0.00075
   160. RY*(   6) H   4                  0.00057
   161. RY*(   7) H   4                  0.00046
   162. RY*(   8) H   4                  0.00036
   163. RY*(   9) H   4                  0.00032
   164. RY*(  10) H   4                  0.00026
   165. RY*(  11) H   4                  0.00024
   166. RY*(  12) H   4                  0.00022
   167. RY*(  13) H   4                  0.00019
   168. RY*(  14) H   4                  0.00013
   169. RY*(  15) H   4                  0.00013
   170. RY*(  16) H   4                  0.00010
   171. RY*(  17) H   4                  0.00005
   172. RY*(  18) H   4                  0.00006
   173. RY*(  19) H   4                  0.00006
   174. RY*(  20) H   4                  0.00004
   175. RY*(  21) H   4                  0.00005
   176. RY*(  22) H   4                  0.00004
   177. BD*(   1) O   1 -Cl   3          0.05816
   178. BD*(   1) O   1 - H   4          0.13541
       -------------------------------
              Total Lewis   25.70591  ( 98.3438%)
        Valence non-Lewis    0.19357  (  0.7405%)
        Rydberg non-Lewis    0.23935  (  0.9157%)
       -------------------------------
            Total unit  1   26.13883  (100.0000%)
           Charge unit  1   -0.13883

 Molecular unit  2  (Br)
     4. CR (   1)Br   2                  2.00000
     5. CR (   2)Br   2                  2.00000
     6. CR (   3)Br   2                  1.99982
     7. CR (   4)Br   2                  2.00000
     8. CR (   5)Br   2                  1.99991
     9. CR (   6)Br   2                  2.00000
    10. CR (   7)Br   2                  2.00000
    11. CR (   8)Br   2                  2.00000
    12. CR (   9)Br   2                  2.00000
    13. CR (  10)Br   2                  1.99766
    14. CR (  11)Br   2                  1.99766
    15. CR (  12)Br   2                  1.99769
    16. CR (  13)Br   2                  1.99762
    17. CR (  14)Br   2                  1.99766
    25. LP (   1)Br   2                  1.97795
    26. LP (   2)Br   2                  1.95404
    27. LP (   3)Br   2                  1.95371
    28. LP (   4)Br   2                  1.83640
    73. RY*(   1)Br   2                  0.01874
    74. RY*(   2)Br   2                  0.01867
    75. RY*(   3)Br   2                  0.01861
    76. RY*(   4)Br   2                  0.01860
    77. RY*(   5)Br   2                  0.01777
    78. RY*(   6)Br   2                  0.01113
    79. RY*(   7)Br   2                  0.01106
    80. RY*(   8)Br   2                  0.00899
    81. RY*(   9)Br   2                  0.00215
    82. RY*(  10)Br   2                  0.00179
    83. RY*(  11)Br   2                  0.00178
    84. RY*(  12)Br   2                  0.00175
    85. RY*(  13)Br   2                  0.00174
    86. RY*(  14)Br   2                  0.00175
    87. RY*(  15)Br   2                  0.00175
    88. RY*(  16)Br   2                  0.00174
    89. RY*(  17)Br   2                  0.00174
    90. RY*(  18)Br   2                  0.00175
    91. RY*(  19)Br   2                  0.00140
    92. RY*(  20)Br   2                  0.00135
    93. RY*(  21)Br   2                  0.00116
    94. RY*(  22)Br   2                  0.00079
    95. RY*(  23)Br   2                  0.00078
    96. RY*(  24)Br   2                  0.00071
    97. RY*(  25)Br   2                  0.00037
    98. RY*(  26)Br   2                  0.00028
    99. RY*(  27)Br   2                  0.00028
   100. RY*(  28)Br   2                  0.00025
   101. RY*(  29)Br   2                  0.00024
   102. RY*(  30)Br   2                  0.00025
   103. RY*(  31)Br   2                  0.00024
   104. RY*(  32)Br   2                  0.00025
   105. RY*(  33)Br   2                  0.00022
   106. RY*(  34)Br   2                  0.00022
   107. RY*(  35)Br   2                  0.00017
   108. RY*(  36)Br   2                  0.00015
   109. RY*(  37)Br   2                  0.00015
   110. RY*(  38)Br   2                  0.00010
   111. RY*(  39)Br   2                  0.00007
   112. RY*(  40)Br   2                  0.00007
   113. RY*(  41)Br   2                  0.00004
       -------------------------------
              Total Lewis   35.71013  ( 99.5788%)
        Valence non-Lewis    0.00000  (  0.0000%)
        Rydberg non-Lewis    0.15105  (  0.4212%)
       -------------------------------
            Total unit  2   35.86117  (100.0000%)
           Charge unit  2   -0.86117
 Leave Link  607 at Thu Sep 23 16:32:59 2021, MaxMem= 16106127360 cpu:              79.4 elap:               2.9
 (Enter /sw/contrib/gaussian/g16/B01/g16/l9999.exe)
 1\1\GINC-N2112\SP\RMP2-FC\Aug-CC-pVTZ\Br1Cl1H1O1(1-)\CGAVINH\23-Sep-20
 21\0\\#p pop=NBO SP NoSymm mp2/aug-cc-pvtz density=current\\title\\-1,
 1\O,0,0.,0.,0.\Br,0,3.07381747,0.,0.\Cl,0,-0.390920758,1.638332522,0.\
 H,0,1.01327944,0.,0.08865046\\Version=ES64L-G16RevB.01\HF=-3107.478208
 1\MP2=-3108.1824521\RMSD=4.950e-09\Dipole=-0.9749297,0.5999989,0.02522
 41\Quadrupole=-17.7925203,8.8287556,8.9637648,0.3265341,0.0116289,-0.0
 203854\PG=C01 [X(Br1Cl1H1O1)]\\@


 WISDOM IS KNOWING WHAT TO DO,
 SKILL IS KNOWING HOW TO DO IT,
 AND VIRTUE IS NOT DOING IT.
 Job cpu time:       0 days  0 hours  6 minutes 17.5 seconds.
 Elapsed time:       0 days  0 hours  0 minutes 20.4 seconds.
 File lengths (MBytes):  RWF=     15 Int=      0 D2E=      0 Chk=      8 Scr=      1
 Normal termination of Gaussian 16 at Thu Sep 23 16:32:59 2021.
