title                                                                   
SP        RMP2-FC                                                     Aug-CC-pVTZ         
Number of atoms                            I                4
Info1-9                                    I   N=           9
          40          13           0           0           0         110
           1           2           1
Full Title                                 C   N=           1
title       
Route                                      C   N=           5
#p pop=NBO SP NoSymm mp2/aug-cc-pvtz density=current        
Charge                                     I               -1
Multiplicity                               I                1
Number of electrons                        I               62
Number of alpha electrons                  I               31
Number of beta electrons                   I               31
Number of basis functions                  I              178
Number of independent functions            I              178
Number of point charges in /Mol/           I                0
Number of translation vectors              I                0
Atomic numbers                             I   N=           4
           8          35          17           1
Nuclear charges                            R   N=           4
  8.00000000E+00  3.50000000E+01  1.70000000E+01  1.00000000E+00
Current cartesian coordinates              R   N=          12
  0.00000000E+00  0.00000000E+00  0.00000000E+00  5.80867318E+00  0.00000000E+00
  0.00000000E+00 -7.38733169E-01  3.09599977E+00  0.00000000E+00  1.91482063E+00
  0.00000000E+00  1.67525090E-01
Number of symbols in /Mol/                 I                0
Force Field                                I                0
Atom Types                                 C   N=           4
                                                
Int Atom Types                             I   N=           4
           0           0           0           0
MM charges                                 R   N=           4
  0.00000000E+00  0.00000000E+00  0.00000000E+00  0.00000000E+00
Integer atomic weights                     I   N=           4
          16          79          35           1
Real atomic weights                        R   N=           4
  1.59949146E+01  7.89183361E+01  3.49688527E+01  1.00782504E+00
Atom fragment info                         I   N=           4
           0           0           0           0
Atom residue num                           I   N=           4
           0           0           0           0
Nuclear spins                              I   N=           4
           0           3           3           1
Nuclear ZEff                               R   N=           4
 -5.60000000E+00 -2.45000000E+01 -1.42400000E+01 -1.00000000E+00
Nuclear ZNuc                               R   N=           4
  8.00000000E+00  3.50000000E+01  1.70000000E+01  1.00000000E+00
Nuclear QMom                               R   N=           4
  0.00000000E+00  3.13000000E+01 -8.16500000E+00  0.00000000E+00
Nuclear GFac                               R   N=           4
  0.00000000E+00  2.10639900E+00  8.21874000E-01  2.79284600E+00
MicOpt                                     I   N=           4
          -1          -1          -1          -1
Number of residues                         I                0
Number of secondary structures             I                0
Number of contracted shells                I               58
Number of primitive shells                 I              180
Pure/Cartesian d shells                    I                0
Pure/Cartesian f shells                    I                0
Highest angular momentum                   I                3
Largest degree of contraction              I               15
Shell types                                I   N=          58
           0           0           0           0           0           1
           1           1           1          -2          -2          -2
          -3          -3           0           0           0           0
           0           0           0           1           1           1
           1           1           1          -2          -2          -2
          -2          -3          -3           0           0           0
           0           0           0           1           1           1
           1           1          -2          -2          -2          -3
          -3           0           0           0           0           1
           1           1          -2          -2
Number of primitives per shell             I   N=          58
           7           6           1           1           1           3
           1           1           1           1           1           1
           1           1          15          12          10          10
           1           1           1           9           9           8
           1           1           1           7           1           1
           1           1           1          11           9           8
           1           1           1           6           6           1
           1           1           1           1           1           1
           1           3           1           1           1           1
           1           1           1           1
Shell to atom map                          I   N=          58
           1           1           1           1           1           1
           1           1           1           1           1           1
           1           1           2           2           2           2
           2           2           2           2           2           2
           2           2           2           2           2           2
           2           2           2           3           3           3
           3           3           3           3           3           3
           3           3           3           3           3           3
           3           4           4           4           4           4
           4           4           4           4
Primitive exponents                        R   N=         180
  1.53300000E+04  2.29900000E+03  5.22400000E+02  1.47300000E+02  4.75500000E+01
  1.67600000E+01  6.20700000E+00  5.22400000E+02  1.47300000E+02  4.75500000E+01
  1.67600000E+01  6.20700000E+00  6.88200000E-01  1.75200000E+00  2.38400000E-01
  7.37600000E-02  3.44600000E+01  7.74900000E+00  2.28000000E+00  7.15600000E-01
  2.14000000E-01  5.97400000E-02  2.31400000E+00  6.45000000E-01  2.14000000E-01
  1.42800000E+00  5.00000000E-01  1.06390000E+07  1.59340000E+06  3.62610000E+05
  1.02700000E+05  3.35010000E+04  1.20930000E+04  4.71590000E+03  1.95560000E+03
  8.52610000E+02  3.87670000E+02  1.82680000E+02  8.82450000E+01  3.92630000E+01
  9.40570000E+00  1.89950000E+00  3.35010000E+04  1.20930000E+04  4.71590000E+03
  1.95560000E+03  8.52610000E+02  3.87670000E+02  1.82680000E+02  8.82450000E+01
  3.92630000E+01  1.92340000E+01  9.40570000E+00  1.89950000E+00  4.71590000E+03
  8.52610000E+02  3.87670000E+02  1.82680000E+02  8.82450000E+01  3.92630000E+01
  1.92340000E+01  9.40570000E+00  4.16010000E+00  1.89950000E+00  4.71590000E+03
  8.52610000E+02  3.87670000E+02  8.82450000E+01  3.92630000E+01  1.92340000E+01
  9.40570000E+00  4.16010000E+00  1.89950000E+00  3.01140000E-01  6.04720000E-01
  1.25150000E-01  4.55930000E-02  8.67650000E+03  2.05590000E+03  6.66230000E+02
  2.53100000E+02  1.06120000E+02  4.72420000E+01  2.18250000E+01  9.96840000E+00
  1.99820000E+00  8.67650000E+03  6.66230000E+02  2.53100000E+02  1.06120000E+02
  4.72420000E+01  2.18250000E+01  9.96840000E+00  4.51710000E+00  1.99820000E+00
  6.66230000E+02  1.06120000E+02  4.72420000E+01  2.18250000E+01  9.96840000E+00
  4.51710000E+00  1.99820000E+00  2.81450000E-01  7.09880000E-01  1.02040000E-01
  3.51420000E-02  4.03830000E+02  1.21170000E+02  4.63450000E+01  1.97210000E+01
  8.86240000E+00  3.99620000E+00  1.76360000E+00  7.06190000E-01  2.63900000E-01
  1.04700000E-01  5.51500000E-01  2.58000000E-01  4.56100000E+05  6.83300000E+04
  1.55500000E+04  4.40500000E+03  1.43900000E+03  5.20400000E+02  2.03100000E+02
  8.39600000E+01  3.62000000E+01  1.58300000E+01  6.33400000E+00  4.40500000E+03
  1.43900000E+03  5.20400000E+02  2.03100000E+02  8.39600000E+01  3.62000000E+01
  1.58300000E+01  6.33400000E+00  2.69400000E+00  1.43900000E+03  2.03100000E+02
  8.39600000E+01  3.62000000E+01  1.58300000E+01  6.33400000E+00  2.69400000E+00
  4.31300000E-01  9.76800000E-01  1.62500000E-01  5.91000000E-02  6.63300000E+02
  1.56800000E+02  4.99800000E+01  1.84200000E+01  7.24000000E+00  2.92200000E+00
  1.56800000E+02  4.99800000E+01  1.84200000E+01  7.24000000E+00  2.92200000E+00
  3.81800000E-01  1.02200000E+00  1.30100000E-01  4.19000000E-02  1.04600000E+00
  3.44000000E-01  1.35000000E-01  7.06000000E-01  3.12000000E-01  3.38700000E+01
  5.09500000E+00  1.15900000E+00  3.25800000E-01  1.02700000E-01  2.52600000E-02
  1.40700000E+00  3.88000000E-01  1.02000000E-01  1.05700000E+00  2.47000000E-01
Contraction coefficients                   R   N=         180
  5.19808943E-04  4.02025621E-03  2.07128267E-02  8.10105536E-02  2.35962985E-01
  4.42653446E-01  3.57064423E-01 -4.42115008E-05 -1.22591041E-03 -1.05517725E-02
 -6.74452633E-02 -1.71198607E-01  1.07329856E+00  1.00000000E+00  1.00000000E+00
  1.00000000E+00  4.11634896E-02  2.57762836E-01  8.02419274E-01  1.00000000E+00
  1.00000000E+00  1.00000000E+00  1.00000000E+00  1.00000000E+00  1.00000000E+00
  1.00000000E+00  1.00000000E+00  5.89674518E-06  4.60752740E-05  2.42070343E-04
  1.02205299E-03  3.70930499E-03  1.19720307E-02  3.46735726E-02  8.90729487E-02
  1.93334549E-01  3.20663919E-01  3.29580713E-01  1.49250790E-01  1.55764867E-02
  7.93747636E-04  2.65221775E-04 -5.68536848E-06 -3.52666574E-05 -3.27539377E-04
 -1.87629276E-03 -1.01414527E-02 -3.80702440E-02 -9.57536910E-02 -4.73840598E-02
  3.47577995E-01  5.73945554E-01  2.14222079E-01 -1.02928963E-02  7.18105399E-06
  1.20828593E-04  4.42852463E-04  3.05163083E-03  3.69571776E-03 -4.41792565E-02
 -2.33790718E-01 -4.89037435E-02  6.44374705E-01  5.44424123E-01  2.45813907E-06
  1.21542842E-05 -4.20845287E-05 -2.71411136E-04  1.88335237E-03  1.04009470E-02
  6.18574958E-03 -1.11556547E-01 -4.47970305E-01  1.18314733E+00  1.00000000E+00
  1.00000000E+00  1.00000000E+00  4.37079993E-04  3.79355062E-03  2.05440673E-02
  7.95459389E-02  2.18602295E-01  3.89303910E-01  3.60668111E-01  1.10677963E-01
 -1.34807692E-03  1.00103778E-06 -7.06114784E-05 -1.15560817E-03 -7.09755620E-03
 -2.44937124E-02 -1.01982599E-02  2.19854720E-01  5.15741017E-01  3.67494091E-01
 -2.33484889E-05 -3.27796533E-04  4.19438933E-04 -2.20691716E-03 -6.45224464E-03
 -4.68458724E-02 -4.09196666E-02  1.01815889E+00  1.00000000E+00  1.00000000E+00
  1.00000000E+00  1.51744738E-03  1.30531170E-02  5.97884776E-02  1.75631556E-01
  3.28164786E-01  3.96050780E-01  2.81996460E-01  1.00000000E+00  1.00000000E+00
  1.00000000E+00  1.00000000E+00  1.00000000E+00  4.93229477E-05  3.83207967E-04
  2.00947816E-03  8.38950124E-03  2.94843950E-02  8.78759948E-02  2.11589759E-01
  3.65611554E-01  3.41246350E-01  1.02162570E-01  2.14249949E-03 -2.21747925E-06
 -1.71189708E-04 -1.27922846E-03 -9.32956265E-03 -3.98910062E-02 -1.05536085E-01
  9.36202446E-03  5.10511140E-01  5.73150737E-01  4.03949245E-06  2.12481765E-04
  8.59484452E-04  4.63248159E-03  4.47343490E-04 -7.38438245E-02 -3.62271994E-01
  1.16620337E+00  1.00000000E+00  1.00000000E+00  1.00000000E+00  2.47206402E-03
  1.97550234E-02  9.09917355E-02  2.63187834E-01  4.49078073E-01  3.60183072E-01
  3.03427809E-05 -1.22475826E-03 -6.01429772E-03 -2.76401323E-02  4.35105612E-04
  1.00307272E+00  1.00000000E+00  1.00000000E+00  1.00000000E+00  1.00000000E+00
  1.00000000E+00  1.00000000E+00  1.00000000E+00  1.00000000E+00  2.54948632E-02
  1.90362766E-01  8.52162022E-01  1.00000000E+00  1.00000000E+00  1.00000000E+00
  1.00000000E+00  1.00000000E+00  1.00000000E+00  1.00000000E+00  1.00000000E+00
Coordinates of each shell                  R   N=         174
  0.00000000E+00  0.00000000E+00  0.00000000E+00  0.00000000E+00  0.00000000E+00
  0.00000000E+00  0.00000000E+00  0.00000000E+00  0.00000000E+00  0.00000000E+00
  0.00000000E+00  0.00000000E+00  0.00000000E+00  0.00000000E+00  0.00000000E+00
  0.00000000E+00  0.00000000E+00  0.00000000E+00  0.00000000E+00  0.00000000E+00
  0.00000000E+00  0.00000000E+00  0.00000000E+00  0.00000000E+00  0.00000000E+00
  0.00000000E+00  0.00000000E+00  0.00000000E+00  0.00000000E+00  0.00000000E+00
  0.00000000E+00  0.00000000E+00  0.00000000E+00  0.00000000E+00  0.00000000E+00
  0.00000000E+00  0.00000000E+00  0.00000000E+00  0.00000000E+00  0.00000000E+00
  0.00000000E+00  0.00000000E+00  5.80867318E+00  0.00000000E+00  0.00000000E+00
  5.80867318E+00  0.00000000E+00  0.00000000E+00  5.80867318E+00  0.00000000E+00
  0.00000000E+00  5.80867318E+00  0.00000000E+00  0.00000000E+00  5.80867318E+00
  0.00000000E+00  0.00000000E+00  5.80867318E+00  0.00000000E+00  0.00000000E+00
  5.80867318E+00  0.00000000E+00  0.00000000E+00  5.80867318E+00  0.00000000E+00
  0.00000000E+00  5.80867318E+00  0.00000000E+00  0.00000000E+00  5.80867318E+00
  0.00000000E+00  0.00000000E+00  5.80867318E+00  0.00000000E+00  0.00000000E+00
  5.80867318E+00  0.00000000E+00  0.00000000E+00  5.80867318E+00  0.00000000E+00
  0.00000000E+00  5.80867318E+00  0.00000000E+00  0.00000000E+00  5.80867318E+00
  0.00000000E+00  0.00000000E+00  5.80867318E+00  0.00000000E+00  0.00000000E+00
  5.80867318E+00  0.00000000E+00  0.00000000E+00  5.80867318E+00  0.00000000E+00
  0.00000000E+00  5.80867318E+00  0.00000000E+00  0.00000000E+00 -7.38733169E-01
  3.09599977E+00  0.00000000E+00 -7.38733169E-01  3.09599977E+00  0.00000000E+00
 -7.38733169E-01  3.09599977E+00  0.00000000E+00 -7.38733169E-01  3.09599977E+00
  0.00000000E+00 -7.38733169E-01  3.09599977E+00  0.00000000E+00 -7.38733169E-01
  3.09599977E+00  0.00000000E+00 -7.38733169E-01  3.09599977E+00  0.00000000E+00
 -7.38733169E-01  3.09599977E+00  0.00000000E+00 -7.38733169E-01  3.09599977E+00
  0.00000000E+00 -7.38733169E-01  3.09599977E+00  0.00000000E+00 -7.38733169E-01
  3.09599977E+00  0.00000000E+00 -7.38733169E-01  3.09599977E+00  0.00000000E+00
 -7.38733169E-01  3.09599977E+00  0.00000000E+00 -7.38733169E-01  3.09599977E+00
  0.00000000E+00 -7.38733169E-01  3.09599977E+00  0.00000000E+00 -7.38733169E-01
  3.09599977E+00  0.00000000E+00  1.91482063E+00  0.00000000E+00  1.67525090E-01
  1.91482063E+00  0.00000000E+00  1.67525090E-01  1.91482063E+00  0.00000000E+00
  1.67525090E-01  1.91482063E+00  0.00000000E+00  1.67525090E-01  1.91482063E+00
  0.00000000E+00  1.67525090E-01  1.91482063E+00  0.00000000E+00  1.67525090E-01
  1.91482063E+00  0.00000000E+00  1.67525090E-01  1.91482063E+00  0.00000000E+00
  1.67525090E-01  1.91482063E+00  0.00000000E+00  1.67525090E-01
Num ILSW                                   I              100
ILSW                                       I   N=         100
           0           0           0           0           2           0
           0           0           0           0           0          -1
           5           0           0           0           0           0
           0           0           0           0           0           0
           1           1           0           0           0           0
           0           0      100000           0          -1           0
           0           0           0           0           0           0
           0           0           0           1           0           0
           0 -2000000000           1           0           0           0
           0           0           4          52           0           0
           0           0           0           0           0           0
           0           0           0           4           0           1
           0           0           0           0           0           0
           0           0           0           0           0           0
           0           0           0           0           0           0
           0           0           0           0           0           0
           0           0           0           0
Num RLSW                                   I               52
RLSW                                       R   N=          52
  1.00000000E+00  1.00000000E+00  1.00000000E+00  1.00000000E+00  1.00000000E+00
  0.00000000E+00  0.00000000E+00  1.00000000E+00  0.00000000E+00  0.00000000E+00
  0.00000000E+00  0.00000000E+00  1.00000000E+00  0.00000000E+00  0.00000000E+00
  0.00000000E+00  0.00000000E+00  1.00000000E+00  0.00000000E+00  0.00000000E+00
  0.00000000E+00  0.00000000E+00  1.00000000E+00  0.00000000E+00  0.00000000E+00
  0.00000000E+00  0.00000000E+00  1.00000000E+00  0.00000000E+00  0.00000000E+00
  0.00000000E+00  0.00000000E+00  1.00000000E+00  0.00000000E+00  0.00000000E+00
  0.00000000E+00  0.00000000E+00  0.00000000E+00  1.00000000E+00  1.00000000E+00
  0.00000000E+00  1.00000000E+00  0.00000000E+00  0.00000000E+00  0.00000000E+00
  0.00000000E+00  0.00000000E+00  0.00000000E+00  0.00000000E+00  0.00000000E+00
  0.00000000E+00  0.00000000E+00
MxBond                                     I                2
NBond                                      I   N=           4
           2           0           1           1
IBond                                      I   N=           8
           3           4           0           0           1           0
           1           0
RBond                                      R   N=           8
  1.00000000E+00  1.00000000E+00  0.00000000E+00  0.00000000E+00  1.00000000E+00
  0.00000000E+00  1.00000000E+00  0.00000000E+00
Virial Ratio                               R      2.000047677101647E+00
SCF Energy                                 R     -3.107478208053806E+03
MP2 Energy                                 R     -3.108182452135245E+03
Total Energy                               R     -3.108182452135245E+03
Post-SCF wavefunction norm                 R      1.105557252335382E+00
RMS Density                                R      4.950305029374238E-09
Job Status                                 I                1
Nuclear derivative order                   I                0
External E-field                           R   N=          35
  0.00000000E+00  0.00000000E+00  0.00000000E+00  0.00000000E+00  0.00000000E+00
  0.00000000E+00  0.00000000E+00  0.00000000E+00  0.00000000E+00  0.00000000E+00
  0.00000000E+00  0.00000000E+00  0.00000000E+00  0.00000000E+00  0.00000000E+00
  0.00000000E+00  0.00000000E+00  0.00000000E+00  0.00000000E+00  0.00000000E+00
  0.00000000E+00  0.00000000E+00  0.00000000E+00  0.00000000E+00  0.00000000E+00
  0.00000000E+00  0.00000000E+00  0.00000000E+00  0.00000000E+00  0.00000000E+00
  0.00000000E+00  0.00000000E+00  0.00000000E+00  0.00000000E+00  0.00000000E+00
IOpCl                                      I                0
IROHF                                      I                0
Alpha Orbital Energies                     R   N=         178
 -4.89756173E+02 -1.04730854E+02 -6.48965458E+01 -5.82510529E+01 -5.82510007E+01
 -5.82509978E+01 -2.04610639E+01 -1.04503525E+01 -9.56909328E+00 -7.91752108E+00
 -7.91488350E+00 -7.91478341E+00 -7.17692301E+00 -7.17633835E+00 -7.17632669E+00
 -2.91863049E+00 -2.91835177E+00 -2.91833652E+00 -2.91769407E+00 -2.91769299E+00
 -1.22765642E+00 -8.94814074E-01 -7.31834821E-01 -5.37961397E-01 -4.41557937E-01
 -4.33372319E-01 -3.07566341E-01 -2.80156229E-01 -1.86373413E-01 -1.76529846E-01
 -1.76466409E-01  1.56124532E-01  1.81171935E-01  2.15764155E-01  2.27895972E-01
  2.41229064E-01  2.46358617E-01  2.50061026E-01  2.87175543E-01  3.03896547E-01
  3.13749575E-01  3.24339136E-01  3.28235460E-01  3.59341178E-01  4.32882839E-01
  4.39014811E-01  4.68507372E-01  4.82322363E-01  4.86016621E-01  5.03220906E-01
  5.41693120E-01  5.43273658E-01  5.70214480E-01  5.93740975E-01  6.00778132E-01
  6.02056238E-01  6.10596885E-01  6.56119655E-01  6.99445149E-01  7.36977407E-01
  7.43077225E-01  7.54402737E-01  7.77942682E-01  7.86893256E-01  8.48038976E-01
  8.89803657E-01  8.95902327E-01  9.17478484E-01  9.43986456E-01  9.96586276E-01
  1.00075222E+00  1.00313612E+00  1.00902212E+00  1.02010725E+00  1.03101746E+00
  1.06895972E+00  1.08066951E+00  1.09284220E+00  1.10535134E+00  1.10835490E+00
  1.13383815E+00  1.15522382E+00  1.17713564E+00  1.18138373E+00  1.20807180E+00
  1.22102351E+00  1.23785063E+00  1.27689767E+00  1.29776050E+00  1.32659095E+00
  1.34187328E+00  1.37581859E+00  1.38889515E+00  1.47670378E+00  1.50644699E+00
  1.52110264E+00  1.56070277E+00  1.58747816E+00  1.63139852E+00  1.66549847E+00
  1.70081664E+00  1.70731834E+00  1.76887738E+00  1.79034772E+00  1.79876289E+00
  1.89717161E+00  1.97482966E+00  2.15003983E+00  2.37876411E+00  2.39384475E+00
  2.41964108E+00  2.43487215E+00  2.46537105E+00  2.49865155E+00  2.50769270E+00
  2.52847750E+00  2.53556932E+00  2.54944918E+00  2.55093345E+00  2.55522694E+00
  2.56429354E+00  2.58131638E+00  2.60142179E+00  2.62967091E+00  2.64222566E+00
  2.65721301E+00  2.67809395E+00  2.68736449E+00  2.70164038E+00  2.72039023E+00
  2.72416277E+00  2.74672383E+00  2.75852971E+00  2.78199339E+00  2.80227634E+00
  2.81333539E+00  2.88227889E+00  3.01501629E+00  3.07617352E+00  3.09788327E+00
  3.17678393E+00  3.19985113E+00  3.21762195E+00  3.25665562E+00  3.29058358E+00
  3.31146528E+00  3.34129486E+00  3.53052524E+00  3.54845067E+00  3.57381561E+00
  3.93309540E+00  4.18349027E+00  4.30745796E+00  4.45230594E+00  4.53647725E+00
  4.57635769E+00  4.77499158E+00  4.96703022E+00  5.02229204E+00  5.21974542E+00
  5.32547438E+00  5.38509215E+00  5.65870890E+00  6.43155220E+00  6.59165871E+00
  6.85178963E+00  6.90269464E+00  6.91717453E+00  6.99859382E+00  7.27564031E+00
  7.33109301E+00  7.34718552E+00  7.44918366E+00  7.55466027E+00  7.74344784E+00
  7.81433409E+00  8.34998305E+00  1.45492607E+01
Alpha MO coefficients                      R   N=       31684
  1.37336313E-07  7.27695193E-07 -3.75919588E-08  2.27241693E-06  8.43976493E-06
 -3.31641988E-08 -3.12870215E-09 -5.01591656E-09  3.04934128E-07  1.68210506E-08
  4.02484179E-08 -3.58913732E-06 -7.28790352E-07  6.00188935E-07  1.21051165E-06
 -9.64274912E-09  4.57838354E-07 -3.50302849E-08 -8.34523151E-09 -3.86030059E-09
  3.98367778E-08  3.86171576E-09  1.30021727E-07  9.42546495E-08  1.28696787E-08
 -1.24901693E-07 -2.05755985E-08  1.24214791E-06  3.14631344E-09 -8.00139308E-08
 -1.88311214E-06 -1.70910909E-07 -2.92497002E-08 -4.99891087E-08 -4.71604086E-12
  2.56790340E-08  1.08137162E-09  3.80121199E-08 -4.75274657E-09  2.89974714E-08
  2.35046619E-07  2.19885557E-08 -2.51154178E-09 -7.92711069E-09 -2.05309187E-07
 -2.29772432E-09  1.00053504E+00 -1.74582530E-03 -3.65801780E-04  2.75142884E-05
 -3.89702610E-05 -1.83322194E-05 -1.26127735E-06 -6.18648831E-07 -4.76672846E-08
  9.58510949E-08  1.01448208E-09  1.66840568E-08 -1.87538394E-08 -2.23895773E-06
 -3.00533063E-10  1.39396962E-07  4.83948669E-07 -5.89487569E-09 -2.71037918E-08
  7.75025076E-06 -1.14046254E-08 -4.02219960E-07  2.81921852E-07  3.44822537E-08
 -1.58439152E-08 -1.26940938E-08 -1.14330369E-08  1.66706644E-11  2.68534248E-08
  4.34816629E-09 -1.61276022E-09  2.11327979E-08 -2.96244576E-10 -1.55155756E-08
 -1.37769953E-08 -3.31542168E-07 -1.06198357E-07  1.27477591E-09  6.21562191E-07
  2.60131411E-08  1.27627241E-06  2.78020542E-07  4.15189193E-11 -2.27749055E-06
 -3.73926153E-08 -3.39407966E-08  1.73130167E-07  4.87213595E-09  4.21122769E-08
 -4.39355844E-10 -2.37088027E-07 -5.36264311E-09  2.88874844E-08 -1.30716509E-07
 -8.94781539E-09 -3.42904576E-08 -6.52518017E-10  1.84827627E-07  1.37190936E-08
 -3.24671309E-09 -4.35084370E-08 -1.27076972E-07 -1.87786683E-08  7.72804645E-07
 -2.02585310E-07  1.13573011E-08 -1.77859195E-09 -6.10623426E-10  1.92949900E-07
 -4.08946873E-08 -3.77010858E-09 -4.33468891E-08  1.85558756E-08  1.98566497E-09
  8.73439593E-08 -6.04616833E-07  1.13298604E-07 -1.40535514E-07  1.60485132E-07
 -7.78142836E-08 -1.27382566E-08  4.43424958E-09  8.09267820E-10  1.02498052E-08
  6.04705333E-10 -2.80992188E-08 -7.73938299E-09 -9.44067752E-09 -4.49141792E-08
 -1.00236506E-07 -8.03410056E-08  4.91824449E-08 -4.50680028E-08 -2.45353153E-07
 -6.79002704E-08 -1.43560921E-08 -2.21510015E-08 -7.26922046E-09  1.08751055E-08
  7.25421499E-09 -6.70792496E-09  6.85404193E-09  2.51214484E-08  6.20803578E-08
  6.67495672E-08 -2.76610184E-08 -1.97954276E-08 -7.17567810E-08  1.41996206E-08
  1.74030054E-07  4.53817260E-06 -1.94413357E-06 -4.80556783E-07  9.45137748E-08
 -2.38383173E-08  3.16632172E-08 -5.06232224E-07  2.05959325E-07 -4.42219731E-07
  1.28797610E-05  1.88044652E-07 -3.96403415E-07  3.39468258E-08  7.00239247E-08
  2.55466293E-09 -7.75680839E-08 -2.21632595E-08  1.23956580E-06  1.45628033E-07
 -1.26455892E-08 -2.17411096E-06 -9.46877762E-08  4.98284239E-06  2.79801439E-05
  2.47432569E-06 -1.57071674E-04 -1.08659608E-04  5.26245392E-07  2.93654511E-06
  2.02095005E-07 -5.09896564E-06 -8.59398741E-06 -1.01794815E-06  4.87165220E-05
 -1.53665086E-04  5.91591632E-08  1.03136219E-05 -3.84658975E-05  5.92392782E-07
 -2.22788798E-06  7.68240346E-08  4.49771379E-09 -3.11911090E-06 -1.49116795E-06
  1.46744228E-05 -4.36346145E-07 -7.85040940E-08  2.06059383E-05  9.82670781E-06
  2.51092719E-05  1.30433499E-06 -7.45907614E-07  6.00651749E-05  1.20171654E-05
 -6.58056573E-08 -3.28747484E-07 -8.14071251E-08 -1.29013549E-07  9.73396854E-08
 -1.71221963E-06  1.01949808E-06  1.26659648E-07 -2.58249653E-06  1.33370513E-05
  5.39327072E-07 -4.53762368E-07 -4.74895377E-06  8.88279535E-06  6.81827785E-08
  3.75001168E-07  2.10785640E-06  5.17228880E-06  1.05630555E-06 -2.73007220E-05
 -5.57857569E-06 -9.67508965E-08  2.36934110E-08  1.23222316E-08  1.12390891E-06
 -7.18898425E-08 -1.22529276E-07  8.35379477E-06  3.11330969E-07 -8.19872019E-07
 -2.63830393E-06  3.39772427E-07  3.14326206E-07  1.83415238E-05 -6.49319209E-06
 -1.14215951E-06  1.95876659E-06  4.18969472E-07  1.80082453E-07  5.64709793E-08
  2.86924711E-08 -8.68443463E-10 -3.51729386E-08  1.34420936E-07 -4.88010679E-07
 -2.35340315E-07  1.49007888E-10  4.15418190E-07 -9.36945455E-07  3.49263661E-06
  1.27473992E-06  6.56803739E-08 -4.96288276E-06  2.25802488E-06  3.33927936E-06
  4.27968820E-07 -4.68884447E-07 -4.95390097E-06  3.86798277E-06 -3.99524948E-08
  5.32949249E-08 -1.36642403E-07 -4.57565474E-08 -2.41544785E-07  1.45769995E-07
  6.81539325E-07  5.19631996E-07 -1.93734185E-06  6.41359586E-07 -4.55922313E-07
  4.81397500E-07  1.17601148E-06 -2.72967333E-06  9.99534865E-01  1.95408080E-03
  1.84930461E-04 -4.18148675E-04  7.22557090E-05  7.68962177E-05  1.77436290E-05
 -7.52080673E-05  3.87089864E-07  3.78991677E-05 -1.34793180E-04  6.88817409E-07
 -1.84180453E-05  7.17170448E-05 -3.76183218E-07  2.45035804E-06 -5.75056059E-05
 -1.09017511E-06  2.49780031E-06 -1.16524680E-05 -3.12130722E-07 -3.63461583E-06
  1.57268766E-08 -4.08052593E-08 -4.92959900E-06 -3.27587898E-06 -2.87496428E-05
  1.49793308E-07 -1.70394657E-07 -4.38161769E-05 -2.42714499E-05 -7.97637035E-07
 -9.59687539E-07  4.22545989E-07 -1.05675105E-05  1.13452654E-06 -1.62734978E-07
 -2.07372053E-06  6.23816807E-06  9.53775830E-08 -2.27293833E-07 -4.58372021E-06
  3.95898768E-06  3.25924608E-07  4.98037252E-07  2.98198508E-06 -2.62044755E-07
  4.86063934E-07 -4.55147353E-06  7.59726417E-06 -1.74649134E-06 -1.80716412E-05
  6.46660170E-05 -8.02447452E-06  8.29694977E-07 -2.57412200E-06  4.42125328E-08
 -1.20459589E-05  1.54837378E-05 -5.46350186E-07  2.93518370E-06  2.61612736E-05
 -1.01064254E-06 -5.20368739E-07  1.93450835E-08  3.54053057E-09 -5.96774368E-07
 -9.90187773E-07 -1.61648296E-05  1.42544275E-06 -5.60962607E-07  1.21277173E-05
 -1.38694848E-06  5.11421637E-07  3.31302096E-06  4.43600152E-09  1.09173594E-05
  4.21595154E-05  5.53129610E-08  2.03561812E-08  3.01696511E-10  1.45874104E-06
  8.30291291E-08  1.06987950E-07 -1.82551333E-05 -1.52715632E-06  2.58924058E-06
  6.63455305E-06  1.10814543E-06  2.09492451E-06 -1.56505449E-07 -4.60099086E-08
 -1.93159078E-08  1.97687532E-07  1.72788921E-08  7.55450902E-07  3.58425114E-07
  7.00078282E-08 -9.53551861E-07 -3.83221344E-08  5.91187596E-06 -5.18894998E-08
 -3.55629199E-07 -9.67939566E-06 -3.96844601E-07 -9.85056683E-08 -1.86125712E-07
  8.55842056E-09  7.10654598E-08  1.90863436E-10  1.10118505E-07 -3.30374818E-08
  1.24373935E-07  1.24689329E-06  2.98532453E-08  3.73385156E-09 -1.77345700E-08
 -1.14296168E-06  2.56442694E-08 -3.14071407E-01  1.04046682E+00  2.14070308E-02
  3.97152901E-05 -8.11187463E-05 -7.35509220E-05 -1.61017934E-05 -6.56962336E-05
 -7.24955178E-06  1.32843592E-05 -8.76507410E-06 -5.55453873E-07  1.20834979E-06
 -1.24106522E-05 -3.53315877E-07  1.12435345E-06  6.09712764E-06  3.24454519E-07
 -7.64240509E-07  3.94116665E-05  1.68225199E-07 -2.16069821E-06  2.70099557E-06
  2.30159762E-08 -7.14259842E-08 -7.72790993E-07 -5.70978114E-07 -1.75105025E-09
  1.52614303E-06  1.78156068E-07  1.21985477E-08  1.78343574E-07  4.40984400E-09
 -1.39599359E-07 -1.03451666E-07 -1.33306448E-06 -6.45171945E-07 -8.94117597E-09
  2.59277850E-06  2.52449111E-07  6.45499361E-06  1.38662113E-06  9.61702358E-09
 -1.15496717E-05 -2.03037913E-07 -1.00313090E-07  5.49514999E-07  2.24661509E-08
  1.21007312E-07 -3.96131435E-09 -7.92638493E-07 -4.47917346E-08  1.20195484E-07
 -9.12184273E-07 -2.99485237E-08 -1.39516870E-07  8.49156486E-09  1.26877622E-06
  7.30963920E-09 -7.72290898E-09 -1.25045177E-07 -3.54524775E-07 -1.03938739E-07
  2.21938874E-06 -3.05206368E-06  5.81454525E-08 -1.14165022E-08 -4.56372320E-09
  1.06268446E-06  1.52034965E-07 -3.75857421E-08 -2.52315808E-07  3.05946989E-08
  1.71123174E-08 -4.20164976E-07 -1.41592400E-06  5.85121712E-07 -3.76814909E-07
  9.62900212E-07 -3.97896540E-07 -1.04992211E-07  2.03593778E-08  1.61589537E-09