title                                                                   
SP        RMP2-FC                                                     Aug-CC-pVTZ         
Number of atoms                            I                4
Info1-9                                    I   N=           9
          40          13           0           0           0         110
           1           2           1
Full Title                                 C   N=           1
title       
Route                                      C   N=           5
#p pop=NBO SP NoSymm mp2/aug-cc-pvtz density=current        
Charge                                     I               -1
Multiplicity                               I                1
Number of electrons                        I               62
Number of alpha electrons                  I               31
Number of beta electrons                   I               31
Number of basis functions                  I              178
Number of independent functions            I              178
Number of point charges in /Mol/           I                0
Number of translation vectors              I                0
Atomic numbers                             I   N=           4
           8          35          17           1
Nuclear charges                            R   N=           4
  8.00000000E+00  3.50000000E+01  1.70000000E+01  1.00000000E+00
Current cartesian coordinates              R   N=          12
  0.00000000E+00  0.00000000E+00  0.00000000E+00  5.80867318E+00  0.00000000E+00
  0.00000000E+00 -7.38733169E-01  3.09599977E+00  0.00000000E+00  1.78558165E+00
  0.00000000E+00  6.49898565E-01
Number of symbols in /Mol/                 I                0
Force Field                                I                0
Atom Types                                 C   N=           4
                                                
Int Atom Types                             I   N=           4
           0           0           0           0
MM charges                                 R   N=           4
  0.00000000E+00  0.00000000E+00  0.00000000E+00  0.00000000E+00
Integer atomic weights                     I   N=           4
          16          79          35           1
Real atomic weights                        R   N=           4
  1.59949146E+01  7.89183361E+01  3.49688527E+01  1.00782504E+00
Atom fragment info                         I   N=           4
           0           0           0           0
Atom residue num                           I   N=           4
           0           0           0           0
Nuclear spins                              I   N=           4
           0           3           3           1
Nuclear ZEff                               R   N=           4
 -5.60000000E+00 -2.45000000E+01 -1.42400000E+01 -1.00000000E+00
Nuclear ZNuc                               R   N=           4
  8.00000000E+00  3.50000000E+01  1.70000000E+01  1.00000000E+00
Nuclear QMom                               R   N=           4
  0.00000000E+00  3.13000000E+01 -8.16500000E+00  0.00000000E+00
Nuclear GFac                               R   N=           4
  0.00000000E+00  2.10639900E+00  8.21874000E-01  2.79284600E+00
MicOpt                                     I   N=           4
          -1          -1          -1          -1
Number of residues                         I                0
Number of secondary structures             I                0
Number of contracted shells                I               58
Number of primitive shells                 I              180
Pure/Cartesian d shells                    I                0
Pure/Cartesian f shells                    I                0
Highest angular momentum                   I                3
Largest degree of contraction              I               15
Shell types                                I   N=          58
           0           0           0           0           0           1
           1           1           1          -2          -2          -2
          -3          -3           0           0           0           0
           0           0           0           1           1           1
           1           1           1          -2          -2          -2
          -2          -3          -3           0           0           0
           0           0           0           1           1           1
           1           1          -2          -2          -2          -3
          -3           0           0           0           0           1
           1           1          -2          -2
Number of primitives per shell             I   N=          58
           7           6           1           1           1           3
           1           1           1           1           1           1
           1           1          15          12          10          10
           1           1           1           9           9           8
           1           1           1           7           1           1
           1           1           1          11           9           8
           1           1           1           6           6           1
           1           1           1           1           1           1
           1           3           1           1           1           1
           1           1           1           1
Shell to atom map                          I   N=          58
           1           1           1           1           1           1
           1           1           1           1           1           1
           1           1           2           2           2           2
           2           2           2           2           2           2
           2           2           2           2           2           2
           2           2           2           3           3           3
           3           3           3           3           3           3
           3           3           3           3           3           3
           3           4           4           4           4           4
           4           4           4           4
Primitive exponents                        R   N=         180
  1.53300000E+04  2.29900000E+03  5.22400000E+02  1.47300000E+02  4.75500000E+01
  1.67600000E+01  6.20700000E+00  5.22400000E+02  1.47300000E+02  4.75500000E+01
  1.67600000E+01  6.20700000E+00  6.88200000E-01  1.75200000E+00  2.38400000E-01
  7.37600000E-02  3.44600000E+01  7.74900000E+00  2.28000000E+00  7.15600000E-01
  2.14000000E-01  5.97400000E-02  2.31400000E+00  6.45000000E-01  2.14000000E-01
  1.42800000E+00  5.00000000E-01  1.06390000E+07  1.59340000E+06  3.62610000E+05
  1.02700000E+05  3.35010000E+04  1.20930000E+04  4.71590000E+03  1.95560000E+03
  8.52610000E+02  3.87670000E+02  1.82680000E+02  8.82450000E+01  3.92630000E+01
  9.40570000E+00  1.89950000E+00  3.35010000E+04  1.20930000E+04  4.71590000E+03
  1.95560000E+03  8.52610000E+02  3.87670000E+02  1.82680000E+02  8.82450000E+01
  3.92630000E+01  1.92340000E+01  9.40570000E+00  1.89950000E+00  4.71590000E+03
  8.52610000E+02  3.87670000E+02  1.82680000E+02  8.82450000E+01  3.92630000E+01
  1.92340000E+01  9.40570000E+00  4.16010000E+00  1.89950000E+00  4.71590000E+03
  8.52610000E+02  3.87670000E+02  8.82450000E+01  3.92630000E+01  1.92340000E+01
  9.40570000E+00  4.16010000E+00  1.89950000E+00  3.01140000E-01  6.04720000E-01
  1.25150000E-01  4.55930000E-02  8.67650000E+03  2.05590000E+03  6.66230000E+02
  2.53100000E+02  1.06120000E+02  4.72420000E+01  2.18250000E+01  9.96840000E+00
  1.99820000E+00  8.67650000E+03  6.66230000E+02  2.53100000E+02  1.06120000E+02
  4.72420000E+01  2.18250000E+01  9.96840000E+00  4.51710000E+00  1.99820000E+00
  6.66230000E+02  1.06120000E+02  4.72420000E+01  2.18250000E+01  9.96840000E+00
  4.51710000E+00  1.99820000E+00  2.81450000E-01  7.09880000E-01  1.02040000E-01
  3.51420000E-02  4.03830000E+02  1.21170000E+02  4.63450000E+01  1.97210000E+01
  8.86240000E+00  3.99620000E+00  1.76360000E+00  7.06190000E-01  2.63900000E-01
  1.04700000E-01  5.51500000E-01  2.58000000E-01  4.56100000E+05  6.83300000E+04
  1.55500000E+04  4.40500000E+03  1.43900000E+03  5.20400000E+02  2.03100000E+02
  8.39600000E+01  3.62000000E+01  1.58300000E+01  6.33400000E+00  4.40500000E+03
  1.43900000E+03  5.20400000E+02  2.03100000E+02  8.39600000E+01  3.62000000E+01
  1.58300000E+01  6.33400000E+00  2.69400000E+00  1.43900000E+03  2.03100000E+02
  8.39600000E+01  3.62000000E+01  1.58300000E+01  6.33400000E+00  2.69400000E+00
  4.31300000E-01  9.76800000E-01  1.62500000E-01  5.91000000E-02  6.63300000E+02
  1.56800000E+02  4.99800000E+01  1.84200000E+01  7.24000000E+00  2.92200000E+00
  1.56800000E+02  4.99800000E+01  1.84200000E+01  7.24000000E+00  2.92200000E+00
  3.81800000E-01  1.02200000E+00  1.30100000E-01  4.19000000E-02  1.04600000E+00
  3.44000000E-01  1.35000000E-01  7.06000000E-01  3.12000000E-01  3.38700000E+01
  5.09500000E+00  1.15900000E+00  3.25800000E-01  1.02700000E-01  2.52600000E-02
  1.40700000E+00  3.88000000E-01  1.02000000E-01  1.05700000E+00  2.47000000E-01
Contraction coefficients                   R   N=         180
  5.19808943E-04  4.02025621E-03  2.07128267E-02  8.10105536E-02  2.35962985E-01
  4.42653446E-01  3.57064423E-01 -4.42115008E-05 -1.22591041E-03 -1.05517725E-02
 -6.74452633E-02 -1.71198607E-01  1.07329856E+00  1.00000000E+00  1.00000000E+00
  1.00000000E+00  4.11634896E-02  2.57762836E-01  8.02419274E-01  1.00000000E+00
  1.00000000E+00  1.00000000E+00  1.00000000E+00  1.00000000E+00  1.00000000E+00
  1.00000000E+00  1.00000000E+00  5.89674518E-06  4.60752740E-05  2.42070343E-04
  1.02205299E-03  3.70930499E-03  1.19720307E-02  3.46735726E-02  8.90729487E-02
  1.93334549E-01  3.20663919E-01  3.29580713E-01  1.49250790E-01  1.55764867E-02
  7.93747636E-04  2.65221775E-04 -5.68536848E-06 -3.52666574E-05 -3.27539377E-04
 -1.87629276E-03 -1.01414527E-02 -3.80702440E-02 -9.57536910E-02 -4.73840598E-02
  3.47577995E-01  5.73945554E-01  2.14222079E-01 -1.02928963E-02  7.18105399E-06
  1.20828593E-04  4.42852463E-04  3.05163083E-03  3.69571776E-03 -4.41792565E-02
 -2.33790718E-01 -4.89037435E-02  6.44374705E-01  5.44424123E-01  2.45813907E-06
  1.21542842E-05 -4.20845287E-05 -2.71411136E-04  1.88335237E-03  1.04009470E-02
  6.18574958E-03 -1.11556547E-01 -4.47970305E-01  1.18314733E+00  1.00000000E+00
  1.00000000E+00  1.00000000E+00  4.37079993E-04  3.79355062E-03  2.05440673E-02
  7.95459389E-02  2.18602295E-01  3.89303910E-01  3.60668111E-01  1.10677963E-01
 -1.34807692E-03  1.00103778E-06 -7.06114784E-05 -1.15560817E-03 -7.09755620E-03
 -2.44937124E-02 -1.01982599E-02  2.19854720E-01  5.15741017E-01  3.67494091E-01
 -2.33484889E-05 -3.27796533E-04  4.19438933E-04 -2.20691716E-03 -6.45224464E-03
 -4.68458724E-02 -4.09196666E-02  1.01815889E+00  1.00000000E+00  1.00000000E+00
  1.00000000E+00  1.51744738E-03  1.30531170E-02  5.97884776E-02  1.75631556E-01
  3.28164786E-01  3.96050780E-01  2.81996460E-01  1.00000000E+00  1.00000000E+00
  1.00000000E+00  1.00000000E+00  1.00000000E+00  4.93229477E-05  3.83207967E-04
  2.00947816E-03  8.38950124E-03  2.94843950E-02  8.78759948E-02  2.11589759E-01
  3.65611554E-01  3.41246350E-01  1.02162570E-01  2.14249949E-03 -2.21747925E-06
 -1.71189708E-04 -1.27922846E-03 -9.32956265E-03 -3.98910062E-02 -1.05536085E-01
  9.36202446E-03  5.10511140E-01  5.73150737E-01  4.03949245E-06  2.12481765E-04
  8.59484452E-04  4.63248159E-03  4.47343490E-04 -7.38438245E-02 -3.62271994E-01
  1.16620337E+00  1.00000000E+00  1.00000000E+00  1.00000000E+00  2.47206402E-03
  1.97550234E-02  9.09917355E-02  2.63187834E-01  4.49078073E-01  3.60183072E-01
  3.03427809E-05 -1.22475826E-03 -6.01429772E-03 -2.76401323E-02  4.35105612E-04
  1.00307272E+00  1.00000000E+00  1.00000000E+00  1.00000000E+00  1.00000000E+00
  1.00000000E+00  1.00000000E+00  1.00000000E+00  1.00000000E+00  2.54948632E-02
  1.90362766E-01  8.52162022E-01  1.00000000E+00  1.00000000E+00  1.00000000E+00
  1.00000000E+00  1.00000000E+00  1.00000000E+00  1.00000000E+00  1.00000000E+00
Coordinates of each shell                  R   N=         174
  0.00000000E+00  0.00000000E+00  0.00000000E+00  0.00000000E+00  0.00000000E+00
  0.00000000E+00  0.00000000E+00  0.00000000E+00  0.00000000E+00  0.00000000E+00
  0.00000000E+00  0.00000000E+00  0.00000000E+00  0.00000000E+00  0.00000000E+00
  0.00000000E+00  0.00000000E+00  0.00000000E+00  0.00000000E+00  0.00000000E+00
  0.00000000E+00  0.00000000E+00  0.00000000E+00  0.00000000E+00  0.00000000E+00
  0.00000000E+00  0.00000000E+00  0.00000000E+00  0.00000000E+00  0.00000000E+00
  0.00000000E+00  0.00000000E+00  0.00000000E+00  0.00000000E+00  0.00000000E+00
  0.00000000E+00  0.00000000E+00  0.00000000E+00  0.00000000E+00  0.00000000E+00
  0.00000000E+00  0.00000000E+00  5.80867318E+00  0.00000000E+00  0.00000000E+00
  5.80867318E+00  0.00000000E+00  0.00000000E+00  5.80867318E+00  0.00000000E+00
  0.00000000E+00  5.80867318E+00  0.00000000E+00  0.00000000E+00  5.80867318E+00
  0.00000000E+00  0.00000000E+00  5.80867318E+00  0.00000000E+00  0.00000000E+00
  5.80867318E+00  0.00000000E+00  0.00000000E+00  5.80867318E+00  0.00000000E+00
  0.00000000E+00  5.80867318E+00  0.00000000E+00  0.00000000E+00  5.80867318E+00
  0.00000000E+00  0.00000000E+00  5.80867318E+00  0.00000000E+00  0.00000000E+00
  5.80867318E+00  0.00000000E+00  0.00000000E+00  5.80867318E+00  0.00000000E+00
  0.00000000E+00  5.80867318E+00  0.00000000E+00  0.00000000E+00  5.80867318E+00
  0.00000000E+00  0.00000000E+00  5.80867318E+00  0.00000000E+00  0.00000000E+00
  5.80867318E+00  0.00000000E+00  0.00000000E+00  5.80867318E+00  0.00000000E+00
  0.00000000E+00  5.80867318E+00  0.00000000E+00  0.00000000E+00 -7.38733169E-01
  3.09599977E+00  0.00000000E+00 -7.38733169E-01  3.09599977E+00  0.00000000E+00
 -7.38733169E-01  3.09599977E+00  0.00000000E+00 -7.38733169E-01  3.09599977E+00
  0.00000000E+00 -7.38733169E-01  3.09599977E+00  0.00000000E+00 -7.38733169E-01
  3.09599977E+00  0.00000000E+00 -7.38733169E-01  3.09599977E+00  0.00000000E+00
 -7.38733169E-01  3.09599977E+00  0.00000000E+00 -7.38733169E-01  3.09599977E+00
  0.00000000E+00 -7.38733169E-01  3.09599977E+00  0.00000000E+00 -7.38733169E-01
  3.09599977E+00  0.00000000E+00 -7.38733169E-01  3.09599977E+00  0.00000000E+00
 -7.38733169E-01  3.09599977E+00  0.00000000E+00 -7.38733169E-01  3.09599977E+00
  0.00000000E+00 -7.38733169E-01  3.09599977E+00  0.00000000E+00 -7.38733169E-01
  3.09599977E+00  0.00000000E+00  1.78558165E+00  0.00000000E+00  6.49898565E-01
  1.78558165E+00  0.00000000E+00  6.49898565E-01  1.78558165E+00  0.00000000E+00
  6.49898565E-01  1.78558165E+00  0.00000000E+00  6.49898565E-01  1.78558165E+00
  0.00000000E+00  6.49898565E-01  1.78558165E+00  0.00000000E+00  6.49898565E-01
  1.78558165E+00  0.00000000E+00  6.49898565E-01  1.78558165E+00  0.00000000E+00
  6.49898565E-01  1.78558165E+00  0.00000000E+00  6.49898565E-01
Num ILSW                                   I              100
ILSW                                       I   N=         100
           0           0           0           0           2           0
           0           0           0           0           0          -1
           5           0           0           0           0           0
           0           0           0           0           0           0
           1           1           0           0           0           0
           0           0      100000           0          -1           0
           0           0           0           0           0           0
           0           0           0           1           0           0
           0 -2000000000           1           0           0           0
           0           0           4          52           0           0
           0           0           0           0           0           0
           0           0           0           4           0           1
           0           0           0           0           0           0
           0           0           0           0           0           0
           0           0           0           0           0           0
           0           0           0           0           0           0
           0           0           0           0
Num RLSW                                   I               52
RLSW                                       R   N=          52
  1.00000000E+00  1.00000000E+00  1.00000000E+00  1.00000000E+00  1.00000000E+00
  0.00000000E+00  0.00000000E+00  1.00000000E+00  0.00000000E+00  0.00000000E+00
  0.00000000E+00  0.00000000E+00  1.00000000E+00  0.00000000E+00  0.00000000E+00
  0.00000000E+00  0.00000000E+00  1.00000000E+00  0.00000000E+00  0.00000000E+00
  0.00000000E+00  0.00000000E+00  1.00000000E+00  0.00000000E+00  0.00000000E+00
  0.00000000E+00  0.00000000E+00  1.00000000E+00  0.00000000E+00  0.00000000E+00
  0.00000000E+00  0.00000000E+00  1.00000000E+00  0.00000000E+00  0.00000000E+00
  0.00000000E+00  0.00000000E+00  0.00000000E+00  1.00000000E+00  1.00000000E+00
  0.00000000E+00  1.00000000E+00  0.00000000E+00  0.00000000E+00  0.00000000E+00
  0.00000000E+00  0.00000000E+00  0.00000000E+00  0.00000000E+00  0.00000000E+00
  0.00000000E+00  0.00000000E+00
MxBond                                     I                2
NBond                                      I   N=           4
           2           0           1           1
IBond                                      I   N=           8
           3           4           0           0           1           0
           1           0
RBond                                      R   N=           8
  1.00000000E+00  1.00000000E+00  0.00000000E+00  0.00000000E+00  1.00000000E+00
  0.00000000E+00  1.00000000E+00  0.00000000E+00
Virial Ratio                               R      2.000045584357201E+00
SCF Energy                                 R     -3.107475275696957E+03
MP2 Energy                                 R     -3.108178073193137E+03
Total Energy                               R     -3.108178073193137E+03
Post-SCF wavefunction norm                 R      1.105391241350639E+00
RMS Density                                R      7.194462857149237E-09
Job Status                                 I                1
Nuclear derivative order                   I                0
External E-field                           R   N=          35
  0.00000000E+00  0.00000000E+00  0.00000000E+00  0.00000000E+00  0.00000000E+00
  0.00000000E+00  0.00000000E+00  0.00000000E+00  0.00000000E+00  0.00000000E+00
  0.00000000E+00  0.00000000E+00  0.00000000E+00  0.00000000E+00  0.00000000E+00
  0.00000000E+00  0.00000000E+00  0.00000000E+00  0.00000000E+00  0.00000000E+00
  0.00000000E+00  0.00000000E+00  0.00000000E+00  0.00000000E+00  0.00000000E+00
  0.00000000E+00  0.00000000E+00  0.00000000E+00  0.00000000E+00  0.00000000E+00
  0.00000000E+00  0.00000000E+00  0.00000000E+00  0.00000000E+00  0.00000000E+00
IOpCl                                      I                0
IROHF                                      I                0
Alpha Orbital Energies                     R   N=         178
 -4.89751270E+02 -1.04734405E+02 -6.48916064E+01 -5.82461221E+01 -5.82460615E+01
 -5.82460432E+01 -2.04673496E+01 -1.04539395E+01 -9.56412753E+00 -7.92111507E+00
 -7.91844475E+00 -7.91832836E+00 -7.17190744E+00 -7.17138547E+00 -7.17134669E+00
 -2.91361411E+00 -2.91340152E+00 -2.91334609E+00 -2.91273332E+00 -2.91273242E+00
 -1.23524691E+00 -8.99164984E-01 -7.25283894E-01 -5.44583145E-01 -4.46803177E-01
 -4.38331277E-01 -3.11192089E-01 -2.84358615E-01 -1.80085500E-01 -1.71692532E-01
 -1.71205272E-01  1.54788908E-01  1.79789693E-01  2.16468242E-01  2.26676080E-01
  2.41506526E-01  2.47559601E-01  2.50159616E-01  2.84771977E-01  2.95715550E-01
  3.07052549E-01  3.27203434E-01  3.35269267E-01  3.64830970E-01  4.16370897E-01
  4.41938007E-01  4.63017382E-01  4.85821034E-01  4.89723353E-01  5.10962989E-01
  5.38711846E-01  5.44994561E-01  5.62501998E-01  5.86453356E-01  5.93422743E-01
  5.99464446E-01  6.12797571E-01  6.52159333E-01  6.86981629E-01  7.33358048E-01
  7.40261720E-01  7.55749506E-01  7.72333667E-01  7.97069349E-01  8.61314297E-01
  8.78409253E-01  8.87086180E-01  9.03818259E-01  9.44986950E-01  9.87711925E-01
  9.90856732E-01  1.00757461E+00  1.00918192E+00  1.01807954E+00  1.04478887E+00
  1.06569616E+00  1.07179564E+00  1.09377407E+00  1.09530788E+00  1.11801321E+00
  1.13528924E+00  1.16359663E+00  1.17123499E+00  1.18254921E+00  1.18927776E+00
  1.20159114E+00  1.21866522E+00  1.26004785E+00  1.29018002E+00  1.31439913E+00
  1.35433086E+00  1.37350318E+00  1.38779748E+00  1.45058917E+00  1.48936978E+00
  1.50064936E+00  1.54009699E+00  1.57050770E+00  1.59951204E+00  1.66240511E+00
  1.69411311E+00  1.70601580E+00  1.74218910E+00  1.78743954E+00  1.79433569E+00
  1.87627061E+00  1.97045477E+00  2.12422423E+00  2.34715873E+00  2.39102626E+00
  2.41404428E+00  2.45059325E+00  2.46363752E+00  2.46776663E+00  2.50815648E+00
  2.53199308E+00  2.53490728E+00  2.55253999E+00  2.55877989E+00  2.56046861E+00
  2.56769159E+00  2.58861193E+00  2.59099917E+00  2.62248096E+00  2.62837705E+00
  2.65128924E+00  2.66465965E+00  2.68867659E+00  2.69516352E+00  2.71504570E+00
  2.73262969E+00  2.75213637E+00  2.76790796E+00  2.77794881E+00  2.78281202E+00
  2.81356141E+00  2.86996947E+00  2.91590203E+00  3.03514425E+00  3.09187050E+00
  3.14873837E+00  3.18914703E+00  3.21831617E+00  3.24751854E+00  3.26612282E+00
  3.29909969E+00  3.35049826E+00  3.51792404E+00  3.54733712E+00  3.57401040E+00
  3.91963166E+00  4.15252073E+00  4.32311711E+00  4.41950031E+00  4.50792620E+00
  4.56023707E+00  4.74805166E+00  4.81037150E+00  4.97766805E+00  5.05081311E+00
  5.34272216E+00  5.42122024E+00  5.67324653E+00  6.40816240E+00  6.58309656E+00
  6.87123950E+00  6.89976625E+00  6.91728315E+00  6.99087901E+00  7.30745843E+00
  7.34045150E+00  7.34895858E+00  7.43781628E+00  7.53705786E+00  7.73862472E+00
  7.77345402E+00  8.35079164E+00  1.44401368E+01
Alpha MO coefficients                      R   N=       31684
  2.47690376E-08  1.17249883E-07 -2.27862466E-08  1.47737010E-06  4.78450032E-06
 -1.94991140E-08 -7.71546398E-09 -1.36195809E-08  9.12688533E-08  2.56062294E-08
  7.67853189E-08 -1.11359156E-06 -4.17456199E-07  1.78127366E-06  5.31965946E-07
 -1.33875835E-08  1.12952534E-06 -1.61551407E-08 -2.99926013E-08 -6.50632800E-09
  7.65654343E-09  9.14634257E-09  1.08289736E-07  2.50619886E-07  2.20036066E-08
 -2.78531123E-08 -3.75329891E-08  7.24247970E-07  2.00893941E-07 -8.34366591E-08
 -4.47226826E-07 -5.60764207E-09 -5.67897410E-08  1.49698806E-08  1.31386742E-09
  4.83802762E-08 -2.68782872E-09 -1.23373151E-08 -3.93896203E-09  7.10274562E-08
  1.24410167E-07 -1.78101989E-09  2.31706909E-08  3.54361906E-09  4.38646611E-08
  7.43425338E-09  1.00053502E+00 -1.74596577E-03 -3.66514203E-04  2.59781657E-05
 -3.84498481E-05 -1.50056256E-05  6.22690368E-07 -4.66874142E-07 -4.61577442E-08
  3.22236497E-07  2.53923784E-09  2.07662695E-08 -9.32570036E-08 -1.58778813E-06
  3.08500584E-08  2.41556779E-07  3.86807378E-07 -1.73548501E-08 -1.69068280E-08
  5.10266947E-06 -1.00300585E-07 -7.86874563E-07 -1.40678627E-07  5.46313426E-08
 -1.69195219E-08 -3.96405446E-09 -3.64461179E-08  5.26856946E-10  1.94811614E-08
  5.36691321E-09 -6.04796180E-09  5.14095943E-08 -4.32281766E-09 -1.43542736E-08
 -1.64422849E-08 -1.64162706E-07 -1.86637737E-07  1.19426423E-08  3.47956951E-07
  2.70601553E-08  8.37026705E-07  5.67706664E-07 -1.25539861E-08 -1.58296432E-06
  9.71684805E-09 -6.69736824E-08  1.23187507E-07  3.24507296E-09  8.58759302E-08
  1.22997100E-09 -1.94787841E-07  8.20133178E-09  7.60333204E-08 -1.51358445E-07
 -5.03453025E-09 -9.71255185E-08 -8.66803355E-09  2.41955652E-07 -8.91826589E-09
  4.59831397E-09  7.18521394E-08  1.79073124E-07 -5.11262026E-08 -6.26373174E-08
 -1.81072163E-07 -5.59909059E-09  5.04336598E-11 -2.78316130E-09  5.75269309E-09
 -2.14037510E-08 -1.99228495E-08  2.63651008E-08 -8.88113318E-10  1.04613386E-08
 -1.97176005E-07 -1.86753043E-07  9.41027585E-08 -1.48828316E-07  5.20010364E-08
 -1.65585250E-07 -6.47467019E-09  1.34025218E-08 -8.27535015E-09  1.53513965E-08
 -2.03381450E-08  2.34438729E-08 -3.82967829E-08  1.96771879E-08 -2.83949719E-08
  3.31779677E-08  1.52163926E-08  5.05260979E-08 -3.73441106E-08 -2.27215096E-07
 -1.99511659E-08 -3.46716287E-08  2.47156396E-08 -1.17984616E-08  1.43603153E-08
  8.08919480E-09 -1.07322214E-08 -1.37431025E-08  7.15476090E-08 -2.54046066E-08
  1.84086225E-08 -3.91818226E-08 -5.11272392E-09 -3.19344203E-08  3.35949591E-08
  7.77904628E-08  5.79815446E-07  3.25279569E-07 -6.83630606E-07  1.56363187E-07
 -1.72554095E-08  9.26496149E-08  2.11169579E-07  8.80628730E-08 -8.44079878E-07
  6.84328869E-06  4.68325705E-07 -1.32819483E-06  6.16767159E-08  1.14878727E-07
  9.47370399E-09 -7.34424550E-08 -7.82470503E-10  7.33639029E-07  4.65368310E-07
 -7.30966289E-08 -1.16064580E-06 -1.34150666E-07  5.50579185E-06  3.05036078E-05
  1.94411657E-06 -1.46629110E-04 -9.57104173E-05  2.07036079E-07  3.08388235E-06
  6.17498427E-07 -2.82255577E-06 -9.21073551E-06 -2.98925943E-06  5.09607533E-05
 -1.53979208E-04  8.61152489E-07  1.28663240E-05 -3.57038181E-05  2.45103149E-06
 -2.08277637E-06  2.48546087E-07  5.72215610E-08 -3.04822479E-06 -1.39234896E-06
  1.37730856E-05 -1.09979810E-06 -4.71395787E-07  2.08721128E-05  9.37422633E-06
  2.53240751E-05  5.10099096E-06 -4.21836084E-06  5.88883978E-05  1.23159565E-05
 -1.79020589E-07 -1.89847112E-07  7.59870998E-08 -4.96921094E-07  4.96686587E-07
 -1.51190274E-06  9.20391543E-07  2.28543605E-07 -2.79997573E-06  1.26408414E-05
  2.16150965E-06 -2.14019769E-06 -5.38668943E-06  9.17806828E-06  1.08380451E-07
  5.56398941E-07  3.26098396E-06  7.60013323E-06 -1.86150228E-07 -2.25859460E-05
 -7.72014913E-06 -7.69593191E-08  1.15042192E-08  2.16556585E-08  6.66262609E-07
 -1.65826258E-08 -2.05891017E-07  3.93019609E-06  3.49352564E-07 -1.32130684E-06
 -1.92205955E-06  1.17077404E-07  5.68337792E-07  1.79250454E-05 -3.66793470E-06
 -3.47849212E-06  2.51398442E-06  1.02984752E-07  5.06755591E-07  3.81344131E-08
  5.78256970E-08  4.62482274E-11 -8.80226398E-08  5.19375073E-08 -3.53319396E-07
 -4.82377298E-07 -2.21834417E-08  7.36233026E-07 -3.88048028E-07  2.00619486E-06
  2.52228443E-06  2.77748123E-07 -3.95054527E-06  8.84822997E-07  3.41470344E-06
  1.51735387E-06 -1.30863299E-06 -5.46003306E-06  2.30246473E-06 -7.13878663E-08
 -1.16346715E-09  5.35021003E-08 -1.01868635E-07 -7.15715740E-07 -3.49012830E-07
  1.11201468E-07  9.78487172E-07 -1.11627480E-06  1.05483634E-07 -8.95821575E-07
  1.33025782E-06  2.08312990E-06 -9.24575358E-07  9.99534854E-01  1.95361652E-03
  1.84079197E-04 -4.17598100E-04  7.24956631E-05  7.56050947E-05  1.73070599E-05
 -7.56244612E-05  1.44805491E-06  3.65257127E-05 -1.34575412E-04  2.42535957E-06
 -1.78113463E-05  7.18394490E-05 -1.35289136E-06  5.33557959E-06 -5.71793529E-05
 -2.84711514E-06  2.23852292E-06 -1.17918026E-05 -9.83297751E-07 -3.68670447E-06
  1.02503309E-07 -1.43170945E-07 -5.10232010E-06 -3.32825167E-06 -2.84202759E-05
  4.15147350E-07 -6.68601469E-07 -4.36622684E-05 -2.37799331E-05 -1.90196949E-06
 -2.96486165E-06  8.97870566E-07 -9.32346972E-06  2.14585499E-07 -5.20072785E-07
 -1.79565713E-06  6.06927805E-06  3.58474688E-07 -8.35505003E-07 -4.75815902E-06
  4.22740714E-06  1.01610040E-06 -1.00743581E-07  3.24780169E-06 -1.01338032E-06
  1.70596882E-06 -4.02948372E-06  7.01929217E-06 -1.26627179E-06 -1.99145036E-05
  4.11050707E-05 -7.07329299E-06  8.41970753E-07 -2.51681784E-06  1.65687814E-07
 -9.48920343E-06  1.64503558E-05 -9.62651925E-07  6.75424452E-06  2.09953407E-05
 -2.43305044E-06 -5.27682938E-07  2.24461503E-08 -6.22233365E-08 -9.32717540E-07
 -9.84303459E-07 -1.18288674E-05  2.98355020E-06 -1.38122509E-06  8.33329456E-06
 -3.32892928E-06  7.37292685E-08  8.47769302E-07 -1.10976530E-08  5.86638724E-06
  2.27689908E-05  9.73793351E-08  1.33705452E-09  3.30112086E-08  6.18371654E-07
  1.39503707E-07  6.19889986E-08 -5.89726864E-06 -1.14575233E-06  7.13238702E-06
  2.89487156E-06  6.60262142E-07  5.00240596E-06 -8.38057646E-08 -1.40661235E-07
 -3.87477534E-08  7.48770887E-08  4.26708760E-08  5.22881342E-07  8.95114329E-07
  1.42303202E-07 -3.88072389E-07 -1.33598283E-07  3.13585441E-06  8.02371322E-07
 -4.65163116E-07 -2.58085750E-06  3.73204182E-07 -1.54434403E-07  3.42024605E-08
  7.68583796E-09  9.11804115E-08 -2.00135740E-08 -5.09832609E-08 -2.21021136E-08
  2.16066090E-07  6.36826590E-07 -2.47994775E-08  1.61165412E-07  4.84651313E-08
 -1.25965057E-07  5.82224755E-08 -3.14071550E-01  1.04046639E+00  2.14030620E-02
  3.23589265E-05 -7.79464041E-05 -5.93345417E-05 -6.86668772E-06 -4.83128279E-05
 -7.11347605E-06  4.50074793E-05 -6.52331703E-06 -5.13988494E-07  3.87957827E-06
 -7.86643046E-06 -1.69298518E-07  2.51731651E-06  4.31702130E-06  2.48173220E-07
 -2.13188845E-06  2.71546291E-05 -2.44739728E-07 -4.76518424E-06  6.74301701E-07
  9.13797071E-08 -7.53113979E-08 -1.98557089E-07 -1.85347842E-06 -5.88652826E-09
  9.70032352E-07  2.08527889E-07 -1.29131071E-07  4.41789631E-07 -8.51179847E-09
  1.03823653E-08 -1.04386834E-07 -1.54951526E-07 -1.08369645E-06  2.71920923E-08
  7.31929497E-07  1.98634917E-07  4.37014070E-06  2.98538989E-06 -3.49739180E-08
 -8.30228768E-06  2.80464437E-08 -1.44544990E-07  4.50265447E-07  1.84650157E-08
  1.74927123E-07  2.49805512E-09 -6.87692866E-07  1.65388432E-08  4.04047341E-07
 -1.12360444E-06 -2.97219268E-08 -5.05645006E-07 -2.27584519E-08  1.65099339E-06
 -5.54052867E-08  2.60335113E-08  3.70635886E-07  9.51462713E-07 -2.84927336E-07
 -5.92419001E-07 -2.19045049E-06 -1.04652579E-08 -2.35386553E-08 -1.77472726E-08
  3.03575333E-07 -8.80929781E-08 -1.61269052E-07  2.96045449E-08  2.39582346E-08
  7.16116955E-08 -1.68874108E-06 -2.58631815E-07  7.45168741E-07 -2.97677887E-07
  4.15733386E-07 -8.99326233E-07 -5.96665618E-08  4.82978258E-08 -3.49968098E-08