title                                                                   
SP        RMP2-FC                                                     Aug-CC-pVTZ         
Number of atoms                            I                4
Info1-9                                    I   N=           9
          40          13           0           0           0         110
           1           2           1
Full Title                                 C   N=           1
title       
Route                                      C   N=           5
#p pop=NBO SP NoSymm mp2/aug-cc-pvtz density=current        
Charge                                     I               -1
Multiplicity                               I                1
Number of electrons                        I               62
Number of alpha electrons                  I               31
Number of beta electrons                   I               31
Number of basis functions                  I              178
Number of independent functions            I              178
Number of point charges in /Mol/           I                0
Number of translation vectors              I                0
Atomic numbers                             I   N=           4
           8          35          17           1
Nuclear charges                            R   N=           4
  8.00000000E+00  3.50000000E+01  1.70000000E+01  1.00000000E+00
Current cartesian coordinates              R   N=          12
  0.00000000E+00  0.00000000E+00  0.00000000E+00  5.80867318E+00  0.00000000E+00
  0.00000000E+00 -7.38733169E-01  3.09599977E+00  0.00000000E+00  1.18857666E+00
  0.00000000E+00  1.41649050E+00
Number of symbols in /Mol/                 I                0
Force Field                                I                0
Atom Types                                 C   N=           4
                                                
Int Atom Types                             I   N=           4
           0           0           0           0
MM charges                                 R   N=           4
  0.00000000E+00  0.00000000E+00  0.00000000E+00  0.00000000E+00
Integer atomic weights                     I   N=           4
          16          79          35           1
Real atomic weights                        R   N=           4
  1.59949146E+01  7.89183361E+01  3.49688527E+01  1.00782504E+00
Atom fragment info                         I   N=           4
           0           0           0           0
Atom residue num                           I   N=           4
           0           0           0           0
Nuclear spins                              I   N=           4
           0           3           3           1
Nuclear ZEff                               R   N=           4
 -5.60000000E+00 -2.45000000E+01 -1.42400000E+01 -1.00000000E+00
Nuclear ZNuc                               R   N=           4
  8.00000000E+00  3.50000000E+01  1.70000000E+01  1.00000000E+00
Nuclear QMom                               R   N=           4
  0.00000000E+00  3.13000000E+01 -8.16500000E+00  0.00000000E+00
Nuclear GFac                               R   N=           4
  0.00000000E+00  2.10639900E+00  8.21874000E-01  2.79284600E+00
MicOpt                                     I   N=           4
          -1          -1          -1          -1
Number of residues                         I                0
Number of secondary structures             I                0
Number of contracted shells                I               58
Number of primitive shells                 I              180
Pure/Cartesian d shells                    I                0
Pure/Cartesian f shells                    I                0
Highest angular momentum                   I                3
Largest degree of contraction              I               15
Shell types                                I   N=          58
           0           0           0           0           0           1
           1           1           1          -2          -2          -2
          -3          -3           0           0           0           0
           0           0           0           1           1           1
           1           1           1          -2          -2          -2
          -2          -3          -3           0           0           0
           0           0           0           1           1           1
           1           1          -2          -2          -2          -3
          -3           0           0           0           0           1
           1           1          -2          -2
Number of primitives per shell             I   N=          58
           7           6           1           1           1           3
           1           1           1           1           1           1
           1           1          15          12          10          10
           1           1           1           9           9           8
           1           1           1           7           1           1
           1           1           1          11           9           8
           1           1           1           6           6           1
           1           1           1           1           1           1
           1           3           1           1           1           1
           1           1           1           1
Shell to atom map                          I   N=          58
           1           1           1           1           1           1
           1           1           1           1           1           1
           1           1           2           2           2           2
           2           2           2           2           2           2
           2           2           2           2           2           2
           2           2           2           3           3           3
           3           3           3           3           3           3
           3           3           3           3           3           3
           3           4           4           4           4           4
           4           4           4           4
Primitive exponents                        R   N=         180
  1.53300000E+04  2.29900000E+03  5.22400000E+02  1.47300000E+02  4.75500000E+01
  1.67600000E+01  6.20700000E+00  5.22400000E+02  1.47300000E+02  4.75500000E+01
  1.67600000E+01  6.20700000E+00  6.88200000E-01  1.75200000E+00  2.38400000E-01
  7.37600000E-02  3.44600000E+01  7.74900000E+00  2.28000000E+00  7.15600000E-01
  2.14000000E-01  5.97400000E-02  2.31400000E+00  6.45000000E-01  2.14000000E-01
  1.42800000E+00  5.00000000E-01  1.06390000E+07  1.59340000E+06  3.62610000E+05
  1.02700000E+05  3.35010000E+04  1.20930000E+04  4.71590000E+03  1.95560000E+03
  8.52610000E+02  3.87670000E+02  1.82680000E+02  8.82450000E+01  3.92630000E+01
  9.40570000E+00  1.89950000E+00  3.35010000E+04  1.20930000E+04  4.71590000E+03
  1.95560000E+03  8.52610000E+02  3.87670000E+02  1.82680000E+02  8.82450000E+01
  3.92630000E+01  1.92340000E+01  9.40570000E+00  1.89950000E+00  4.71590000E+03
  8.52610000E+02  3.87670000E+02  1.82680000E+02  8.82450000E+01  3.92630000E+01
  1.92340000E+01  9.40570000E+00  4.16010000E+00  1.89950000E+00  4.71590000E+03
  8.52610000E+02  3.87670000E+02  8.82450000E+01  3.92630000E+01  1.92340000E+01
  9.40570000E+00  4.16010000E+00  1.89950000E+00  3.01140000E-01  6.04720000E-01
  1.25150000E-01  4.55930000E-02  8.67650000E+03  2.05590000E+03  6.66230000E+02
  2.53100000E+02  1.06120000E+02  4.72420000E+01  2.18250000E+01  9.96840000E+00
  1.99820000E+00  8.67650000E+03  6.66230000E+02  2.53100000E+02  1.06120000E+02
  4.72420000E+01  2.18250000E+01  9.96840000E+00  4.51710000E+00  1.99820000E+00
  6.66230000E+02  1.06120000E+02  4.72420000E+01  2.18250000E+01  9.96840000E+00
  4.51710000E+00  1.99820000E+00  2.81450000E-01  7.09880000E-01  1.02040000E-01
  3.51420000E-02  4.03830000E+02  1.21170000E+02  4.63450000E+01  1.97210000E+01
  8.86240000E+00  3.99620000E+00  1.76360000E+00  7.06190000E-01  2.63900000E-01
  1.04700000E-01  5.51500000E-01  2.58000000E-01  4.56100000E+05  6.83300000E+04
  1.55500000E+04  4.40500000E+03  1.43900000E+03  5.20400000E+02  2.03100000E+02
  8.39600000E+01  3.62000000E+01  1.58300000E+01  6.33400000E+00  4.40500000E+03
  1.43900000E+03  5.20400000E+02  2.03100000E+02  8.39600000E+01  3.62000000E+01
  1.58300000E+01  6.33400000E+00  2.69400000E+00  1.43900000E+03  2.03100000E+02
  8.39600000E+01  3.62000000E+01  1.58300000E+01  6.33400000E+00  2.69400000E+00
  4.31300000E-01  9.76800000E-01  1.62500000E-01  5.91000000E-02  6.63300000E+02
  1.56800000E+02  4.99800000E+01  1.84200000E+01  7.24000000E+00  2.92200000E+00
  1.56800000E+02  4.99800000E+01  1.84200000E+01  7.24000000E+00  2.92200000E+00
  3.81800000E-01  1.02200000E+00  1.30100000E-01  4.19000000E-02  1.04600000E+00
  3.44000000E-01  1.35000000E-01  7.06000000E-01  3.12000000E-01  3.38700000E+01
  5.09500000E+00  1.15900000E+00  3.25800000E-01  1.02700000E-01  2.52600000E-02
  1.40700000E+00  3.88000000E-01  1.02000000E-01  1.05700000E+00  2.47000000E-01
Contraction coefficients                   R   N=         180
  5.19808943E-04  4.02025621E-03  2.07128267E-02  8.10105536E-02  2.35962985E-01
  4.42653446E-01  3.57064423E-01 -4.42115008E-05 -1.22591041E-03 -1.05517725E-02
 -6.74452633E-02 -1.71198607E-01  1.07329856E+00  1.00000000E+00  1.00000000E+00
  1.00000000E+00  4.11634896E-02  2.57762836E-01  8.02419274E-01  1.00000000E+00
  1.00000000E+00  1.00000000E+00  1.00000000E+00  1.00000000E+00  1.00000000E+00
  1.00000000E+00  1.00000000E+00  5.89674518E-06  4.60752740E-05  2.42070343E-04
  1.02205299E-03  3.70930499E-03  1.19720307E-02  3.46735726E-02  8.90729487E-02
  1.93334549E-01  3.20663919E-01  3.29580713E-01  1.49250790E-01  1.55764867E-02
  7.93747636E-04  2.65221775E-04 -5.68536848E-06 -3.52666574E-05 -3.27539377E-04
 -1.87629276E-03 -1.01414527E-02 -3.80702440E-02 -9.57536910E-02 -4.73840598E-02
  3.47577995E-01  5.73945554E-01  2.14222079E-01 -1.02928963E-02  7.18105399E-06
  1.20828593E-04  4.42852463E-04  3.05163083E-03  3.69571776E-03 -4.41792565E-02
 -2.33790718E-01 -4.89037435E-02  6.44374705E-01  5.44424123E-01  2.45813907E-06
  1.21542842E-05 -4.20845287E-05 -2.71411136E-04  1.88335237E-03  1.04009470E-02
  6.18574958E-03 -1.11556547E-01 -4.47970305E-01  1.18314733E+00  1.00000000E+00
  1.00000000E+00  1.00000000E+00  4.37079993E-04  3.79355062E-03  2.05440673E-02
  7.95459389E-02  2.18602295E-01  3.89303910E-01  3.60668111E-01  1.10677963E-01
 -1.34807692E-03  1.00103778E-06 -7.06114784E-05 -1.15560817E-03 -7.09755620E-03
 -2.44937124E-02 -1.01982599E-02  2.19854720E-01  5.15741017E-01  3.67494091E-01
 -2.33484889E-05 -3.27796533E-04  4.19438933E-04 -2.20691716E-03 -6.45224464E-03
 -4.68458724E-02 -4.09196666E-02  1.01815889E+00  1.00000000E+00  1.00000000E+00
  1.00000000E+00  1.51744738E-03  1.30531170E-02  5.97884776E-02  1.75631556E-01
  3.28164786E-01  3.96050780E-01  2.81996460E-01  1.00000000E+00  1.00000000E+00
  1.00000000E+00  1.00000000E+00  1.00000000E+00  4.93229477E-05  3.83207967E-04
  2.00947816E-03  8.38950124E-03  2.94843950E-02  8.78759948E-02  2.11589759E-01
  3.65611554E-01  3.41246350E-01  1.02162570E-01  2.14249949E-03 -2.21747925E-06
 -1.71189708E-04 -1.27922846E-03 -9.32956265E-03 -3.98910062E-02 -1.05536085E-01
  9.36202446E-03  5.10511140E-01  5.73150737E-01  4.03949245E-06  2.12481765E-04
  8.59484452E-04  4.63248159E-03  4.47343490E-04 -7.38438245E-02 -3.62271994E-01
  1.16620337E+00  1.00000000E+00  1.00000000E+00  1.00000000E+00  2.47206402E-03
  1.97550234E-02  9.09917355E-02  2.63187834E-01  4.49078073E-01  3.60183072E-01
  3.03427809E-05 -1.22475826E-03 -6.01429772E-03 -2.76401323E-02  4.35105612E-04
  1.00307272E+00  1.00000000E+00  1.00000000E+00  1.00000000E+00  1.00000000E+00
  1.00000000E+00  1.00000000E+00  1.00000000E+00  1.00000000E+00  2.54948632E-02
  1.90362766E-01  8.52162022E-01  1.00000000E+00  1.00000000E+00  1.00000000E+00
  1.00000000E+00  1.00000000E+00  1.00000000E+00  1.00000000E+00  1.00000000E+00
Coordinates of each shell                  R   N=         174
  0.00000000E+00  0.00000000E+00  0.00000000E+00  0.00000000E+00  0.00000000E+00
  0.00000000E+00  0.00000000E+00  0.00000000E+00  0.00000000E+00  0.00000000E+00
  0.00000000E+00  0.00000000E+00  0.00000000E+00  0.00000000E+00  0.00000000E+00
  0.00000000E+00  0.00000000E+00  0.00000000E+00  0.00000000E+00  0.00000000E+00
  0.00000000E+00  0.00000000E+00  0.00000000E+00  0.00000000E+00  0.00000000E+00
  0.00000000E+00  0.00000000E+00  0.00000000E+00  0.00000000E+00  0.00000000E+00
  0.00000000E+00  0.00000000E+00  0.00000000E+00  0.00000000E+00  0.00000000E+00
  0.00000000E+00  0.00000000E+00  0.00000000E+00  0.00000000E+00  0.00000000E+00
  0.00000000E+00  0.00000000E+00  5.80867318E+00  0.00000000E+00  0.00000000E+00
  5.80867318E+00  0.00000000E+00  0.00000000E+00  5.80867318E+00  0.00000000E+00
  0.00000000E+00  5.80867318E+00  0.00000000E+00  0.00000000E+00  5.80867318E+00
  0.00000000E+00  0.00000000E+00  5.80867318E+00  0.00000000E+00  0.00000000E+00
  5.80867318E+00  0.00000000E+00  0.00000000E+00  5.80867318E+00  0.00000000E+00
  0.00000000E+00  5.80867318E+00  0.00000000E+00  0.00000000E+00  5.80867318E+00
  0.00000000E+00  0.00000000E+00  5.80867318E+00  0.00000000E+00  0.00000000E+00
  5.80867318E+00  0.00000000E+00  0.00000000E+00  5.80867318E+00  0.00000000E+00
  0.00000000E+00  5.80867318E+00  0.00000000E+00  0.00000000E+00  5.80867318E+00
  0.00000000E+00  0.00000000E+00  5.80867318E+00  0.00000000E+00  0.00000000E+00
  5.80867318E+00  0.00000000E+00  0.00000000E+00  5.80867318E+00  0.00000000E+00
  0.00000000E+00  5.80867318E+00  0.00000000E+00  0.00000000E+00 -7.38733169E-01
  3.09599977E+00  0.00000000E+00 -7.38733169E-01  3.09599977E+00  0.00000000E+00
 -7.38733169E-01  3.09599977E+00  0.00000000E+00 -7.38733169E-01  3.09599977E+00
  0.00000000E+00 -7.38733169E-01  3.09599977E+00  0.00000000E+00 -7.38733169E-01
  3.09599977E+00  0.00000000E+00 -7.38733169E-01  3.09599977E+00  0.00000000E+00
 -7.38733169E-01  3.09599977E+00  0.00000000E+00 -7.38733169E-01  3.09599977E+00
  0.00000000E+00 -7.38733169E-01  3.09599977E+00  0.00000000E+00 -7.38733169E-01
  3.09599977E+00  0.00000000E+00 -7.38733169E-01  3.09599977E+00  0.00000000E+00
 -7.38733169E-01  3.09599977E+00  0.00000000E+00 -7.38733169E-01  3.09599977E+00
  0.00000000E+00 -7.38733169E-01  3.09599977E+00  0.00000000E+00 -7.38733169E-01
  3.09599977E+00  0.00000000E+00  1.18857666E+00  0.00000000E+00  1.41649050E+00
  1.18857666E+00  0.00000000E+00  1.41649050E+00  1.18857666E+00  0.00000000E+00
  1.41649050E+00  1.18857666E+00  0.00000000E+00  1.41649050E+00  1.18857666E+00
  0.00000000E+00  1.41649050E+00  1.18857666E+00  0.00000000E+00  1.41649050E+00
  1.18857666E+00  0.00000000E+00  1.41649050E+00  1.18857666E+00  0.00000000E+00
  1.41649050E+00  1.18857666E+00  0.00000000E+00  1.41649050E+00
Num ILSW                                   I              100
ILSW                                       I   N=         100
           0           0           0           0           2           0
           0           0           0           0           0          -1
           5           0           0           0           0           0
           0           0           0           0           0           0
           1           1           0           0           0           0
           0           0      100000           0          -1           0
           0           0           0           0           0           0
           0           0           0           1           0           0
           0 -2000000000           1           0           0           0
           0           0           4          52           0           0
           0           0           0           0           0           0
           0           0           0           4           0           1
           0           0           0           0           0           0
           0           0           0           0           0           0
           0           0           0           0           0           0
           0           0           0           0           0           0
           0           0           0           0
Num RLSW                                   I               52
RLSW                                       R   N=          52
  1.00000000E+00  1.00000000E+00  1.00000000E+00  1.00000000E+00  1.00000000E+00
  0.00000000E+00  0.00000000E+00  1.00000000E+00  0.00000000E+00  0.00000000E+00
  0.00000000E+00  0.00000000E+00  1.00000000E+00  0.00000000E+00  0.00000000E+00
  0.00000000E+00  0.00000000E+00  1.00000000E+00  0.00000000E+00  0.00000000E+00
  0.00000000E+00  0.00000000E+00  1.00000000E+00  0.00000000E+00  0.00000000E+00
  0.00000000E+00  0.00000000E+00  1.00000000E+00  0.00000000E+00  0.00000000E+00
  0.00000000E+00  0.00000000E+00  1.00000000E+00  0.00000000E+00  0.00000000E+00
  0.00000000E+00  0.00000000E+00  0.00000000E+00  1.00000000E+00  1.00000000E+00
  0.00000000E+00  1.00000000E+00  0.00000000E+00  0.00000000E+00  0.00000000E+00
  0.00000000E+00  0.00000000E+00  0.00000000E+00  0.00000000E+00  0.00000000E+00
  0.00000000E+00  0.00000000E+00
MxBond                                     I                2
NBond                                      I   N=           4
           2           0           1           1
IBond                                      I   N=           8
           3           4           0           0           1           0
           1           0
RBond                                      R   N=           8
  1.00000000E+00  1.00000000E+00  0.00000000E+00  0.00000000E+00  1.00000000E+00
  0.00000000E+00  1.00000000E+00  0.00000000E+00
Virial Ratio                               R      2.000033980386079E+00
SCF Energy                                 R     -3.107462011858869E+03
MP2 Energy                                 R     -3.108161208587962E+03
Total Energy                               R     -3.108161208587962E+03
Post-SCF wavefunction norm                 R      1.105022746790531E+00
RMS Density                                R      6.770113812192997E-09
Job Status                                 I                1
Nuclear derivative order                   I                0
External E-field                           R   N=          35
  0.00000000E+00  0.00000000E+00  0.00000000E+00  0.00000000E+00  0.00000000E+00
  0.00000000E+00  0.00000000E+00  0.00000000E+00  0.00000000E+00  0.00000000E+00
  0.00000000E+00  0.00000000E+00  0.00000000E+00  0.00000000E+00  0.00000000E+00
  0.00000000E+00  0.00000000E+00  0.00000000E+00  0.00000000E+00  0.00000000E+00
  0.00000000E+00  0.00000000E+00  0.00000000E+00  0.00000000E+00  0.00000000E+00
  0.00000000E+00  0.00000000E+00  0.00000000E+00  0.00000000E+00  0.00000000E+00
  0.00000000E+00  0.00000000E+00  0.00000000E+00  0.00000000E+00  0.00000000E+00
IOpCl                                      I                0
IROHF                                      I                0
Alpha Orbital Energies                     R   N=         178
 -4.89735052E+02 -1.04744215E+02 -6.48753279E+01 -5.82298401E+01 -5.82297928E+01
 -5.82297409E+01 -2.04862109E+01 -1.04639338E+01 -9.54783468E+00 -7.93112798E+00
 -7.92837099E+00 -7.92819982E+00 -7.15547793E+00 -7.15517774E+00 -7.15500640E+00
 -2.89721618E+00 -2.89714941E+00 -2.89689156E+00 -2.89652299E+00 -2.89649205E+00
 -1.25799954E+00 -9.10673946E-01 -7.05310929E-01 -5.63924674E-01 -4.61880958E-01
 -4.52690283E-01 -3.22522121E-01 -2.95824702E-01 -1.59567693E-01 -1.55868615E-01
 -1.54183701E-01  1.47592175E-01  1.74770032E-01  2.16729460E-01  2.25521269E-01
  2.43764825E-01  2.51156610E-01  2.52121647E-01  2.74521741E-01  2.78044093E-01
  3.10149332E-01  3.18444444E-01  3.36080143E-01  3.63122871E-01  3.94149921E-01
  4.39634340E-01  4.54950046E-01  4.93224742E-01  4.98348132E-01  5.10133402E-01
  5.32772201E-01  5.42256762E-01  5.55102541E-01  5.60909386E-01  5.82217708E-01
  5.93112094E-01  6.00361045E-01  6.18456196E-01  6.44147675E-01  7.29343821E-01
  7.45337340E-01  7.54633031E-01  7.82161268E-01  8.20947820E-01  8.57961774E-01
  8.64322869E-01  8.77015824E-01  8.95475366E-01  9.31500545E-01  9.59481235E-01
  9.96214741E-01  1.01485270E+00  1.02470690E+00  1.03607225E+00  1.03993787E+00
  1.04139899E+00  1.06733501E+00  1.07166892E+00  1.08925803E+00  1.10516866E+00
  1.11863007E+00  1.12926564E+00  1.17001958E+00  1.18517996E+00  1.19438967E+00
  1.20438828E+00  1.21139802E+00  1.22086051E+00  1.22738364E+00  1.26219651E+00
  1.31200541E+00  1.32700680E+00  1.36226671E+00  1.38749126E+00  1.42451328E+00
  1.47446727E+00  1.49736855E+00  1.54411329E+00  1.58849697E+00  1.63161695E+00
  1.65618390E+00  1.67862950E+00  1.70004154E+00  1.71828749E+00  1.74673980E+00
  1.85700830E+00  1.96625563E+00  2.09759520E+00  2.30363990E+00  2.39915354E+00
  2.40084791E+00  2.41070176E+00  2.44978815E+00  2.46767116E+00  2.47665930E+00
  2.51446192E+00  2.53219689E+00  2.55054087E+00  2.56501393E+00  2.56732698E+00
  2.56936525E+00  2.57240121E+00  2.59395298E+00  2.60913242E+00  2.62983380E+00
  2.63510399E+00  2.64818318E+00  2.66181615E+00  2.67988960E+00  2.69569830E+00
  2.70417815E+00  2.70908826E+00  2.72018196E+00  2.75276719E+00  2.78408419E+00
  2.79669859E+00  2.86504965E+00  2.91561799E+00  2.93189641E+00  2.99272881E+00
  3.11476616E+00  3.18607446E+00  3.20846585E+00  3.21844274E+00  3.23142341E+00
  3.28974985E+00  3.33287598E+00  3.47178010E+00  3.54092813E+00  3.55405780E+00
  3.89956432E+00  3.96775360E+00  4.29599512E+00  4.36824332E+00  4.45041685E+00
  4.52294612E+00  4.60023725E+00  4.72888998E+00  4.90031413E+00  5.00270882E+00
  5.36753320E+00  5.45280062E+00  5.68221098E+00  6.36302659E+00  6.62344208E+00
  6.83845602E+00  6.89594757E+00  6.90857478E+00  6.96337141E+00  7.33004532E+00
  7.35960809E+00  7.37127656E+00  7.44895930E+00  7.46872185E+00  7.68104547E+00
  7.70294691E+00  8.39519969E+00  1.46663587E+01
Alpha MO coefficients                      R   N=       31684
 -1.34081539E-08 -9.08063944E-08 -2.75355257E-08  5.93019146E-07  2.63023736E-06
 -1.18867340E-08  4.05840613E-09 -1.94779802E-09  8.44772460E-08 -4.11282979E-08
  6.25770790E-08  9.06944591E-07  2.13793535E-07  1.10869171E-06  1.09073976E-07
  4.25949920E-07  8.38677265E-07  2.12022616E-08 -2.59107693E-08  1.00936089E-10
  3.95867763E-09  8.75344064E-09 -4.49854972E-08  2.38515360E-07  2.02909693E-09
  3.10689928E-08 -3.42473861E-08 -1.24653365E-08  3.00324909E-07  1.34986146E-07
  4.28917216E-07 -1.55830705E-07 -1.92228220E-08  2.32074636E-08  5.62167020E-11
  3.68496499E-08  9.15133436E-10 -2.74265563E-08  1.15116884E-08 -3.86807402E-08
  1.05627975E-08 -7.56649836E-09  4.81136588E-09  6.61686780E-09  1.59236821E-07
 -4.59732261E-08  1.00053502E+00 -1.74610929E-03 -3.67084962E-04  2.47406018E-05
 -3.79601234E-05 -1.23712773E-05  2.21139295E-06 -2.59214860E-08 -4.21678320E-08
  3.94964775E-07 -9.55842539E-08  2.61029328E-08 -1.41946449E-07 -9.54450633E-07
  7.79763064E-08  9.80721426E-08  2.59766381E-07 -3.35073151E-08  5.62359236E-08
  2.89028153E-06 -1.76464572E-07 -5.52744517E-07 -5.44006749E-07  6.60953538E-08
  3.00267243E-08  2.29229397E-08 -3.22682305E-08 -3.19303922E-10 -2.05968770E-08
  6.15464095E-09 -5.86587519E-08  1.28672837E-08 -2.55713684E-09  8.79706492E-08
 -1.59582953E-08  5.73781319E-08 -8.40711075E-09  8.04131571E-09 -9.09539702E-08
  1.75555733E-08  4.82436066E-07  4.50800085E-07 -2.40676893E-08 -9.52522063E-07
  8.19630961E-08 -6.21843644E-08  1.17350775E-07 -4.83118390E-09  8.91130126E-08
 -2.82090769E-09 -1.90538864E-07  3.07679522E-08  1.40208426E-07 -2.56255340E-07
  1.14133798E-08 -1.99894272E-07  6.50509531E-09  4.20762325E-07 -6.18535692E-08
  5.54255205E-09  7.61576491E-08  2.15606088E-07  7.93669286E-09 -1.15562148E-06
 -6.05233996E-07 -2.53582000E-08  1.15809873E-08 -3.04382613E-09 -2.70498764E-07
  2.00440602E-07 -4.17330438E-08  1.03268652E-07 -4.94788538E-08  1.36718967E-08
  2.94304690E-08  3.84459640E-07 -2.83992618E-07 -2.46520066E-07 -6.57513148E-09
 -4.31971225E-08 -3.67641660E-09  4.17991918E-10 -1.84302502E-08  1.46552486E-08
 -6.53290498E-09  1.03183315E-07 -2.32665429E-08  1.14589032E-07  5.16084267E-08
  9.51990516E-08 -8.07624990E-08 -8.25649997E-08  6.84936953E-08  1.94836782E-09
 -2.12561670E-07 -1.30148747E-08  7.16286975E-08 -3.43320544E-08  9.48002925E-09
  8.57413555E-09  1.96360342E-08  1.76886685E-08  6.09857080E-08 -1.28985331E-07
  3.68918426E-08  2.18986748E-08  1.54435168E-08 -6.75453104E-08 -8.96497206E-08
  1.14995430E-08 -2.12229450E-06  1.55516052E-06 -6.95044976E-07  6.51430514E-08
  8.65910842E-10  7.25174355E-08  1.73586134E-07 -4.14913741E-08  4.09921774E-07
  1.55754143E-06  4.84597753E-07 -1.10556670E-06 -8.28740438E-08 -5.58117729E-08
  1.47328269E-08  3.50206681E-08  1.69287499E-08 -1.51132817E-07  1.66070802E-07
 -1.35907220E-07  2.51937511E-07 -9.39059684E-08  6.70350545E-06  3.63907376E-05
  7.34431319E-07 -1.28578574E-04 -6.88686370E-05 -2.38841434E-07  3.24407195E-06
  4.31639083E-07  1.10696088E-06 -9.78092726E-06 -9.87264698E-07  4.95001174E-05
 -1.46089654E-04  8.03754330E-06  1.58362383E-05 -2.82734988E-05  5.92031784E-06
 -1.84961448E-06  1.91435732E-07  1.91250000E-07 -2.82188851E-06 -1.48909208E-06
  1.34810817E-05  7.68337662E-07 -1.06291752E-06  2.06824694E-05  1.00656675E-05
  2.80453885E-05  1.02027474E-05 -1.04849687E-05  5.40684912E-05  1.64552443E-05
  1.69935642E-08 -1.25954957E-07  1.02286780E-06 -7.99340352E-07  7.56317332E-07
 -9.90357200E-07  3.89030158E-07 -1.27719569E-07 -1.56754164E-06  9.06802314E-06
  4.10020930E-06 -2.94014031E-06 -7.29766234E-06  1.15344442E-05  9.77313872E-08
  5.22200941E-07  2.98530671E-06  7.04679939E-06 -7.36984135E-07 -1.12340756E-05
 -9.54579551E-06 -7.53493825E-08  1.43341115E-09 -3.19431900E-09  3.28062404E-07
 -2.94522953E-08  3.99991982E-08  2.22537937E-08 -2.96421620E-07  3.29444860E-07
 -1.45038426E-06  3.74744004E-08 -3.63309838E-08  1.33254141E-05  5.91726384E-07
 -2.64073702E-06  2.98340071E-06 -7.88430170E-08  2.43006400E-07  7.26879421E-08
  1.55004554E-09  1.05610472E-08 -1.97766704E-07 -7.77303400E-08 -5.86819870E-07
 -7.20018367E-08 -7.99561307E-08  1.42994136E-06  3.93710426E-07  1.60010271E-06
  4.50733070E-07  3.03027451E-07 -3.63917806E-06 -4.52035382E-07  2.73207422E-06
  1.59914982E-06 -8.09622257E-07 -4.55664521E-06 -3.30280765E-07  8.75402975E-08
  1.11832801E-07  3.83415285E-07 -5.54801868E-08 -3.91065974E-07 -9.36099216E-07
 -1.01638420E-06  1.31893583E-07 -1.51383502E-06 -6.56397725E-07 -3.13410598E-07
  6.55067314E-07  3.53809860E-06  1.80336253E-06  9.99534861E-01  1.95393659E-03
  1.84844834E-04 -4.17612795E-04  6.78629016E-05  6.50060177E-05  1.55893175E-05
 -7.67550423E-05  2.61586333E-06  3.41634815E-05 -1.35052857E-04  4.57009092E-06
 -1.63611635E-05  7.25299093E-05 -2.52929075E-06  8.05431424E-06 -4.99203587E-05
 -2.29054530E-06  1.00022777E-06 -1.08799994E-05 -1.45366050E-06 -3.73623752E-06
  1.37235159E-07 -9.10227485E-08 -5.69600563E-06 -3.31430556E-06 -2.77191474E-05
  7.52331090E-07 -1.88423404E-06 -4.28177751E-05 -2.31860984E-05 -3.07735048E-06
 -3.15173000E-06  6.13053281E-07 -5.52205031E-06  3.93609156E-07 -5.66855810E-07
 -1.17756380E-06  5.46208029E-06  4.13169713E-08 -1.31047280E-06 -5.41281061E-06
  4.95045235E-06  5.37526014E-07 -1.48572350E-06  4.06613326E-06 -8.49012799E-07
  2.31445267E-06 -2.57786575E-06  5.24978366E-06 -3.83856811E-07 -2.38759834E-05
  2.77277118E-06 -4.10745222E-06  1.13762943E-06 -1.73657413E-06  8.71452866E-07
 -7.21670989E-06  1.57109062E-05  2.10783393E-06  7.23542983E-06  1.10732324E-05
 -2.07482792E-06 -1.25948802E-06 -3.30441147E-07 -7.26026290E-08 -1.90627302E-06
 -7.02757634E-07 -2.76554625E-06  1.38200316E-06 -4.44015845E-07  3.20117022E-06
 -2.84186084E-06  3.92019909E-08  4.92566358E-07 -1.83311879E-07  2.11223937E-06
  1.06965259E-05  9.29390837E-08  4.99754251E-08 -3.94764069E-09  5.16721060E-07
 -9.82069778E-08  4.04507381E-07  4.68894149E-06  4.54079400E-07  3.98146639E-06
  6.50040193E-07  1.86002313E-06  3.32285782E-06  4.35822475E-08 -1.26587816E-07
 -5.77323175E-09  7.58830651E-08  4.24593253E-08 -1.43203030E-08  1.03014084E-06
  3.45173364E-08 -5.79517434E-08 -1.26802547E-07 -5.31081275E-07  1.92697794E-06
  1.35706031E-07  2.04357126E-06 -1.90661048E-07  5.29110937E-08  5.31696192E-08
  4.41504259E-09  7.78830670E-08 -5.59165115E-10 -1.13141649E-07  1.90099837E-08
 -4.30874411E-07  2.20960849E-07 -2.63981224E-08  1.95427076E-07  4.82536188E-08
  4.95843307E-07 -6.36048483E-08 -3.14071674E-01  1.04046607E+00  2.13994002E-02
  2.61666540E-05 -7.49461070E-05 -4.58604045E-05  2.82715811E-06  7.00660861E-06
 -6.79020290E-06  5.65479659E-05 -9.02659826E-07 -4.56524584E-07  4.60506450E-06
 -3.10663525E-06 -2.97130924E-08  2.19584133E-06  8.43542056E-07  1.87406320E-07
 -2.21171233E-06  1.36803164E-05 -4.56767335E-07 -4.02442586E-06 -1.43235702E-06
  1.93537488E-07  2.16168161E-07  1.01293157E-06 -1.87923229E-06 -5.15036798E-08
 -6.08996885E-07  2.81044103E-07 -4.68461326E-07  1.72025067E-07  3.74804638E-09
  6.29968364E-07 -1.33723685E-07  8.34468390E-07 -7.94411939E-08  8.75615419E-09
 -1.24278572E-06  2.37172215E-07  2.12967744E-06  2.53661236E-06 -8.97109027E-08
 -4.46639155E-06  1.63417410E-07 -2.16763715E-07  5.46142086E-07 -1.35641388E-09
  2.98145792E-07 -2.30046831E-08 -8.25798516E-07  8.68072367E-08  8.27312269E-07
 -1.20430984E-06  1.18902454E-08 -1.15035164E-06  4.63484650E-08  2.09687340E-06
 -2.18006536E-07  3.57632223E-08  5.01283720E-07  1.32747699E-06 -2.32086918E-07
 -4.14644020E-06 -3.14412368E-06 -7.77844331E-08 -1.18044221E-08 -3.64972723E-09
 -5.57224413E-07  2.60721608E-07 -9.25680826E-08  2.79019059E-07 -3.25394795E-08
  1.84828490E-08 -8.45493586E-07  1.66720663E-06 -5.97828845E-07 -7.75176519E-07
  7.83462220E-08 -3.73906287E-07 -5.03543834E-08 -3.02878494E-08 -3.11332601E-08