title                                                                   
SP        RMP2-FC                                                     Aug-CC-pVTZ         
Number of atoms                            I                4
Info1-9                                    I   N=           9
          40          13           0           0           0         110
           1           2           1
Full Title                                 C   N=           1
title       
Route                                      C   N=           5
#p pop=NBO SP NoSymm mp2/aug-cc-pvtz density=current        
Charge                                     I               -1
Multiplicity                               I                1
Number of electrons                        I               62
Number of alpha electrons                  I               31
Number of beta electrons                   I               31
Number of basis functions                  I              178
Number of independent functions            I              178
Number of point charges in /Mol/           I                0
Number of translation vectors              I                0
Atomic numbers                             I   N=           4
           8          35          17           1
Nuclear charges                            R   N=           4
  8.00000000E+00  3.50000000E+01  1.70000000E+01  1.00000000E+00
Current cartesian coordinates              R   N=          12
  0.00000000E+00  0.00000000E+00  0.00000000E+00  5.80867318E+00  0.00000000E+00
  0.00000000E+00 -7.38733169E-01  3.09599977E+00  0.00000000E+00  1.71317018E+00
  0.00000000E+00  7.98864371E-01
Number of symbols in /Mol/                 I                0
Force Field                                I                0
Atom Types                                 C   N=           4
                                                
Int Atom Types                             I   N=           4
           0           0           0           0
MM charges                                 R   N=           4
  0.00000000E+00  0.00000000E+00  0.00000000E+00  0.00000000E+00
Integer atomic weights                     I   N=           4
          16          79          35           1
Real atomic weights                        R   N=           4
  1.59949146E+01  7.89183361E+01  3.49688527E+01  1.00782504E+00
Atom fragment info                         I   N=           4
           0           0           0           0
Atom residue num                           I   N=           4
           0           0           0           0
Nuclear spins                              I   N=           4
           0           3           3           1
Nuclear ZEff                               R   N=           4
 -5.60000000E+00 -2.45000000E+01 -1.42400000E+01 -1.00000000E+00
Nuclear ZNuc                               R   N=           4
  8.00000000E+00  3.50000000E+01  1.70000000E+01  1.00000000E+00
Nuclear QMom                               R   N=           4
  0.00000000E+00  3.13000000E+01 -8.16500000E+00  0.00000000E+00
Nuclear GFac                               R   N=           4
  0.00000000E+00  2.10639900E+00  8.21874000E-01  2.79284600E+00
MicOpt                                     I   N=           4
          -1          -1          -1          -1
Number of residues                         I                0
Number of secondary structures             I                0
Number of contracted shells                I               58
Number of primitive shells                 I              180
Pure/Cartesian d shells                    I                0
Pure/Cartesian f shells                    I                0
Highest angular momentum                   I                3
Largest degree of contraction              I               15
Shell types                                I   N=          58
           0           0           0           0           0           1
           1           1           1          -2          -2          -2
          -3          -3           0           0           0           0
           0           0           0           1           1           1
           1           1           1          -2          -2          -2
          -2          -3          -3           0           0           0
           0           0           0           1           1           1
           1           1          -2          -2          -2          -3
          -3           0           0           0           0           1
           1           1          -2          -2
Number of primitives per shell             I   N=          58
           7           6           1           1           1           3
           1           1           1           1           1           1
           1           1          15          12          10          10
           1           1           1           9           9           8
           1           1           1           7           1           1
           1           1           1          11           9           8
           1           1           1           6           6           1
           1           1           1           1           1           1
           1           3           1           1           1           1
           1           1           1           1
Shell to atom map                          I   N=          58
           1           1           1           1           1           1
           1           1           1           1           1           1
           1           1           2           2           2           2
           2           2           2           2           2           2
           2           2           2           2           2           2
           2           2           2           3           3           3
           3           3           3           3           3           3
           3           3           3           3           3           3
           3           4           4           4           4           4
           4           4           4           4
Primitive exponents                        R   N=         180
  1.53300000E+04  2.29900000E+03  5.22400000E+02  1.47300000E+02  4.75500000E+01
  1.67600000E+01  6.20700000E+00  5.22400000E+02  1.47300000E+02  4.75500000E+01
  1.67600000E+01  6.20700000E+00  6.88200000E-01  1.75200000E+00  2.38400000E-01
  7.37600000E-02  3.44600000E+01  7.74900000E+00  2.28000000E+00  7.15600000E-01
  2.14000000E-01  5.97400000E-02  2.31400000E+00  6.45000000E-01  2.14000000E-01
  1.42800000E+00  5.00000000E-01  1.06390000E+07  1.59340000E+06  3.62610000E+05
  1.02700000E+05  3.35010000E+04  1.20930000E+04  4.71590000E+03  1.95560000E+03
  8.52610000E+02  3.87670000E+02  1.82680000E+02  8.82450000E+01  3.92630000E+01
  9.40570000E+00  1.89950000E+00  3.35010000E+04  1.20930000E+04  4.71590000E+03
  1.95560000E+03  8.52610000E+02  3.87670000E+02  1.82680000E+02  8.82450000E+01
  3.92630000E+01  1.92340000E+01  9.40570000E+00  1.89950000E+00  4.71590000E+03
  8.52610000E+02  3.87670000E+02  1.82680000E+02  8.82450000E+01  3.92630000E+01
  1.92340000E+01  9.40570000E+00  4.16010000E+00  1.89950000E+00  4.71590000E+03
  8.52610000E+02  3.87670000E+02  8.82450000E+01  3.92630000E+01  1.92340000E+01
  9.40570000E+00  4.16010000E+00  1.89950000E+00  3.01140000E-01  6.04720000E-01
  1.25150000E-01  4.55930000E-02  8.67650000E+03  2.05590000E+03  6.66230000E+02
  2.53100000E+02  1.06120000E+02  4.72420000E+01  2.18250000E+01  9.96840000E+00
  1.99820000E+00  8.67650000E+03  6.66230000E+02  2.53100000E+02  1.06120000E+02
  4.72420000E+01  2.18250000E+01  9.96840000E+00  4.51710000E+00  1.99820000E+00
  6.66230000E+02  1.06120000E+02  4.72420000E+01  2.18250000E+01  9.96840000E+00
  4.51710000E+00  1.99820000E+00  2.81450000E-01  7.09880000E-01  1.02040000E-01
  3.51420000E-02  4.03830000E+02  1.21170000E+02  4.63450000E+01  1.97210000E+01
  8.86240000E+00  3.99620000E+00  1.76360000E+00  7.06190000E-01  2.63900000E-01
  1.04700000E-01  5.51500000E-01  2.58000000E-01  4.56100000E+05  6.83300000E+04
  1.55500000E+04  4.40500000E+03  1.43900000E+03  5.20400000E+02  2.03100000E+02
  8.39600000E+01  3.62000000E+01  1.58300000E+01  6.33400000E+00  4.40500000E+03
  1.43900000E+03  5.20400000E+02  2.03100000E+02  8.39600000E+01  3.62000000E+01
  1.58300000E+01  6.33400000E+00  2.69400000E+00  1.43900000E+03  2.03100000E+02
  8.39600000E+01  3.62000000E+01  1.58300000E+01  6.33400000E+00  2.69400000E+00
  4.31300000E-01  9.76800000E-01  1.62500000E-01  5.91000000E-02  6.63300000E+02
  1.56800000E+02  4.99800000E+01  1.84200000E+01  7.24000000E+00  2.92200000E+00
  1.56800000E+02  4.99800000E+01  1.84200000E+01  7.24000000E+00  2.92200000E+00
  3.81800000E-01  1.02200000E+00  1.30100000E-01  4.19000000E-02  1.04600000E+00
  3.44000000E-01  1.35000000E-01  7.06000000E-01  3.12000000E-01  3.38700000E+01
  5.09500000E+00  1.15900000E+00  3.25800000E-01  1.02700000E-01  2.52600000E-02
  1.40700000E+00  3.88000000E-01  1.02000000E-01  1.05700000E+00  2.47000000E-01
Contraction coefficients                   R   N=         180
  5.19808943E-04  4.02025621E-03  2.07128267E-02  8.10105536E-02  2.35962985E-01
  4.42653446E-01  3.57064423E-01 -4.42115008E-05 -1.22591041E-03 -1.05517725E-02
 -6.74452633E-02 -1.71198607E-01  1.07329856E+00  1.00000000E+00  1.00000000E+00
  1.00000000E+00  4.11634896E-02  2.57762836E-01  8.02419274E-01  1.00000000E+00
  1.00000000E+00  1.00000000E+00  1.00000000E+00  1.00000000E+00  1.00000000E+00
  1.00000000E+00  1.00000000E+00  5.89674518E-06  4.60752740E-05  2.42070343E-04
  1.02205299E-03  3.70930499E-03  1.19720307E-02  3.46735726E-02  8.90729487E-02
  1.93334549E-01  3.20663919E-01  3.29580713E-01  1.49250790E-01  1.55764867E-02
  7.93747636E-04  2.65221775E-04 -5.68536848E-06 -3.52666574E-05 -3.27539377E-04
 -1.87629276E-03 -1.01414527E-02 -3.80702440E-02 -9.57536910E-02 -4.73840598E-02
  3.47577995E-01  5.73945554E-01  2.14222079E-01 -1.02928963E-02  7.18105399E-06
  1.20828593E-04  4.42852463E-04  3.05163083E-03  3.69571776E-03 -4.41792565E-02
 -2.33790718E-01 -4.89037435E-02  6.44374705E-01  5.44424123E-01  2.45813907E-06
  1.21542842E-05 -4.20845287E-05 -2.71411136E-04  1.88335237E-03  1.04009470E-02
  6.18574958E-03 -1.11556547E-01 -4.47970305E-01  1.18314733E+00  1.00000000E+00
  1.00000000E+00  1.00000000E+00  4.37079993E-04  3.79355062E-03  2.05440673E-02
  7.95459389E-02  2.18602295E-01  3.89303910E-01  3.60668111E-01  1.10677963E-01
 -1.34807692E-03  1.00103778E-06 -7.06114784E-05 -1.15560817E-03 -7.09755620E-03
 -2.44937124E-02 -1.01982599E-02  2.19854720E-01  5.15741017E-01  3.67494091E-01
 -2.33484889E-05 -3.27796533E-04  4.19438933E-04 -2.20691716E-03 -6.45224464E-03
 -4.68458724E-02 -4.09196666E-02  1.01815889E+00  1.00000000E+00  1.00000000E+00
  1.00000000E+00  1.51744738E-03  1.30531170E-02  5.97884776E-02  1.75631556E-01
  3.28164786E-01  3.96050780E-01  2.81996460E-01  1.00000000E+00  1.00000000E+00
  1.00000000E+00  1.00000000E+00  1.00000000E+00  4.93229477E-05  3.83207967E-04
  2.00947816E-03  8.38950124E-03  2.94843950E-02  8.78759948E-02  2.11589759E-01
  3.65611554E-01  3.41246350E-01  1.02162570E-01  2.14249949E-03 -2.21747925E-06
 -1.71189708E-04 -1.27922846E-03 -9.32956265E-03 -3.98910062E-02 -1.05536085E-01
  9.36202446E-03  5.10511140E-01  5.73150737E-01  4.03949245E-06  2.12481765E-04
  8.59484452E-04  4.63248159E-03  4.47343490E-04 -7.38438245E-02 -3.62271994E-01
  1.16620337E+00  1.00000000E+00  1.00000000E+00  1.00000000E+00  2.47206402E-03
  1.97550234E-02  9.09917355E-02  2.63187834E-01  4.49078073E-01  3.60183072E-01
  3.03427809E-05 -1.22475826E-03 -6.01429772E-03 -2.76401323E-02  4.35105612E-04
  1.00307272E+00  1.00000000E+00  1.00000000E+00  1.00000000E+00  1.00000000E+00
  1.00000000E+00  1.00000000E+00  1.00000000E+00  1.00000000E+00  2.54948632E-02
  1.90362766E-01  8.52162022E-01  1.00000000E+00  1.00000000E+00  1.00000000E+00
  1.00000000E+00  1.00000000E+00  1.00000000E+00  1.00000000E+00  1.00000000E+00
Coordinates of each shell                  R   N=         174
  0.00000000E+00  0.00000000E+00  0.00000000E+00  0.00000000E+00  0.00000000E+00
  0.00000000E+00  0.00000000E+00  0.00000000E+00  0.00000000E+00  0.00000000E+00
  0.00000000E+00  0.00000000E+00  0.00000000E+00  0.00000000E+00  0.00000000E+00
  0.00000000E+00  0.00000000E+00  0.00000000E+00  0.00000000E+00  0.00000000E+00
  0.00000000E+00  0.00000000E+00  0.00000000E+00  0.00000000E+00  0.00000000E+00
  0.00000000E+00  0.00000000E+00  0.00000000E+00  0.00000000E+00  0.00000000E+00
  0.00000000E+00  0.00000000E+00  0.00000000E+00  0.00000000E+00  0.00000000E+00
  0.00000000E+00  0.00000000E+00  0.00000000E+00  0.00000000E+00  0.00000000E+00
  0.00000000E+00  0.00000000E+00  5.80867318E+00  0.00000000E+00  0.00000000E+00
  5.80867318E+00  0.00000000E+00  0.00000000E+00  5.80867318E+00  0.00000000E+00
  0.00000000E+00  5.80867318E+00  0.00000000E+00  0.00000000E+00  5.80867318E+00
  0.00000000E+00  0.00000000E+00  5.80867318E+00  0.00000000E+00  0.00000000E+00
  5.80867318E+00  0.00000000E+00  0.00000000E+00  5.80867318E+00  0.00000000E+00
  0.00000000E+00  5.80867318E+00  0.00000000E+00  0.00000000E+00  5.80867318E+00
  0.00000000E+00  0.00000000E+00  5.80867318E+00  0.00000000E+00  0.00000000E+00
  5.80867318E+00  0.00000000E+00  0.00000000E+00  5.80867318E+00  0.00000000E+00
  0.00000000E+00  5.80867318E+00  0.00000000E+00  0.00000000E+00  5.80867318E+00
  0.00000000E+00  0.00000000E+00  5.80867318E+00  0.00000000E+00  0.00000000E+00
  5.80867318E+00  0.00000000E+00  0.00000000E+00  5.80867318E+00  0.00000000E+00
  0.00000000E+00  5.80867318E+00  0.00000000E+00  0.00000000E+00 -7.38733169E-01
  3.09599977E+00  0.00000000E+00 -7.38733169E-01  3.09599977E+00  0.00000000E+00
 -7.38733169E-01  3.09599977E+00  0.00000000E+00 -7.38733169E-01  3.09599977E+00
  0.00000000E+00 -7.38733169E-01  3.09599977E+00  0.00000000E+00 -7.38733169E-01
  3.09599977E+00  0.00000000E+00 -7.38733169E-01  3.09599977E+00  0.00000000E+00
 -7.38733169E-01  3.09599977E+00  0.00000000E+00 -7.38733169E-01  3.09599977E+00
  0.00000000E+00 -7.38733169E-01  3.09599977E+00  0.00000000E+00 -7.38733169E-01
  3.09599977E+00  0.00000000E+00 -7.38733169E-01  3.09599977E+00  0.00000000E+00
 -7.38733169E-01  3.09599977E+00  0.00000000E+00 -7.38733169E-01  3.09599977E+00
  0.00000000E+00 -7.38733169E-01  3.09599977E+00  0.00000000E+00 -7.38733169E-01
  3.09599977E+00  0.00000000E+00  1.71317018E+00  0.00000000E+00  7.98864371E-01
  1.71317018E+00  0.00000000E+00  7.98864371E-01  1.71317018E+00  0.00000000E+00
  7.98864371E-01  1.71317018E+00  0.00000000E+00  7.98864371E-01  1.71317018E+00
  0.00000000E+00  7.98864371E-01  1.71317018E+00  0.00000000E+00  7.98864371E-01
  1.71317018E+00  0.00000000E+00  7.98864371E-01  1.71317018E+00  0.00000000E+00
  7.98864371E-01  1.71317018E+00  0.00000000E+00  7.98864371E-01
Num ILSW                                   I              100
ILSW                                       I   N=         100
           0           0           0           0           2           0
           0           0           0           0           0          -1
           5           0           0           0           0           0
           0           0           0           0           0           0
           1           1           0           0           0           0
           0           0      100000           0          -1           0
           0           0           0           0           0           0
           0           0           0           1           0           0
           0 -2000000000           1           0           0           0
           0           0           4          52           0           0
           0           0           0           0           0           0
           0           0           0           4           0           1
           0           0           0           0           0           0
           0           0           0           0           0           0
           0           0           0           0           0           0
           0           0           0           0           0           0
           0           0           0           0
Num RLSW                                   I               52
RLSW                                       R   N=          52
  1.00000000E+00  1.00000000E+00  1.00000000E+00  1.00000000E+00  1.00000000E+00
  0.00000000E+00  0.00000000E+00  1.00000000E+00  0.00000000E+00  0.00000000E+00
  0.00000000E+00  0.00000000E+00  1.00000000E+00  0.00000000E+00  0.00000000E+00
  0.00000000E+00  0.00000000E+00  1.00000000E+00  0.00000000E+00  0.00000000E+00
  0.00000000E+00  0.00000000E+00  1.00000000E+00  0.00000000E+00  0.00000000E+00
  0.00000000E+00  0.00000000E+00  1.00000000E+00  0.00000000E+00  0.00000000E+00
  0.00000000E+00  0.00000000E+00  1.00000000E+00  0.00000000E+00  0.00000000E+00
  0.00000000E+00  0.00000000E+00  0.00000000E+00  1.00000000E+00  1.00000000E+00
  0.00000000E+00  1.00000000E+00  0.00000000E+00  0.00000000E+00  0.00000000E+00
  0.00000000E+00  0.00000000E+00  0.00000000E+00  0.00000000E+00  0.00000000E+00
  0.00000000E+00  0.00000000E+00
MxBond                                     I                2
NBond                                      I   N=           4
           2           0           1           1
IBond                                      I   N=           8
           3           4           0           0           1           0
           1           0
RBond                                      R   N=           8
  1.00000000E+00  1.00000000E+00  0.00000000E+00  0.00000000E+00  1.00000000E+00
  0.00000000E+00  1.00000000E+00  0.00000000E+00
Virial Ratio                               R      2.000044276706413E+00
SCF Energy                                 R     -3.107473587118034E+03
MP2 Energy                                 R     -3.108175707061657E+03
Total Energy                               R     -3.108175707061657E+03
Post-SCF wavefunction norm                 R      1.105314124515356E+00
RMS Density                                R      8.609201090417211E-09
Job Status                                 I                1
Nuclear derivative order                   I                0
External E-field                           R   N=          35
  0.00000000E+00  0.00000000E+00  0.00000000E+00  0.00000000E+00  0.00000000E+00
  0.00000000E+00  0.00000000E+00  0.00000000E+00  0.00000000E+00  0.00000000E+00
  0.00000000E+00  0.00000000E+00  0.00000000E+00  0.00000000E+00  0.00000000E+00
  0.00000000E+00  0.00000000E+00  0.00000000E+00  0.00000000E+00  0.00000000E+00
  0.00000000E+00  0.00000000E+00  0.00000000E+00  0.00000000E+00  0.00000000E+00
  0.00000000E+00  0.00000000E+00  0.00000000E+00  0.00000000E+00  0.00000000E+00
  0.00000000E+00  0.00000000E+00  0.00000000E+00  0.00000000E+00  0.00000000E+00
IOpCl                                      I                0
IROHF                                      I                0
Alpha Orbital Energies                     R   N=         178
 -4.89748784E+02 -1.04736104E+02 -6.48891057E+01 -5.82436232E+01 -5.82435623E+01
 -5.82435367E+01 -2.04704412E+01 -1.04556594E+01 -9.56161753E+00 -7.92283835E+00
 -7.92015259E+00 -7.92002790E+00 -7.16937469E+00 -7.16888805E+00 -7.16882602E+00
 -2.91108362E+00 -2.91090308E+00 -2.91081330E+00 -2.91023038E+00 -2.91022760E+00
 -1.23896335E+00 -9.01226173E-01 -7.22057674E-01 -5.47809326E-01 -4.49341284E-01
 -4.40742655E-01 -3.13014513E-01 -2.86358724E-01 -1.76886026E-01 -1.69254861E-01
 -1.68563190E-01  1.53953207E-01  1.79050585E-01  2.16786252E-01  2.26171067E-01
  2.41688558E-01  2.48171438E-01  2.50313237E-01  2.83319170E-01  2.91176383E-01
  3.08166111E-01  3.28449458E-01  3.34374016E-01  3.66198644E-01  4.10815343E-01
  4.42368849E-01  4.61299457E-01  4.87202275E-01  4.91604647E-01  5.12845692E-01
  5.37620582E-01  5.45596444E-01  5.59489948E-01  5.81187017E-01  5.92216052E-01
  5.98687285E-01  6.10864290E-01  6.50323428E-01  6.77297565E-01  7.32600113E-01
  7.41096861E-01  7.56382456E-01  7.68410929E-01  8.02765084E-01  8.63698062E-01
  8.74672287E-01  8.84365972E-01  9.01311952E-01  9.46124393E-01  9.82400633E-01
  9.87148056E-01  1.00783024E+00  1.01132323E+00  1.02026497E+00  1.04539286E+00
  1.06043786E+00  1.07231174E+00  1.09175578E+00  1.09824185E+00  1.11911637E+00
  1.12852634E+00  1.15522350E+00  1.17014694E+00  1.18125183E+00  1.19263496E+00
  1.19817258E+00  1.21730215E+00  1.25519827E+00  1.28152904E+00  1.31079853E+00
  1.35248323E+00  1.36963936E+00  1.38368228E+00  1.42384806E+00  1.48143622E+00
  1.49698959E+00  1.53946227E+00  1.56718075E+00  1.58580504E+00  1.66170105E+00
  1.68798867E+00  1.70555236E+00  1.73059337E+00  1.78097851E+00  1.79514963E+00
  1.86890072E+00  1.96921945E+00  2.11404364E+00  2.33794556E+00  2.39403555E+00
  2.41202065E+00  2.43654716E+00  2.46032109E+00  2.46762697E+00  2.50824970E+00
  2.52702616E+00  2.53646240E+00  2.55313716E+00  2.55909077E+00  2.56261214E+00
  2.56676251E+00  2.58351238E+00  2.59541314E+00  2.62523444E+00  2.62724281E+00
  2.65375621E+00  2.65799686E+00  2.68296725E+00  2.69527180E+00  2.70852569E+00
  2.72101984E+00  2.74704019E+00  2.75415325E+00  2.77244411E+00  2.78202657E+00
  2.81855219E+00  2.86677735E+00  2.90490882E+00  3.01114369E+00  3.09359075E+00
  3.12508774E+00  3.18617950E+00  3.21821383E+00  3.24304380E+00  3.25139870E+00
  3.29613272E+00  3.34979224E+00  3.51115846E+00  3.54719137E+00  3.57277012E+00
  3.91548078E+00  4.12849210E+00  4.33048907E+00  4.40011797E+00  4.50808627E+00
  4.56382031E+00  4.72349526E+00  4.75785593E+00  4.96902853E+00  5.02410337E+00
  5.35160222E+00  5.42245643E+00  5.67838259E+00  6.39763200E+00  6.59119588E+00
  6.87255290E+00  6.89793357E+00  6.91504258E+00  6.98774206E+00  7.31132622E+00
  7.34495730E+00  7.34840970E+00  7.43777431E+00  7.52874933E+00  7.73155526E+00
  7.75970204E+00  8.35585628E+00  1.44256792E+01
Alpha MO coefficients                      R   N=       31684
 -1.20418942E-08 -7.96781641E-08 -1.42028594E-08  1.19526351E-06  3.80722683E-06
 -1.55761796E-08 -8.75495319E-09 -9.44262999E-09  2.99113093E-08  2.63621118E-08
  4.18571759E-08 -3.28106173E-07 -3.16912692E-07  1.87927824E-06  3.65942520E-07
  2.35828308E-08  1.13561862E-06 -8.52773286E-09 -3.41326370E-08 -5.33357379E-09
 -2.39381501E-09  1.03657271E-08  8.15908230E-08  2.48217051E-07  1.84021871E-08
  7.41889379E-09 -4.12539130E-08  5.63744305E-07  2.82197672E-07 -2.09940174E-08
 -2.74240679E-08  3.41377233E-08 -4.93917975E-08  2.54251784E-08 -1.81729193E-10
  4.02860963E-08 -4.91183611E-09 -2.33076774E-08 -1.92908476E-09  6.78890020E-08
  8.12328109E-08 -2.09953423E-09  3.54400495E-08  1.42112379E-08  1.10672812E-07
  3.57340688E-09  1.00053502E+00 -1.74600560E-03 -3.66693051E-04  2.55931628E-05
 -3.83016811E-05 -1.42235038E-05  1.12084743E-06 -3.92302114E-07 -4.55137286E-08
  3.66672080E-07 -4.40832280E-09  2.18388088E-08 -1.15820593E-07 -1.37927238E-06
  4.03770659E-08  2.03154247E-07  3.46748951E-07 -2.03175202E-08  5.39381342E-09
  4.45487846E-06 -1.29739068E-07 -7.43005497E-07 -2.64345257E-07  6.13747839E-08
 -7.38390168E-09  1.04594541E-09 -3.99637702E-08  6.29028540E-10  1.31713024E-08
  5.91933520E-09 -1.33184103E-08  4.94457169E-08 -5.37747965E-09  5.51325587E-10
 -1.86683579E-08 -1.05145892E-07 -1.52413105E-07  1.43245979E-08  2.33264484E-07
  3.15650610E-08  7.37765980E-07  5.48010252E-07 -1.89051296E-08 -1.40751224E-06
  2.70616431E-08 -6.35643446E-08  1.15944720E-07  1.78926170E-09  8.30818818E-08
  1.52124610E-09 -1.87972178E-07  1.41939697E-08  8.52497861E-08 -1.70749697E-07
 -1.22176804E-09 -1.12623443E-07 -8.94955804E-09  2.78379473E-07 -2.30324748E-08
  6.60600064E-09  1.00525684E-07  2.57173419E-07 -5.53196523E-08 -3.23071899E-07
 -2.14937298E-07 -1.12275289E-08  1.00680225E-09 -3.63826829E-09 -6.01208356E-08
 -8.02510714E-09 -2.81944258E-08  4.93805909E-08 -8.18063045E-09  1.42573443E-08
 -2.56014228E-07 -6.55433922E-08 -6.76453957E-09 -1.59282813E-07  2.23077834E-08
 -1.52786253E-07 -5.09040908E-09  1.39660510E-08 -1.43045958E-08  1.65615331E-08
 -2.50424251E-08  4.00377154E-08 -4.66387247E-08  4.73100686E-08 -2.24463935E-08
  7.40381426E-08  2.04980484E-08  1.13479125E-08 -1.36864626E-09 -2.14716205E-07
 -2.35966407E-08 -3.42547274E-08  3.82942480E-08 -1.54984595E-08  9.76543602E-09
  4.38760583E-09 -8.03613570E-09 -1.57629463E-08  7.85628453E-08 -5.18977605E-08
  1.35810022E-08 -2.45080949E-08  1.50990100E-08 -2.42589806E-08  2.96419498E-08
  4.27392310E-08 -5.91226310E-07  1.13847010E-06 -7.14030402E-07  1.64461601E-07
 -1.46656108E-08  9.89810772E-08  3.38142355E-07  4.62715990E-08 -6.63336944E-07
  5.15768214E-06  5.46546505E-07 -1.48244000E-06  4.51052755E-08  8.10285870E-08
  1.10523155E-08 -4.88372188E-08  5.46789216E-09  5.27975902E-07  4.83310586E-07
 -9.59876747E-08 -7.87996588E-07 -1.36049789E-07  5.75474509E-06  3.17123491E-05
  1.69974657E-06 -1.42174561E-04 -8.97821714E-05  7.78380950E-08  3.13944130E-06
  6.54899784E-07 -1.83928181E-06 -9.44526898E-06 -3.07652777E-06  5.11538336E-05
 -1.53204325E-04  1.79278818E-06  1.37347561E-05 -3.42535406E-05  3.16690059E-06
 -2.02696851E-06  2.63851115E-07  8.57462918E-08 -3.00354782E-06 -1.37300495E-06
  1.34924247E-05 -9.70190899E-07 -6.37805224E-07  2.08915691E-05  9.30118609E-06
  2.55248300E-05  6.35660052E-06 -5.69610457E-06  5.80374065E-05  1.26814209E-05
 -1.62171235E-07 -1.37324081E-07  2.04874897E-07 -6.07469482E-07  6.32264915E-07
 -1.42051931E-06  8.46529011E-07  1.31807749E-07 -2.75761694E-06  1.21215749E-05
  2.67579407E-06 -2.67417207E-06 -5.71932319E-06  9.46294062E-06  1.16909691E-07
  5.95769813E-07  3.50751898E-06  8.11982266E-06 -5.28795853E-07 -2.05399440E-05
 -8.59903712E-06 -7.15946310E-08  7.49179032E-09  1.64790385E-08  5.28114642E-07
 -5.45912418E-09 -1.53422075E-07  2.56334608E-06  2.79489748E-07 -9.60464383E-07
 -1.70712446E-06  5.55890270E-08  4.49094292E-07  1.75849017E-05 -2.57249878E-06
 -3.71993696E-06  2.73060428E-06  5.89902640E-11  5.12357970E-07  3.66884440E-08
  4.73047571E-08  1.90504296E-09 -1.08657429E-07  1.80286684E-08 -3.47049665E-07
 -4.09447876E-07 -3.74531779E-08  8.70081401E-07 -1.70373946E-07  1.68207457E-06
  2.16206734E-06  3.32323962E-07 -3.71445003E-06  4.19459234E-07  3.37818723E-06
  1.71668840E-06 -1.35004930E-06 -5.55538839E-06  1.67163214E-06 -3.58779965E-08
 -2.18618904E-08  1.36769759E-07 -1.09732543E-07 -7.49936842E-07 -5.12320527E-07
 -1.43618433E-07  7.92653711E-07 -9.94036910E-07 -1.05775437E-07 -7.55642483E-07
  1.35253954E-06  2.44881771E-06 -2.04916772E-07  9.99534853E-01  1.95351607E-03
  1.83927041E-04 -4.17440944E-04  7.19101790E-05  7.41025676E-05  1.70787934E-05
 -7.58210700E-05  1.74391195E-06  3.60232069E-05 -1.34469846E-04  2.86624876E-06
 -1.75678247E-05  7.19097338E-05 -1.61286880E-06  6.20900887E-06 -5.62577478E-05
 -2.82885798E-06  2.06362723E-06 -1.17150818E-05 -1.12254002E-06 -3.69990579E-06
  1.33413410E-07 -1.59248334E-07 -5.20420447E-06 -3.33630008E-06 -2.82752020E-05
  4.58363596E-07 -8.52089343E-07 -4.34761999E-05 -2.36200594E-05 -2.22818058E-06
 -3.23652511E-06  7.85047253E-07 -8.66000729E-06  4.30314610E-08 -5.70604358E-07
 -1.66181226E-06  5.97644464E-06  4.01367801E-07 -9.87285290E-07 -4.86242200E-06
  4.34922184E-06  1.07056806E-06 -4.07472927E-07  3.36956007E-06 -1.17557900E-06
  1.96707043E-06 -3.75969449E-06  6.71014794E-06 -1.07371849E-06 -2.06145763E-05
  3.20052082E-05 -6.48608386E-06  8.25571191E-07 -2.45380245E-06  2.23930873E-07
 -8.43495815E-06  1.67028056E-05 -7.82162455E-07  8.13737720E-06  1.88359231E-05
 -2.63188669E-06 -5.48681418E-07  8.51881669E-09 -9.76634788E-08 -1.12359619E-06
 -9.58599250E-07 -9.90460835E-06  2.69579938E-06 -1.34399156E-06  6.94514115E-06
 -3.82651910E-06 -3.90859734E-08  2.03991881E-07 -2.55494510E-08  4.41650512E-06
  1.77332555E-05  9.64844250E-08 -1.20314738E-09  5.89360314E-08  4.71100511E-07
  1.42627438E-07 -6.86532105E-08 -1.94364607E-06 -9.81963177E-07  7.28511261E-06
  1.96852626E-06  7.08051714E-07  4.95531988E-06 -5.26229166E-08 -1.50125852E-07
 -3.61953180E-08  4.44841622E-08  4.83851189E-08  3.56497462E-07  9.07436614E-07
  1.34521682E-07 -1.82873407E-07 -1.53432502E-07  2.20988417E-06  1.23730185E-06
 -2.62584947E-07 -5.42179470E-07  5.45283336E-07 -1.15477466E-07  6.50809464E-08
  8.75521668E-10  6.21529635E-08 -2.79258659E-08 -7.51976599E-08 -1.20741218E-08
  1.33454371E-07  4.22857944E-07 -1.49022415E-08  2.30947027E-07  8.99740100E-08
  1.33977696E-07  4.44872110E-08 -3.14071588E-01  1.04046630E+00  2.14020243E-02
  3.05935289E-05 -7.70179300E-05 -5.60968909E-05 -4.35210666E-06 -3.94110718E-05
 -7.06579535E-06  5.14359341E-05 -5.49105023E-06 -5.02524023E-07  4.35541930E-06
 -6.39325300E-06 -1.26599056E-07  2.47267847E-06  3.54736346E-06  2.32392366E-07
 -2.27748214E-06  2.40849681E-05 -3.71208518E-07 -4.81045121E-06  8.28238560E-08
  1.16309935E-07 -3.11578488E-08  6.28838571E-08 -2.06204699E-06 -9.77536477E-09
  6.86016362E-07  2.24464178E-07 -2.07993817E-07  4.25066322E-07 -1.36836506E-08
  1.41734361E-07 -1.15804613E-07  2.19556934E-07 -8.36943062E-07  3.98541572E-08
  3.47891013E-08  2.17403519E-07  3.88085398E-06  2.98379718E-06 -6.39043458E-08
 -7.46953382E-06  9.87712002E-08 -1.27014846E-07  4.69892663E-07  1.33989598E-08
  1.55328095E-07  3.91291127E-09 -7.00946088E-07  4.15554644E-08  5.02144770E-07
 -1.21782115E-06 -1.68341970E-08 -6.47268055E-07 -2.68375177E-08  1.84000830E-06
 -1.08564001E-07  3.48384846E-08  4.99177816E-07  1.29171939E-06 -3.28140439E-07
 -1.48834816E-06 -2.14213958E-06 -3.11724189E-08 -2.63253296E-08 -2.08198794E-08
  6.25276285E-08 -1.37189704E-07 -1.99895017E-07  1.12854203E-07  2.09351957E-08
  8.58611213E-08 -1.95638726E-06  9.20447251E-08  3.99773544E-07 -3.16416137E-07
  2.70994550E-07 -8.66127683E-07 -4.93764412E-08  4.10059118E-08 -5.35512684E-08