title                                                                   
SP        RMP2-FC                                                     Aug-CC-pVTZ         
Number of atoms                            I                4
Info1-9                                    I   N=           9
          40          13           0           0           0         110
           1           2           1
Full Title                                 C   N=           1
title       
Route                                      C   N=           5
#p pop=NBO SP NoSymm mp2/aug-cc-pvtz density=current        
Charge                                     I               -1
Multiplicity                               I                1
Number of electrons                        I               62
Number of alpha electrons                  I               31
Number of beta electrons                   I               31
Number of basis functions                  I              178
Number of independent functions            I              178
Number of point charges in /Mol/           I                0
Number of translation vectors              I                0
Atomic numbers                             I   N=           4
           8          35          17           1
Nuclear charges                            R   N=           4
  8.00000000E+00  3.50000000E+01  1.70000000E+01  1.00000000E+00
Current cartesian coordinates              R   N=          12
  0.00000000E+00  0.00000000E+00  0.00000000E+00  5.80867318E+00  0.00000000E+00
  0.00000000E+00 -7.38733169E-01  3.09599977E+00  0.00000000E+00  1.53261713E+00
  0.00000000E+00  1.07315007E+00
Number of symbols in /Mol/                 I                0
Force Field                                I                0
Atom Types                                 C   N=           4
                                                
Int Atom Types                             I   N=           4
           0           0           0           0
MM charges                                 R   N=           4
  0.00000000E+00  0.00000000E+00  0.00000000E+00  0.00000000E+00
Integer atomic weights                     I   N=           4
          16          79          35           1
Real atomic weights                        R   N=           4
  1.59949146E+01  7.89183361E+01  3.49688527E+01  1.00782504E+00
Atom fragment info                         I   N=           4
           0           0           0           0
Atom residue num                           I   N=           4
           0           0           0           0
Nuclear spins                              I   N=           4
           0           3           3           1
Nuclear ZEff                               R   N=           4
 -5.60000000E+00 -2.45000000E+01 -1.42400000E+01 -1.00000000E+00
Nuclear ZNuc                               R   N=           4
  8.00000000E+00  3.50000000E+01  1.70000000E+01  1.00000000E+00
Nuclear QMom                               R   N=           4
  0.00000000E+00  3.13000000E+01 -8.16500000E+00  0.00000000E+00
Nuclear GFac                               R   N=           4
  0.00000000E+00  2.10639900E+00  8.21874000E-01  2.79284600E+00
MicOpt                                     I   N=           4
          -1          -1          -1          -1
Number of residues                         I                0
Number of secondary structures             I                0
Number of contracted shells                I               58
Number of primitive shells                 I              180
Pure/Cartesian d shells                    I                0
Pure/Cartesian f shells                    I                0
Highest angular momentum                   I                3
Largest degree of contraction              I               15
Shell types                                I   N=          58
           0           0           0           0           0           1
           1           1           1          -2          -2          -2
          -3          -3           0           0           0           0
           0           0           0           1           1           1
           1           1           1          -2          -2          -2
          -2          -3          -3           0           0           0
           0           0           0           1           1           1
           1           1          -2          -2          -2          -3
          -3           0           0           0           0           1
           1           1          -2          -2
Number of primitives per shell             I   N=          58
           7           6           1           1           1           3
           1           1           1           1           1           1
           1           1          15          12          10          10
           1           1           1           9           9           8
           1           1           1           7           1           1
           1           1           1          11           9           8
           1           1           1           6           6           1
           1           1           1           1           1           1
           1           3           1           1           1           1
           1           1           1           1
Shell to atom map                          I   N=          58
           1           1           1           1           1           1
           1           1           1           1           1           1
           1           1           2           2           2           2
           2           2           2           2           2           2
           2           2           2           2           2           2
           2           2           2           3           3           3
           3           3           3           3           3           3
           3           3           3           3           3           3
           3           4           4           4           4           4
           4           4           4           4
Primitive exponents                        R   N=         180
  1.53300000E+04  2.29900000E+03  5.22400000E+02  1.47300000E+02  4.75500000E+01
  1.67600000E+01  6.20700000E+00  5.22400000E+02  1.47300000E+02  4.75500000E+01
  1.67600000E+01  6.20700000E+00  6.88200000E-01  1.75200000E+00  2.38400000E-01
  7.37600000E-02  3.44600000E+01  7.74900000E+00  2.28000000E+00  7.15600000E-01
  2.14000000E-01  5.97400000E-02  2.31400000E+00  6.45000000E-01  2.14000000E-01
  1.42800000E+00  5.00000000E-01  1.06390000E+07  1.59340000E+06  3.62610000E+05
  1.02700000E+05  3.35010000E+04  1.20930000E+04  4.71590000E+03  1.95560000E+03
  8.52610000E+02  3.87670000E+02  1.82680000E+02  8.82450000E+01  3.92630000E+01
  9.40570000E+00  1.89950000E+00  3.35010000E+04  1.20930000E+04  4.71590000E+03
  1.95560000E+03  8.52610000E+02  3.87670000E+02  1.82680000E+02  8.82450000E+01
  3.92630000E+01  1.92340000E+01  9.40570000E+00  1.89950000E+00  4.71590000E+03
  8.52610000E+02  3.87670000E+02  1.82680000E+02  8.82450000E+01  3.92630000E+01
  1.92340000E+01  9.40570000E+00  4.16010000E+00  1.89950000E+00  4.71590000E+03
  8.52610000E+02  3.87670000E+02  8.82450000E+01  3.92630000E+01  1.92340000E+01
  9.40570000E+00  4.16010000E+00  1.89950000E+00  3.01140000E-01  6.04720000E-01
  1.25150000E-01  4.55930000E-02  8.67650000E+03  2.05590000E+03  6.66230000E+02
  2.53100000E+02  1.06120000E+02  4.72420000E+01  2.18250000E+01  9.96840000E+00
  1.99820000E+00  8.67650000E+03  6.66230000E+02  2.53100000E+02  1.06120000E+02
  4.72420000E+01  2.18250000E+01  9.96840000E+00  4.51710000E+00  1.99820000E+00
  6.66230000E+02  1.06120000E+02  4.72420000E+01  2.18250000E+01  9.96840000E+00
  4.51710000E+00  1.99820000E+00  2.81450000E-01  7.09880000E-01  1.02040000E-01
  3.51420000E-02  4.03830000E+02  1.21170000E+02  4.63450000E+01  1.97210000E+01
  8.86240000E+00  3.99620000E+00  1.76360000E+00  7.06190000E-01  2.63900000E-01
  1.04700000E-01  5.51500000E-01  2.58000000E-01  4.56100000E+05  6.83300000E+04
  1.55500000E+04  4.40500000E+03  1.43900000E+03  5.20400000E+02  2.03100000E+02
  8.39600000E+01  3.62000000E+01  1.58300000E+01  6.33400000E+00  4.40500000E+03
  1.43900000E+03  5.20400000E+02  2.03100000E+02  8.39600000E+01  3.62000000E+01
  1.58300000E+01  6.33400000E+00  2.69400000E+00  1.43900000E+03  2.03100000E+02
  8.39600000E+01  3.62000000E+01  1.58300000E+01  6.33400000E+00  2.69400000E+00
  4.31300000E-01  9.76800000E-01  1.62500000E-01  5.91000000E-02  6.63300000E+02
  1.56800000E+02  4.99800000E+01  1.84200000E+01  7.24000000E+00  2.92200000E+00
  1.56800000E+02  4.99800000E+01  1.84200000E+01  7.24000000E+00  2.92200000E+00
  3.81800000E-01  1.02200000E+00  1.30100000E-01  4.19000000E-02  1.04600000E+00
  3.44000000E-01  1.35000000E-01  7.06000000E-01  3.12000000E-01  3.38700000E+01
  5.09500000E+00  1.15900000E+00  3.25800000E-01  1.02700000E-01  2.52600000E-02
  1.40700000E+00  3.88000000E-01  1.02000000E-01  1.05700000E+00  2.47000000E-01
Contraction coefficients                   R   N=         180
  5.19808943E-04  4.02025621E-03  2.07128267E-02  8.10105536E-02  2.35962985E-01
  4.42653446E-01  3.57064423E-01 -4.42115008E-05 -1.22591041E-03 -1.05517725E-02
 -6.74452633E-02 -1.71198607E-01  1.07329856E+00  1.00000000E+00  1.00000000E+00
  1.00000000E+00  4.11634896E-02  2.57762836E-01  8.02419274E-01  1.00000000E+00
  1.00000000E+00  1.00000000E+00  1.00000000E+00  1.00000000E+00  1.00000000E+00
  1.00000000E+00  1.00000000E+00  5.89674518E-06  4.60752740E-05  2.42070343E-04
  1.02205299E-03  3.70930499E-03  1.19720307E-02  3.46735726E-02  8.90729487E-02
  1.93334549E-01  3.20663919E-01  3.29580713E-01  1.49250790E-01  1.55764867E-02
  7.93747636E-04  2.65221775E-04 -5.68536848E-06 -3.52666574E-05 -3.27539377E-04
 -1.87629276E-03 -1.01414527E-02 -3.80702440E-02 -9.57536910E-02 -4.73840598E-02
  3.47577995E-01  5.73945554E-01  2.14222079E-01 -1.02928963E-02  7.18105399E-06
  1.20828593E-04  4.42852463E-04  3.05163083E-03  3.69571776E-03 -4.41792565E-02
 -2.33790718E-01 -4.89037435E-02  6.44374705E-01  5.44424123E-01  2.45813907E-06
  1.21542842E-05 -4.20845287E-05 -2.71411136E-04  1.88335237E-03  1.04009470E-02
  6.18574958E-03 -1.11556547E-01 -4.47970305E-01  1.18314733E+00  1.00000000E+00
  1.00000000E+00  1.00000000E+00  4.37079993E-04  3.79355062E-03  2.05440673E-02
  7.95459389E-02  2.18602295E-01  3.89303910E-01  3.60668111E-01  1.10677963E-01
 -1.34807692E-03  1.00103778E-06 -7.06114784E-05 -1.15560817E-03 -7.09755620E-03
 -2.44937124E-02 -1.01982599E-02  2.19854720E-01  5.15741017E-01  3.67494091E-01
 -2.33484889E-05 -3.27796533E-04  4.19438933E-04 -2.20691716E-03 -6.45224464E-03
 -4.68458724E-02 -4.09196666E-02  1.01815889E+00  1.00000000E+00  1.00000000E+00
  1.00000000E+00  1.51744738E-03  1.30531170E-02  5.97884776E-02  1.75631556E-01
  3.28164786E-01  3.96050780E-01  2.81996460E-01  1.00000000E+00  1.00000000E+00
  1.00000000E+00  1.00000000E+00  1.00000000E+00  4.93229477E-05  3.83207967E-04
  2.00947816E-03  8.38950124E-03  2.94843950E-02  8.78759948E-02  2.11589759E-01
  3.65611554E-01  3.41246350E-01  1.02162570E-01  2.14249949E-03 -2.21747925E-06
 -1.71189708E-04 -1.27922846E-03 -9.32956265E-03 -3.98910062E-02 -1.05536085E-01
  9.36202446E-03  5.10511140E-01  5.73150737E-01  4.03949245E-06  2.12481765E-04
  8.59484452E-04  4.63248159E-03  4.47343490E-04 -7.38438245E-02 -3.62271994E-01
  1.16620337E+00  1.00000000E+00  1.00000000E+00  1.00000000E+00  2.47206402E-03
  1.97550234E-02  9.09917355E-02  2.63187834E-01  4.49078073E-01  3.60183072E-01
  3.03427809E-05 -1.22475826E-03 -6.01429772E-03 -2.76401323E-02  4.35105612E-04
  1.00307272E+00  1.00000000E+00  1.00000000E+00  1.00000000E+00  1.00000000E+00
  1.00000000E+00  1.00000000E+00  1.00000000E+00  1.00000000E+00  2.54948632E-02
  1.90362766E-01  8.52162022E-01  1.00000000E+00  1.00000000E+00  1.00000000E+00
  1.00000000E+00  1.00000000E+00  1.00000000E+00  1.00000000E+00  1.00000000E+00
Coordinates of each shell                  R   N=         174
  0.00000000E+00  0.00000000E+00  0.00000000E+00  0.00000000E+00  0.00000000E+00
  0.00000000E+00  0.00000000E+00  0.00000000E+00  0.00000000E+00  0.00000000E+00
  0.00000000E+00  0.00000000E+00  0.00000000E+00  0.00000000E+00  0.00000000E+00
  0.00000000E+00  0.00000000E+00  0.00000000E+00  0.00000000E+00  0.00000000E+00
  0.00000000E+00  0.00000000E+00  0.00000000E+00  0.00000000E+00  0.00000000E+00
  0.00000000E+00  0.00000000E+00  0.00000000E+00  0.00000000E+00  0.00000000E+00
  0.00000000E+00  0.00000000E+00  0.00000000E+00  0.00000000E+00  0.00000000E+00
  0.00000000E+00  0.00000000E+00  0.00000000E+00  0.00000000E+00  0.00000000E+00
  0.00000000E+00  0.00000000E+00  5.80867318E+00  0.00000000E+00  0.00000000E+00
  5.80867318E+00  0.00000000E+00  0.00000000E+00  5.80867318E+00  0.00000000E+00
  0.00000000E+00  5.80867318E+00  0.00000000E+00  0.00000000E+00  5.80867318E+00
  0.00000000E+00  0.00000000E+00  5.80867318E+00  0.00000000E+00  0.00000000E+00
  5.80867318E+00  0.00000000E+00  0.00000000E+00  5.80867318E+00  0.00000000E+00
  0.00000000E+00  5.80867318E+00  0.00000000E+00  0.00000000E+00  5.80867318E+00
  0.00000000E+00  0.00000000E+00  5.80867318E+00  0.00000000E+00  0.00000000E+00
  5.80867318E+00  0.00000000E+00  0.00000000E+00  5.80867318E+00  0.00000000E+00
  0.00000000E+00  5.80867318E+00  0.00000000E+00  0.00000000E+00  5.80867318E+00
  0.00000000E+00  0.00000000E+00  5.80867318E+00  0.00000000E+00  0.00000000E+00
  5.80867318E+00  0.00000000E+00  0.00000000E+00  5.80867318E+00  0.00000000E+00
  0.00000000E+00  5.80867318E+00  0.00000000E+00  0.00000000E+00 -7.38733169E-01
  3.09599977E+00  0.00000000E+00 -7.38733169E-01  3.09599977E+00  0.00000000E+00
 -7.38733169E-01  3.09599977E+00  0.00000000E+00 -7.38733169E-01  3.09599977E+00
  0.00000000E+00 -7.38733169E-01  3.09599977E+00  0.00000000E+00 -7.38733169E-01
  3.09599977E+00  0.00000000E+00 -7.38733169E-01  3.09599977E+00  0.00000000E+00
 -7.38733169E-01  3.09599977E+00  0.00000000E+00 -7.38733169E-01  3.09599977E+00
  0.00000000E+00 -7.38733169E-01  3.09599977E+00  0.00000000E+00 -7.38733169E-01
  3.09599977E+00  0.00000000E+00 -7.38733169E-01  3.09599977E+00  0.00000000E+00
 -7.38733169E-01  3.09599977E+00  0.00000000E+00 -7.38733169E-01  3.09599977E+00
  0.00000000E+00 -7.38733169E-01  3.09599977E+00  0.00000000E+00 -7.38733169E-01
  3.09599977E+00  0.00000000E+00  1.53261713E+00  0.00000000E+00  1.07315007E+00
  1.53261713E+00  0.00000000E+00  1.07315007E+00  1.53261713E+00  0.00000000E+00
  1.07315007E+00  1.53261713E+00  0.00000000E+00  1.07315007E+00  1.53261713E+00
  0.00000000E+00  1.07315007E+00  1.53261713E+00  0.00000000E+00  1.07315007E+00
  1.53261713E+00  0.00000000E+00  1.07315007E+00  1.53261713E+00  0.00000000E+00
  1.07315007E+00  1.53261713E+00  0.00000000E+00  1.07315007E+00
Num ILSW                                   I              100
ILSW                                       I   N=         100
           0           0           0           0           2           0
           0           0           0           0           0          -1
           5           0           0           0           0           0
           0           0           0           0           0           0
           1           1           0           0           0           0
           0           0      100000           0          -1           0
           0           0           0           0           0           0
           0           0           0           1           0           0
           0 -2000000000           1           0           0           0
           0           0           4          52           0           0
           0           0           0           0           0           0
           0           0           0           4           0           1
           0           0           0           0           0           0
           0           0           0           0           0           0
           0           0           0           0           0           0
           0           0           0           0           0           0
           0           0           0           0
Num RLSW                                   I               52
RLSW                                       R   N=          52
  1.00000000E+00  1.00000000E+00  1.00000000E+00  1.00000000E+00  1.00000000E+00
  0.00000000E+00  0.00000000E+00  1.00000000E+00  0.00000000E+00  0.00000000E+00
  0.00000000E+00  0.00000000E+00  1.00000000E+00  0.00000000E+00  0.00000000E+00
  0.00000000E+00  0.00000000E+00  1.00000000E+00  0.00000000E+00  0.00000000E+00
  0.00000000E+00  0.00000000E+00  1.00000000E+00  0.00000000E+00  0.00000000E+00
  0.00000000E+00  0.00000000E+00  1.00000000E+00  0.00000000E+00  0.00000000E+00
  0.00000000E+00  0.00000000E+00  1.00000000E+00  0.00000000E+00  0.00000000E+00
  0.00000000E+00  0.00000000E+00  0.00000000E+00  1.00000000E+00  1.00000000E+00
  0.00000000E+00  1.00000000E+00  0.00000000E+00  0.00000000E+00  0.00000000E+00
  0.00000000E+00  0.00000000E+00  0.00000000E+00  0.00000000E+00  0.00000000E+00
  0.00000000E+00  0.00000000E+00
MxBond                                     I                2
NBond                                      I   N=           4
           2           0           1           1
IBond                                      I   N=           8
           3           4           0           0           1           0
           1           0
RBond                                      R   N=           8
  1.00000000E+00  1.00000000E+00  0.00000000E+00  0.00000000E+00  1.00000000E+00
  0.00000000E+00  1.00000000E+00  0.00000000E+00
Virial Ratio                               R      2.000040754253684E+00
SCF Energy                                 R     -3.107469420696531E+03
MP2 Energy                                 R     -3.108170179406224E+03
Total Energy                               R     -3.108170179406224E+03
Post-SCF wavefunction norm                 R      1.105164031301166E+00
RMS Density                                R      5.554089902497358E-09
Job Status                                 I                1
Nuclear derivative order                   I                0
External E-field                           R   N=          35
  0.00000000E+00  0.00000000E+00  0.00000000E+00  0.00000000E+00  0.00000000E+00
  0.00000000E+00  0.00000000E+00  0.00000000E+00  0.00000000E+00  0.00000000E+00
  0.00000000E+00  0.00000000E+00  0.00000000E+00  0.00000000E+00  0.00000000E+00
  0.00000000E+00  0.00000000E+00  0.00000000E+00  0.00000000E+00  0.00000000E+00
  0.00000000E+00  0.00000000E+00  0.00000000E+00  0.00000000E+00  0.00000000E+00
  0.00000000E+00  0.00000000E+00  0.00000000E+00  0.00000000E+00  0.00000000E+00
  0.00000000E+00  0.00000000E+00  0.00000000E+00  0.00000000E+00  0.00000000E+00
IOpCl                                      I                0
IROHF                                      I                0
Alpha Orbital Energies                     R   N=         178
 -4.89743288E+02 -1.04739612E+02 -6.48835844E+01 -5.82381023E+01 -5.82380446E+01
 -5.82380060E+01 -2.04770215E+01 -1.04592219E+01 -9.55608634E+00 -7.92640765E+00
 -7.92369060E+00 -7.92354743E+00 -7.16379663E+00 -7.16338599E+00 -7.16327565E+00
 -2.90551492E+00 -2.90539041E+00 -2.90522654E+00 -2.90472358E+00 -2.90471259E+00
 -1.24688486E+00 -9.05423374E-01 -7.15146521E-01 -5.54631210E-01 -4.54660385E-01
 -4.45814066E-01 -3.16961245E-01 -2.90467253E-01 -1.69855984E-01 -1.63884625E-01
 -1.62780748E-01  1.51774849E-01  1.77357053E-01  2.17200224E-01  2.25432009E-01
  2.42271323E-01  2.49472176E-01  2.50848761E-01  2.79883194E-01  2.84258210E-01
  3.09745272E-01  3.28399814E-01  3.32513400E-01  3.66353836E-01  4.01934032E-01
  4.42341389E-01  4.58425819E-01  4.90028014E-01  4.95089759E-01  5.13967058E-01
  5.35434578E-01  5.46260570E-01  5.55068535E-01  5.71418502E-01  5.88213128E-01
  5.97497887E-01  6.05372008E-01  6.46650051E-01  6.53638411E-01  7.31070405E-01
  7.42976793E-01  7.55580468E-01  7.69361453E-01  8.11689120E-01  8.65674700E-01
  8.68118621E-01  8.80427624E-01  8.98386230E-01  9.44591569E-01  9.72168905E-01
  9.87346716E-01  1.00832033E+00  1.01685762E+00  1.02649560E+00  1.04204445E+00
  1.04881384E+00  1.07402835E+00  1.08644839E+00  1.09736029E+00  1.10727187E+00
  1.12479721E+00  1.13899495E+00  1.17285052E+00  1.18459027E+00  1.19537774E+00
  1.20537018E+00  1.21548206E+00  1.23856880E+00  1.26810367E+00  1.28481732E+00
  1.34075455E+00  1.35257404E+00  1.36797656E+00  1.40121326E+00  1.46297629E+00
  1.48795479E+00  1.52098859E+00  1.56177448E+00  1.58102241E+00  1.64874745E+00
  1.68391707E+00  1.69606369E+00  1.70718770E+00  1.76417172E+00  1.78089909E+00
  1.85994784E+00  1.96722862E+00  2.10163818E+00  2.31994369E+00  2.39742730E+00
  2.40619959E+00  2.41260503E+00  2.46073687E+00  2.46724690E+00  2.50345215E+00
  2.51439223E+00  2.53843578E+00  2.55240493E+00  2.56211566E+00  2.56400945E+00
  2.56886966E+00  2.57392037E+00  2.60334134E+00  2.61671616E+00  2.63161609E+00
  2.64522619E+00  2.65667052E+00  2.67751074E+00  2.68568513E+00  2.69820552E+00
  2.70895666E+00  2.72567472E+00  2.73969791E+00  2.75020655E+00  2.78519207E+00
  2.81168356E+00  2.86227281E+00  2.92395737E+00  2.97568195E+00  3.05262754E+00
  3.10371009E+00  3.18541160E+00  3.21574070E+00  3.22940122E+00  3.23665133E+00
  3.29251315E+00  3.34400041E+00  3.49680325E+00  3.54772664E+00  3.56290516E+00
  3.90787935E+00  4.04715460E+00  4.33703897E+00  4.39355338E+00  4.49302278E+00
  4.56254997E+00  4.65125220E+00  4.72942302E+00  4.93511789E+00  5.00193587E+00
  5.35746497E+00  5.43437839E+00  5.68357340E+00  6.37879048E+00  6.61241297E+00
  6.86411046E+00  6.89520985E+00  6.90919107E+00  6.97932375E+00  7.32074854E+00
  7.34784378E+00  7.35531219E+00  7.44642954E+00  7.50406047E+00  7.71377377E+00
  7.73654432E+00  8.37097106E+00  1.44847324E+01
Alpha MO coefficients                      R   N=       31684
 -4.51338180E-08 -2.57608148E-07 -1.15253155E-08  9.01858578E-07  2.81450485E-06
 -1.67301331E-08 -6.96730337E-09  6.63624403E-10  2.68382480E-08  1.21919284E-08
 -1.38958027E-08  7.60275806E-07 -1.21614651E-07  1.78134122E-06  2.01400292E-07
  1.62680767E-07  1.03624426E-06  6.12567460E-09 -3.67468322E-08 -2.74217003E-09
 -9.57417756E-09  1.13579399E-08 -3.46669548E-09  2.41350306E-07  1.02201839E-08
  6.60916553E-08 -4.44004064E-08  2.95105324E-07  3.93949511E-07  9.97715595E-08
  4.59690175E-07  2.96219853E-08 -3.49918299E-08  2.46941171E-08 -3.39567825E-09
  2.94093602E-08 -5.66364843E-09 -2.73423522E-08  4.41262982E-09  2.41377393E-08
  1.37688454E-08  2.93899209E-09  5.26374104E-08  2.36575245E-08  1.74593491E-07
 -1.72190454E-08  1.00053502E+00 -1.74605949E-03 -3.66905737E-04  2.51351881E-05
 -3.81058117E-05 -1.32804469E-05  1.74818251E-06 -2.36161968E-07 -4.42110504E-08
  4.10193930E-07 -3.22771683E-08  2.37210276E-08 -1.42963698E-07 -1.09904643E-06
  5.76383360E-08  1.30885989E-07  2.83703858E-07 -2.56471697E-08  4.21424264E-08
  3.65609713E-06 -1.67688722E-07 -6.55620401E-07 -4.30304003E-07  6.83600515E-08
  1.20623592E-08  1.15345622E-08 -4.03075882E-08  4.63608146E-10 -2.02900047E-09
  6.62548383E-09 -3.34168887E-08  3.54584882E-08 -5.42531079E-09  4.24161997E-08
 -2.09775735E-08 -1.00472069E-08 -7.17834074E-08  1.41576518E-08  3.75477973E-08
  3.45204204E-08  6.17005063E-07  5.03894885E-07 -2.70945710E-08 -1.18457330E-06
  5.66566295E-08 -5.90978756E-08  1.14246943E-07 -1.54474756E-09  8.10338470E-08
  3.83195477E-10 -1.87914906E-07  2.46104820E-08  1.08740800E-07 -2.16696997E-07
  6.30390102E-09 -1.51366869E-07 -3.70493338E-09  3.59207527E-07 -4.86123729E-08
  8.09333608E-09  1.19095861E-07  3.14693402E-07 -4.25467683E-08 -7.41372148E-07
 -3.50669754E-07 -1.99170663E-08  4.40973426E-09 -4.98989409E-09 -1.73678009E-07
  5.19205253E-08 -4.67127416E-08  8.41325166E-08 -2.48801596E-08  2.06856202E-08
 -2.40914091E-07  1.29484924E-07 -2.01435482E-07 -1.91647754E-07 -8.06214269E-09
 -1.09323101E-07 -3.75730707E-09  1.09582749E-08 -2.34761215E-08  1.70142028E-08
 -2.48020992E-08  6.86419523E-08 -5.10333822E-08  1.02870500E-07 -1.92455055E-09
  1.20843627E-07 -1.29607575E-08 -6.26819512E-08  6.04977871E-08 -1.58140141E-07
 -7.48115291E-08 -2.73067899E-08  5.73082352E-08 -2.43426429E-08  4.38250564E-09
  5.91303816E-10  3.11302947E-09 -8.31390279E-09  8.22428396E-08 -9.22031341E-08
  2.15873274E-08  7.07709002E-09  4.10416270E-08 -2.71481991E-08 -3.51541546E-09
  2.86637210E-09 -2.10886537E-06  1.99506754E-06 -7.24464209E-07  1.46875669E-07
 -9.26929749E-09  9.99441599E-08  3.92979639E-07 -1.16897672E-08 -1.18208455E-07
  2.99206066E-06  6.11493578E-07 -1.52286586E-06 -1.81433260E-08 -2.34654767E-09
  1.30830894E-08  6.97994118E-09  1.34809235E-08  1.65936536E-07  4.00127057E-07
 -1.31701854E-07 -1.93867078E-07 -1.28709558E-07  6.21245108E-06  3.39421187E-05
  1.23956259E-06 -1.34778312E-04 -7.91620498E-05 -1.16804209E-07  3.21786717E-06
  6.10807124E-07 -2.24610254E-07 -9.75807295E-06 -2.56946520E-06  5.08785220E-05
 -1.50629968E-04  4.39540714E-06  1.49726766E-05 -3.13442169E-05  4.51908284E-06
 -1.94077316E-06  2.44603087E-07  1.42249132E-07 -2.91160006E-06 -1.38181340E-06
  1.32320773E-05 -3.56933456E-07 -9.29172542E-07  2.08231410E-05  9.40870542E-06
  2.62572117E-05  8.59125697E-06 -8.35521987E-06  5.63054791E-05  1.38997619E-05
 -7.47078650E-08 -9.45648528E-08  5.34819424E-07 -7.72221552E-07  8.02262979E-07
 -1.23811502E-06  6.59854505E-07 -9.11733120E-08 -2.39319428E-06  1.08405672E-05
  3.51501996E-06 -3.30374452E-06 -6.38232327E-06  1.02605518E-05  1.18884890E-07
  6.09981763E-07  3.57564754E-06  8.28237274E-06 -8.34990958E-07 -1.66330249E-05
 -9.79086273E-06 -6.91185290E-08  2.59205233E-09  5.17156581E-09  3.75598320E-07
 -5.14643077E-09 -4.35334546E-08  8.82244514E-07  4.06835631E-08 -2.30841630E-07
 -1.49531960E-06  4.43776701E-09  1.82874008E-07  1.64599237E-05 -8.29571717E-07
 -3.61466023E-06  3.00594965E-06 -1.09878863E-07  4.15959239E-07  4.60020701E-08
  2.00826151E-08  6.42849701E-09 -1.48701220E-07 -3.70872854E-08 -4.18483653E-07
 -2.19390669E-07 -6.62205200E-08  1.13480607E-06  1.68483686E-07  1.48951985E-06
  1.27634683E-06  3.75516068E-07 -3.59350695E-06 -1.87383797E-07  3.20529383E-06
  1.87049966E-06 -1.21289362E-06 -5.45109424E-06  6.14189047E-07  5.38967940E-08
 -1.35107418E-08  2.79459408E-07 -1.18215798E-07 -6.70153349E-07 -7.44860830E-07
 -6.01176491E-07  3.80701500E-07 -1.08942574E-06 -4.37993830E-07 -4.54133584E-07
  1.14911972E-06  3.06400661E-06  9.48445778E-07  9.99534858E-01  1.95354834E-03
  1.84091288E-04 -4.17350498E-04  7.00890468E-05  7.01489376E-05  1.65384651E-05
 -7.62310257E-05  2.22255820E-06  3.52029367E-05 -1.34484404E-04  3.62571635E-06
 -1.70976907E-05  7.21234482E-05 -2.05534961E-06  7.25533629E-06 -5.35986165E-05
 -2.47150093E-06  1.63605832E-06 -1.14069297E-05 -1.31613473E-06 -3.71652026E-06
  1.64209818E-07 -1.57666778E-07 -5.42363691E-06 -3.33620250E-06 -2.80121526E-05
  5.65424086E-07 -1.26158749E-06 -4.30736948E-05 -2.33990720E-05 -2.65546231E-06
 -3.39204865E-06  5.15214509E-07 -7.28947126E-06  5.46271483E-08 -5.92487285E-07
 -1.41582955E-06  5.76686986E-06  3.62438786E-07 -1.19726361E-06 -5.10183882E-06
  4.58856063E-06  9.38249167E-07 -9.79249027E-07  3.63048521E-06 -1.25115464E-06
  2.26315038E-06 -3.21227367E-06  6.07078486E-06 -7.53560260E-07 -2.24819509E-05
  1.75033064E-05 -5.23520023E-06  8.67602581E-07 -2.24638276E-06  4.04045006E-07
 -6.98306990E-06  1.68033559E-05  5.48644303E-08  9.34629083E-06  1.50757542E-05
 -2.92661344E-06 -6.72737593E-07 -8.39806315E-08 -1.40214339E-07 -1.53910959E-06
 -8.75494430E-07 -6.43852778E-06  1.88852043E-06 -1.08222003E-06  4.98959748E-06
 -4.05814485E-06 -9.41557126E-08 -1.62640684E-07 -1.00020845E-07  3.12084066E-06
  1.26335781E-05  6.83536964E-08  1.08445693E-08  7.65550412E-08  5.55969387E-07
  7.73598777E-08 -1.08530983E-07  3.40357497E-06 -4.82799833E-07  6.52639988E-06
  1.04575638E-06  1.14274793E-06  4.38400331E-06  6.51325030E-09 -1.51725860E-07
 -2.66350304E-08  3.24362696E-08  5.35251527E-08  1.81833805E-08  9.89833509E-07
  1.02517087E-07  8.26966568E-08 -1.70822089E-07  7.13027071E-07  1.94812005E-06
  8.98931218E-08  1.79708225E-06  4.89865413E-07 -3.34656448E-08  7.12402138E-08
 -1.04250563E-08  4.27150095E-08 -2.71215718E-08 -8.27160046E-08  1.06045004E-08
 -1.68804746E-07  1.62662295E-07  1.27814038E-08  3.27611626E-07  1.17502127E-07
  4.06897290E-07 -1.87383085E-08 -3.14071633E-01  1.04046620E+00  2.14007167E-02
  2.84995583E-05 -7.58174880E-05 -5.17174415E-05 -8.33700650E-07 -2.00924152E-05
 -6.97310389E-06  5.80605190E-05 -3.45018466E-06 -4.84022888E-07  4.79518899E-06
 -4.40951077E-06 -7.22627891E-08  2.29693564E-06  2.17968195E-06  2.13067601E-07
 -2.34218445E-06  1.96727184E-05 -5.05535455E-07 -4.73192630E-06 -7.38585989E-07
  1.52185190E-07  7.05380915E-08  5.48119030E-07 -2.17184772E-06 -2.38289831E-08
  9.70421146E-08  2.54689961E-07 -3.58137292E-07  3.12524725E-07 -1.28482038E-08
  4.23329172E-07 -1.36730727E-07  7.00934904E-07 -3.19362735E-07  3.95504603E-08
 -9.55579933E-07  2.55944878E-07  3.17293102E-06  2.91845011E-06 -1.02354194E-07
 -6.25014947E-06  1.82061202E-07 -1.44276440E-07  5.32732221E-07  3.09423529E-09
  1.87759293E-07 -3.53188377E-09 -7.77289205E-07  7.94342701E-08  7.09063574E-07
 -1.32866949E-06  7.84301169E-09 -9.55679665E-07 -2.82706554E-09  2.14640811E-06
 -2.02303162E-07  4.26363396E-08  6.09807920E-07  1.59302649E-06 -3.39685372E-07
 -3.00504809E-06 -2.49138748E-06 -6.03958282E-08 -2.34446504E-08 -2.11248929E-08
 -3.04686288E-07 -5.57537020E-08 -2.35152684E-07  2.24815829E-07 -1.14587165E-09
  9.01306879E-08 -1.91849333E-06  7.81957959E-07 -2.57749325E-07 -4.54052723E-07
  1.17683055E-07 -6.98525811E-07 -4.32517710E-08  9.37972633E-09 -6.96949278E-08