 Entering Gaussian System, Link 0=g16
 Input=brhocl_30_sp.gjf
 Output=brhocl_30_sp.log
 Initial command:
 /sw/contrib/gaussian/g16/B01/g16/l1.exe "/scr/Gau-25131.inp" -scrdir="/scr/"
 Entering Link 1 = /sw/contrib/gaussian/g16/B01/g16/l1.exe PID=     25132.
  
 Copyright (c) 1988-2017, Gaussian, Inc.  All Rights Reserved.
  
 This is part of the Gaussian(R) 16 program.  It is based on
 the Gaussian(R) 09 system (copyright 2009, Gaussian, Inc.),
 the Gaussian(R) 03 system (copyright 2003, Gaussian, Inc.),
 the Gaussian(R) 98 system (copyright 1998, Gaussian, Inc.),
 the Gaussian(R) 94 system (copyright 1995, Gaussian, Inc.),
 the Gaussian 92(TM) system (copyright 1992, Gaussian, Inc.),
 the Gaussian 90(TM) system (copyright 1990, Gaussian, Inc.),
 the Gaussian 88(TM) system (copyright 1988, Gaussian, Inc.),
 the Gaussian 86(TM) system (copyright 1986, Carnegie Mellon
 University), and the Gaussian 82(TM) system (copyright 1983,
 Carnegie Mellon University). Gaussian is a federally registered
 trademark of Gaussian, Inc.
  
 This software contains proprietary and confidential information,
 including trade secrets, belonging to Gaussian, Inc.
  
 This software is provided under written license and may be
 used, copied, transmitted, or stored only in accord with that
 written license.
  
 The following legend is applicable only to US Government
 contracts under FAR:
  
                    RESTRICTED RIGHTS LEGEND
  
 Use, reproduction and disclosure by the US Government is
 subject to restrictions as set forth in subparagraphs (a)
 and (c) of the Commercial Computer Software - Restricted
 Rights clause in FAR 52.227-19.
  
 Gaussian, Inc.
 340 Quinnipiac St., Bldg. 40, Wallingford CT 06492
  
  
 ---------------------------------------------------------------
 Warning -- This program may not be used in any manner that
 competes with the business of Gaussian, Inc. or will provide
 assistance to any competitor of Gaussian, Inc.  The licensee
 of this program is prohibited from giving any competitor of
 Gaussian, Inc. access to this program.  By using this program,
 the user acknowledges that Gaussian, Inc. is engaged in the
 business of creating and licensing software in the field of
 computational chemistry and represents and warrants to the
 licensee that it is not a competitor of Gaussian, Inc. and that
 it will not use this program in any manner prohibited above.
 ---------------------------------------------------------------
  

 Cite this work as:
 Gaussian 16, Revision B.01,
 M. J. Frisch, G. W. Trucks, H. B. Schlegel, G. E. Scuseria, 
 M. A. Robb, J. R. Cheeseman, G. Scalmani, V. Barone, 
 G. A. Petersson, H. Nakatsuji, X. Li, M. Caricato, A. V. Marenich, 
 J. Bloino, B. G. Janesko, R. Gomperts, B. Mennucci, H. P. Hratchian, 
 J. V. Ortiz, A. F. Izmaylov, J. L. Sonnenberg, D. Williams-Young, 
 F. Ding, F. Lipparini, F. Egidi, J. Goings, B. Peng, A. Petrone, 
 T. Henderson, D. Ranasinghe, V. G. Zakrzewski, J. Gao, N. Rega, 
 G. Zheng, W. Liang, M. Hada, M. Ehara, K. Toyota, R. Fukuda, 
 J. Hasegawa, M. Ishida, T. Nakajima, Y. Honda, O. Kitao, H. Nakai, 
 T. Vreven, K. Throssell, J. A. Montgomery, Jr., J. E. Peralta, 
 F. Ogliaro, M. J. Bearpark, J. J. Heyd, E. N. Brothers, K. N. Kudin, 
 V. N. Staroverov, T. A. Keith, R. Kobayashi, J. Normand, 
 K. Raghavachari, A. P. Rendell, J. C. Burant, S. S. Iyengar, 
 J. Tomasi, M. Cossi, J. M. Millam, M. Klene, C. Adamo, R. Cammi, 
 J. W. Ochterski, R. L. Martin, K. Morokuma, O. Farkas, 
 J. B. Foresman, and D. J. Fox, Gaussian, Inc., Wallingford CT, 2016.
 
 ******************************************
 Gaussian 16:  ES64L-G16RevB.01 20-Dec-2017
                23-Sep-2021 
 ******************************************
 %nproc=28
 Will use up to   28 processors via shared memory.
 %mem=120GB
 %chk=/gscratch/ilahie/mccoygrp/coire_hocl/brhocl/brhocl_30_sp.chk
 ----------------------------------------------------
 #p pop=NBO SP NoSymm mp2/aug-cc-pvtz density=current
 ----------------------------------------------------
 1/30=1,38=1,172=1/1;
 2/12=2,15=1,17=6,18=5,40=1/2;
 3/5=16,6=1,7=10,11=9,25=1,30=1,71=1/1,2,3;
 4//1;
 5/5=2,38=5/2;
 8/6=4,10=1/1;
 9/15=1,16=-3/6;
 10/5=1,13=10,31=1/2;
 6/7=2,8=2,9=2,10=2,22=-1,40=1/1,7;
 99/5=1,9=1/99;
 Leave Link    1 at Thu Sep 23 16:34:20 2021, MaxMem= 16106127360 cpu:               1.8 elap:               0.1
 (Enter /sw/contrib/gaussian/g16/B01/g16/l101.exe)
 -----
 title
 -----
 Symbolic Z-matrix:
 Charge = -1 Multiplicity = 1
 O                     0.        0.        0. 
 Br                    3.07382   0.        0. 
 Cl                   -0.39092   1.63833   0. 
 H                     0.86173   0.        0.49752 
 
 ITRead=  0  0  0  0
 MicOpt= -1 -1 -1 -1
 NAtoms=      4 NQM=        4 NQMF=       0 NMMI=      0 NMMIF=      0
                NMic=       0 NMicF=      0.
                    Isotopes and Nuclear Properties:
 (Nuclear quadrupole moments (NQMom) in fm**2, nuclear magnetic moments (NMagM)
  in nuclear magnetons)

  Atom         1           2           3           4
 IAtWgt=          16          79          35           1
 AtmWgt=  15.9949146  78.9183361  34.9688527   1.0078250
 NucSpn=           0           3           3           1
 AtZEff=  -0.0000000  -0.0000000  -0.0000000  -0.0000000
 NQMom=    0.0000000  31.3000000  -8.1650000   0.0000000
 NMagM=    0.0000000   2.1063990   0.8218740   2.7928460
 AtZNuc=   8.0000000  35.0000000  17.0000000   1.0000000
 Leave Link  101 at Thu Sep 23 16:34:20 2021, MaxMem= 16106127360 cpu:               2.1 elap:               0.1
 (Enter /sw/contrib/gaussian/g16/B01/g16/l202.exe)
                          Input orientation:                          
 ---------------------------------------------------------------------
 Center     Atomic      Atomic             Coordinates (Angstroms)
 Number     Number       Type             X           Y           Z
 ---------------------------------------------------------------------
      1          8           0        0.000000    0.000000    0.000000
      2         35           0        3.073817    0.000000    0.000000
      3         17           0       -0.390921    1.638333    0.000000
      4          1           0        0.861730    0.000000    0.497520
 ---------------------------------------------------------------------
                    Distance matrix (angstroms):
                    1          2          3          4
     1  O    0.000000
     2  Br   3.073817   0.000000
     3  Cl   1.684326   3.832564   0.000000
     4  H    0.995040   2.267346   2.121507   0.000000
 Symmetry turned off by external request.
 Stoichiometry    BrClHO(1-)
 Framework group  C1[X(BrClHO)]
 Deg. of freedom     6
 Full point group                 C1      NOp   1
 Rotational constants (GHZ):          22.3207645           1.2794640           1.2114989
 Leave Link  202 at Thu Sep 23 16:34:21 2021, MaxMem= 16106127360 cpu:               0.2 elap:               0.0
 (Enter /sw/contrib/gaussian/g16/B01/g16/l301.exe)
 Standard basis: Aug-CC-pVTZ (5D, 7F)
 Ernie: Thresh=  0.10000D-02 Tol=  0.10000D-05 Strict=F.
 Ernie:  48 primitive shells out of 228 were deleted.
   178 basis functions,   430 primitive gaussians,   208 cartesian basis functions
    31 alpha electrons       31 beta electrons
       nuclear repulsion energy       189.7495004552 Hartrees.
 IExCor=    0 DFT=F Ex=HF Corr=None ExCW=0 ScaHFX=  1.000000
 ScaDFX=  1.000000  1.000000  1.000000  1.000000 ScalE2=  1.000000  1.000000
 IRadAn=      5 IRanWt=     -1 IRanGd=            0 ICorTp=0 IEmpDi=  4
 NAtoms=    4 NActive=    4 NUniq=    4 SFac= 1.00D+00 NAtFMM=   60 NAOKFM=F Big=F
 Integral buffers will be    131072 words long.
 Raffenetti 1 integral format.
 Two-electron integral symmetry is turned off.
 Leave Link  301 at Thu Sep 23 16:34:21 2021, MaxMem= 16106127360 cpu:               1.1 elap:               0.1
 (Enter /sw/contrib/gaussian/g16/B01/g16/l302.exe)
 NPDir=0 NMtPBC=     1 NCelOv=     1 NCel=       1 NClECP=     1 NCelD=      1
         NCelK=      1 NCelE2=     1 NClLst=     1 CellRange=     0.0.
 One-electron integrals computed using PRISM.
 NBasis=   178 RedAO= T EigKep=  2.83D-04  NBF=   178
 NBsUse=   178 1.00D-06 EigRej= -1.00D+00 NBFU=   178
 Leave Link  302 at Thu Sep 23 16:34:21 2021, MaxMem= 16106127360 cpu:               5.0 elap:               0.2
 (Enter /sw/contrib/gaussian/g16/B01/g16/l303.exe)
 DipDrv:  MaxL=1.
 Leave Link  303 at Thu Sep 23 16:34:21 2021, MaxMem= 16106127360 cpu:               0.9 elap:               0.1
 (Enter /sw/contrib/gaussian/g16/B01/g16/l401.exe)
 ExpMin= 2.53D-02 ExpMax= 1.06D+07 ExpMxC= 1.21D+04 IAcc=3 IRadAn=         5 AccDes= 0.00D+00
 Harris functional with IExCor=  205 and IRadAn=       5 diagonalized for initial guess.
 HarFok:  IExCor=  205 AccDes= 0.00D+00 IRadAn=         5 IDoV= 1 UseB2=F ITyADJ=14
 ICtDFT=  3500011 ScaDFX=  1.000000  1.000000  1.000000  1.000000
 FoFCou: FMM=F IPFlag=           0 FMFlag=      100000 FMFlg1=           0
         NFxFlg=           0 DoJE=T BraDBF=F KetDBF=T FulRan=T
         wScrn=  0.000000 ICntrl=       500 IOpCl=  0 I1Cent=   200000004 NGrid=           0
         NMat0=    1 NMatS0=      1 NMatT0=    0 NMatD0=    1 NMtDS0=    0 NMtDT0=    0
 Symmetry not used in FoFCou.
 Harris En= -3106.39001448640    
 JPrj=0 DoOrth=F DoCkMO=F.
 Leave Link  401 at Thu Sep 23 16:34:21 2021, MaxMem= 16106127360 cpu:               7.5 elap:               0.3
 (Enter /sw/contrib/gaussian/g16/B01/g16/l502.exe)
 Keep R1 ints in memory in canonical form, NReq=149454646.
 FoFCou: FMM=F IPFlag=           0 FMFlag=           0 FMFlg1=           0
         NFxFlg=           0 DoJE=F BraDBF=F KetDBF=F FulRan=T
         wScrn=  0.000000 ICntrl=       600 IOpCl=  0 I1Cent=           0 NGrid=           0
         NMat0=    1 NMatS0=  15931 NMatT0=    0 NMatD0=    1 NMtDS0=    0 NMtDT0=    0
 Symmetry not used in FoFCou.
 Two-electron integral symmetry not used.
 Closed shell SCF:
 Using DIIS extrapolation, IDIIS=  1040.
 NGot= 16106127360 LenX= 15979127348 LenY= 15979083643
 Requested convergence on RMS density matrix=1.00D-08 within 128 cycles.
 Requested convergence on MAX density matrix=1.00D-06.
 Requested convergence on             energy=1.00D-06.
 No special actions if energy rises.

 Cycle   1  Pass 1  IDiag  1:
 E= -3107.30627166024    
 DIIS: error= 4.84D-02 at cycle   1 NSaved=   1.
 NSaved= 1 IEnMin= 1 EnMin= -3107.30627166024     IErMin= 1 ErrMin= 4.84D-02
 ErrMax= 4.84D-02  0.00D+00 EMaxC= 1.00D-01 BMatC= 6.21D-01 BMatP= 6.21D-01
 IDIUse=3 WtCom= 5.16D-01 WtEn= 4.84D-01
 Coeff-Com:  0.100D+01
 Coeff-En:   0.100D+01
 Coeff:      0.100D+01
 Gap=     0.555 Goal=   None    Shift=    0.000
 GapD=    0.555 DampG=2.000 DampE=0.500 DampFc=1.0000 IDamp=-1.
 RMSDP=2.77D-03 MaxDP=9.27D-02              OVMax= 1.16D-01

 Cycle   2  Pass 1  IDiag  1:
 E= -3107.44453290623     Delta-E=       -0.138261245987 Rises=F Damp=F
 DIIS: error= 8.97D-03 at cycle   2 NSaved=   2.
 NSaved= 2 IEnMin= 2 EnMin= -3107.44453290623     IErMin= 2 ErrMin= 8.97D-03
 ErrMax= 8.97D-03  0.00D+00 EMaxC= 1.00D-01 BMatC= 4.13D-02 BMatP= 6.21D-01
 IDIUse=3 WtCom= 9.10D-01 WtEn= 8.97D-02
 Coeff-Com:  0.132D+00 0.868D+00
 Coeff-En:   0.000D+00 0.100D+01
 Coeff:      0.120D+00 0.880D+00
 Gap=     0.320 Goal=   None    Shift=    0.000
 RMSDP=9.79D-04 MaxDP=3.80D-02 DE=-1.38D-01 OVMax= 7.13D-02

 Cycle   3  Pass 1  IDiag  1:
 E= -3107.46289029458     Delta-E=       -0.018357388354 Rises=F Damp=F
 DIIS: error= 5.79D-03 at cycle   3 NSaved=   3.
 NSaved= 3 IEnMin= 3 EnMin= -3107.46289029458     IErMin= 3 ErrMin= 5.79D-03
 ErrMax= 5.79D-03  0.00D+00 EMaxC= 1.00D-01 BMatC= 1.24D-02 BMatP= 4.13D-02
 IDIUse=3 WtCom= 9.42D-01 WtEn= 5.79D-02
 Coeff-Com:  0.710D-02 0.351D+00 0.641D+00
 Coeff-En:   0.000D+00 0.156D+00 0.844D+00
 Coeff:      0.669D-02 0.340D+00 0.653D+00
 Gap=     0.319 Goal=   None    Shift=    0.000
 RMSDP=3.25D-04 MaxDP=1.27D-02 DE=-1.84D-02 OVMax= 3.35D-02

 Cycle   4  Pass 1  IDiag  1:
 E= -3107.47141112901     Delta-E=       -0.008520834425 Rises=F Damp=F
 DIIS: error= 6.25D-04 at cycle   4 NSaved=   4.
 NSaved= 4 IEnMin= 4 EnMin= -3107.47141112901     IErMin= 4 ErrMin= 6.25D-04
 ErrMax= 6.25D-04  0.00D+00 EMaxC= 1.00D-01 BMatC= 1.37D-04 BMatP= 1.24D-02
 IDIUse=3 WtCom= 9.94D-01 WtEn= 6.25D-03
 Coeff-Com: -0.493D-02-0.300D-01 0.360D-01 0.999D+00
 Coeff-En:   0.000D+00 0.000D+00 0.000D+00 0.100D+01
 Coeff:     -0.490D-02-0.298D-01 0.357D-01 0.999D+00
 Gap=     0.318 Goal=   None    Shift=    0.000
 RMSDP=5.75D-05 MaxDP=1.18D-03 DE=-8.52D-03 OVMax= 3.61D-03

 Cycle   5  Pass 1  IDiag  1:
 E= -3107.47158111068     Delta-E=       -0.000169981673 Rises=F Damp=F
 DIIS: error= 1.64D-04 at cycle   5 NSaved=   5.
 NSaved= 5 IEnMin= 5 EnMin= -3107.47158111068     IErMin= 5 ErrMin= 1.64D-04
 ErrMax= 1.64D-04  0.00D+00 EMaxC= 1.00D-01 BMatC= 1.09D-05 BMatP= 1.37D-04
 IDIUse=3 WtCom= 9.98D-01 WtEn= 1.64D-03
 Coeff-Com:  0.667D-03-0.149D-01-0.332D-01-0.174D+00 0.122D+01
 Coeff-En:   0.000D+00 0.000D+00 0.000D+00 0.000D+00 0.100D+01
 Coeff:      0.666D-03-0.149D-01-0.331D-01-0.174D+00 0.122D+01
 Gap=     0.318 Goal=   None    Shift=    0.000
 RMSDP=2.92D-05 MaxDP=9.55D-04 DE=-1.70D-04 OVMax= 2.65D-03

 Cycle   6  Pass 1  IDiag  1:
 E= -3107.47161093340     Delta-E=       -0.000029822719 Rises=F Damp=F
 DIIS: error= 8.52D-05 at cycle   6 NSaved=   6.
 NSaved= 6 IEnMin= 6 EnMin= -3107.47161093340     IErMin= 6 ErrMin= 8.52D-05
 ErrMax= 8.52D-05  0.00D+00 EMaxC= 1.00D-01 BMatC= 1.56D-06 BMatP= 1.09D-05
 IDIUse=1 WtCom= 1.00D+00 WtEn= 0.00D+00
 Coeff-Com:  0.531D-03 0.296D-02-0.218D-02-0.126D+00-0.164D-01 0.114D+01
 Coeff:      0.531D-03 0.296D-02-0.218D-02-0.126D+00-0.164D-01 0.114D+01
 Gap=     0.319 Goal=   None    Shift=    0.000
 RMSDP=1.22D-05 MaxDP=4.84D-04 DE=-2.98D-05 OVMax= 1.32D-03

 Cycle   7  Pass 1  IDiag  1:
 E= -3107.47161600816     Delta-E=       -0.000005074763 Rises=F Damp=F
 DIIS: error= 2.84D-05 at cycle   7 NSaved=   7.
 NSaved= 7 IEnMin= 7 EnMin= -3107.47161600816     IErMin= 7 ErrMin= 2.84D-05
 ErrMax= 2.84D-05  0.00D+00 EMaxC= 1.00D-01 BMatC= 1.70D-07 BMatP= 1.56D-06
 IDIUse=1 WtCom= 1.00D+00 WtEn= 0.00D+00
 Coeff-Com: -0.226D-03 0.130D-02 0.625D-02 0.500D-01-0.161D+00-0.241D+00
 Coeff-Com:  0.135D+01
 Coeff:     -0.226D-03 0.130D-02 0.625D-02 0.500D-01-0.161D+00-0.241D+00
 Coeff:      0.135D+01
 Gap=     0.319 Goal=   None    Shift=    0.000
 RMSDP=5.18D-06 MaxDP=1.87D-04 DE=-5.07D-06 OVMax= 5.29D-04

 Cycle   8  Pass 1  IDiag  1:
 E= -3107.47161665703     Delta-E=       -0.000000648867 Rises=F Damp=F
 DIIS: error= 5.31D-06 at cycle   8 NSaved=   8.
 NSaved= 8 IEnMin= 8 EnMin= -3107.47161665703     IErMin= 8 ErrMin= 5.31D-06
 ErrMax= 5.31D-06  0.00D+00 EMaxC= 1.00D-01 BMatC= 9.59D-09 BMatP= 1.70D-07
 IDIUse=1 WtCom= 1.00D+00 WtEn= 0.00D+00
 Coeff-Com:  0.603D-06-0.654D-03-0.820D-03 0.283D-02 0.186D-01-0.239D-01
 Coeff-Com: -0.225D+00 0.123D+01
 Coeff:      0.603D-06-0.654D-03-0.820D-03 0.283D-02 0.186D-01-0.239D-01
 Coeff:     -0.225D+00 0.123D+01
 Gap=     0.319 Goal=   None    Shift=    0.000
 RMSDP=1.18D-06 MaxDP=2.84D-05 DE=-6.49D-07 OVMax= 1.23D-04

 Cycle   9  Pass 1  IDiag  1:
 E= -3107.47161669249     Delta-E=       -0.000000035463 Rises=F Damp=F
 DIIS: error= 2.95D-06 at cycle   9 NSaved=   9.
 NSaved= 9 IEnMin= 9 EnMin= -3107.47161669249     IErMin= 9 ErrMin= 2.95D-06
 ErrMax= 2.95D-06  0.00D+00 EMaxC= 1.00D-01 BMatC= 1.29D-09 BMatP= 9.59D-09
 IDIUse=1 WtCom= 1.00D+00 WtEn= 0.00D+00
 Coeff-Com:  0.179D-04 0.134D-04-0.394D-03-0.583D-02 0.120D-01 0.338D-01
 Coeff-Com: -0.113D+00-0.129D+00 0.120D+01
 Coeff:      0.179D-04 0.134D-04-0.394D-03-0.583D-02 0.120D-01 0.338D-01
 Coeff:     -0.113D+00-0.129D+00 0.120D+01
 Gap=     0.319 Goal=   None    Shift=    0.000
 RMSDP=4.45D-07 MaxDP=7.95D-06 DE=-3.55D-08 OVMax= 5.26D-05

 Cycle  10  Pass 1  IDiag  1:
 E= -3107.47161669770     Delta-E=       -0.000000005208 Rises=F Damp=F
 DIIS: error= 1.35D-06 at cycle  10 NSaved=  10.
 NSaved=10 IEnMin=10 EnMin= -3107.47161669770     IErMin=10 ErrMin= 1.35D-06
 ErrMax= 1.35D-06  0.00D+00 EMaxC= 1.00D-01 BMatC= 2.50D-10 BMatP= 1.29D-09
 IDIUse=1 WtCom= 1.00D+00 WtEn= 0.00D+00
 Coeff-Com: -0.234D-05 0.913D-04 0.188D-03 0.850D-03-0.528D-02-0.389D-02
 Coeff-Com:  0.657D-01-0.222D+00-0.129D+00 0.129D+01
 Coeff:     -0.234D-05 0.913D-04 0.188D-03 0.850D-03-0.528D-02-0.389D-02
 Coeff:      0.657D-01-0.222D+00-0.129D+00 0.129D+01
 Gap=     0.319 Goal=   None    Shift=    0.000
 RMSDP=2.44D-07 MaxDP=4.70D-06 DE=-5.21D-09 OVMax= 2.91D-05

 Cycle  11  Pass 1  IDiag  1:
 E= -3107.47161669887     Delta-E=       -0.000000001174 Rises=F Damp=F
 DIIS: error= 5.16D-07 at cycle  11 NSaved=  11.
 NSaved=11 IEnMin=11 EnMin= -3107.47161669887     IErMin=11 ErrMin= 5.16D-07
 ErrMax= 5.16D-07  0.00D+00 EMaxC= 1.00D-01 BMatC= 2.88D-11 BMatP= 2.50D-10
 IDIUse=1 WtCom= 1.00D+00 WtEn= 0.00D+00
 Coeff-Com: -0.186D-05 0.127D-05 0.308D-04 0.447D-03-0.997D-03-0.218D-02
 Coeff-Com:  0.521D-02 0.390D-01-0.156D+00-0.129D+00 0.124D+01
 Coeff:     -0.186D-05 0.127D-05 0.308D-04 0.447D-03-0.997D-03-0.218D-02
 Coeff:      0.521D-02 0.390D-01-0.156D+00-0.129D+00 0.124D+01
 Gap=     0.319 Goal=   None    Shift=    0.000
 RMSDP=9.09D-08 MaxDP=1.98D-06 DE=-1.17D-09 OVMax= 1.02D-05

 Cycle  12  Pass 1  IDiag  1:
 E= -3107.47161669901     Delta-E=       -0.000000000133 Rises=F Damp=F
 DIIS: error= 1.14D-07 at cycle  12 NSaved=  12.
 NSaved=12 IEnMin=12 EnMin= -3107.47161669901     IErMin=12 ErrMin= 1.14D-07
 ErrMax= 1.14D-07  0.00D+00 EMaxC= 1.00D-01 BMatC= 2.93D-12 BMatP= 2.88D-11
 IDIUse=1 WtCom= 1.00D+00 WtEn= 0.00D+00
 Coeff-Com:  0.186D-06-0.159D-04-0.269D-04-0.111D-04 0.637D-03-0.718D-04
 Coeff-Com: -0.792D-02 0.330D-01 0.282D-02-0.157D+00 0.277D-01 0.110D+01
 Coeff:      0.186D-06-0.159D-04-0.269D-04-0.111D-04 0.637D-03-0.718D-04
 Coeff:     -0.792D-02 0.330D-01 0.282D-02-0.157D+00 0.277D-01 0.110D+01
 Gap=     0.319 Goal=   None    Shift=    0.000
 RMSDP=2.57D-08 MaxDP=6.05D-07 DE=-1.33D-10 OVMax= 2.31D-06

 Cycle  13  Pass 1  IDiag  1:
 E= -3107.47161669903     Delta-E=       -0.000000000028 Rises=F Damp=F
 DIIS: error= 4.62D-08 at cycle  13 NSaved=  13.
 NSaved=13 IEnMin=13 EnMin= -3107.47161669903     IErMin=13 ErrMin= 4.62D-08
 ErrMax= 4.62D-08  0.00D+00 EMaxC= 1.00D-01 BMatC= 3.55D-13 BMatP= 2.93D-12
 IDIUse=1 WtCom= 1.00D+00 WtEn= 0.00D+00
 Coeff-Com:  0.143D-06 0.466D-05 0.421D-05-0.520D-04-0.504D-04 0.189D-03
 Coeff-Com:  0.172D-02-0.123D-01 0.107D-01 0.571D-01-0.971D-01-0.397D+00
 Coeff-Com:  0.144D+01
 Coeff:      0.143D-06 0.466D-05 0.421D-05-0.520D-04-0.504D-04 0.189D-03
 Coeff:      0.172D-02-0.123D-01 0.107D-01 0.571D-01-0.971D-01-0.397D+00
 Coeff:      0.144D+01
 Gap=     0.319 Goal=   None    Shift=    0.000
 RMSDP=1.00D-08 MaxDP=2.18D-07 DE=-2.82D-11 OVMax= 1.14D-06

 SCF Done:  E(RHF) =  -3107.47161670     A.U. after   13 cycles
            NFock= 13  Conv=0.10D-07     -V/T= 2.0000
 KE= 3.107339081902D+03 PE=-7.822160385772D+03 EE= 1.417600186716D+03
 Leave Link  502 at Thu Sep 23 16:34:25 2021, MaxMem= 16106127360 cpu:              39.0 elap:               4.0
 (Enter /sw/contrib/gaussian/g16/B01/g16/l801.exe)
 ExpMin= 2.53D-02 ExpMax= 1.06D+07 ExpMxC= 1.21D+04 IAcc=3 IRadAn=         5 AccDes= 0.00D+00
 HarFok:  IExCor=  205 AccDes= 0.00D+00 IRadAn=         5 IDoV=-2 UseB2=F ITyADJ=14
 ICtDFT= 12500011 ScaDFX=  1.000000  1.000000  1.000000  1.000000
 Largest valence mixing into a core orbital is  4.47D-04
 Largest core mixing into a valence orbital is  1.59D-04
 Range of M.O.s used for correlation:    16   178
 NBasis=   178 NAE=    31 NBE=    31 NFC=    15 NFV=     0
 NROrb=    163 NOA=    16 NOB=    16 NVA=   147 NVB=   147

 **** Warning!!: The largest alpha MO coefficient is  0.10917707D+02

 Leave Link  801 at Thu Sep 23 16:34:25 2021, MaxMem= 16106127360 cpu:               2.0 elap:               0.1
 (Enter /sw/contrib/gaussian/g16/B01/g16/l906.exe)
 Frozen-core derivative calculation, NFC=  15 NFV=   0.
 FulOut=F Deriv=T AODrv=F NAtomX=     4
   MMem=         124  MDisk=          16 MDiskD=          16
  W3Min=     1147744 MinDsk=     1765480 NBas6D=         208
 NBas2D=       22240    NTT=       21736    LW2=     9911920
    MDV= 16105652935 MDiskM=      387107 NBas2p=       22041
 Fully in-core method, ICMem=   527338992.
 IMap=   1   2   3   4   5   6   7   8   9  10  11  12  13  14  15  16  17  18  19  20
 IMap=  21  22  23  24  25  26  27  28  29  30  31
 JobTyp=1 Pass  1 fully in-core, NPsUse= 28.
 Compute canonical integrals.
 FoFCou: FMM=F IPFlag=           0 FMFlag=           0 FMFlg1=           0
         NFxFlg=           0 DoJE=F BraDBF=F KetDBF=F FulRan=T
         wScrn=  0.000000 ICntrl=       600 IOpCl=  1 I1Cent=           0 NGrid=           0
         NMat0=    1 NMatS0=  22240 NMatT0=    0 NMatD0=    1 NMtDS0=    0 NMtDT0=    0
 Symmetry not used in FoFCou.
 Spin components of T(2) and E(2):
     alpha-alpha T2 =       0.3016318773D-01 E2=     -0.9364836988D-01
     alpha-beta  T2 =       0.1612210485D+00 E2=     -0.5141297388D+00
     beta-beta   T2 =       0.3016318773D-01 E2=     -0.9364836988D-01
 The integrals were generated   1 times.
 ANorm=    0.1105236366D+01
 E2 =    -0.7014264785D+00 EUMP2 =    -0.31081730431776D+04
 Leave Link  906 at Thu Sep 23 16:34:32 2021, MaxMem= 16106127360 cpu:             174.1 elap:               6.3
 (Enter /sw/contrib/gaussian/g16/B01/g16/l1002.exe)
 Minotr:  Closed shell wavefunction.
          Computing MP2/KS-MP2 derivatives.
          Using Z-Vector for PSCF gradient.
          Skipping F1 and S1 gradient terms here.
          Frozen-core window.
          Direct CPHF calculation.
          Differentiating once with respect to electric field.
                with respect to dipole field.
          Electric field/nuclear overlap derivatives assumed to be zero.
          Requested convergence is 1.0D-10 RMS, and 1.0D-09 maximum.
          NewPWx=F KeepS1=T KeepF1=T KeepIn=T MapXYZ=F SortEE=F KeepMc=T.
 Keep R1 ints in memory in canonical form, NReq=149459498.
 FoFCou: FMM=F IPFlag=           0 FMFlag=           0 FMFlg1=           0
         NFxFlg=           0 DoJE=F BraDBF=F KetDBF=F FulRan=T
         wScrn=  0.000000 ICntrl=       600 IOpCl=  0 I1Cent=           0 NGrid=           0
         NMat0=    1 NMatS0=  15931 NMatT0=    0 NMatD0=    1 NMtDS0=    0 NMtDT0=    0
 Symmetry not used in FoFCou.
 Two-electron integral symmetry not used.
          MDV=   16106127360 using IRadAn=       5.
          Solving linear equations separately, MaxMat=       0.
          There are     1 degrees of freedom in the 1st order CPHF.  IDoFFX=0 NUNeed=     1.
 LinEq1:  Iter=  0 NonCon=     1 RMS=2.63D-03 Max=3.57D-02 NDo=     1
 AX will form     1 AO Fock derivatives at one time.
 LinEq1:  Iter=  1 NonCon=     1 RMS=4.16D-04 Max=4.49D-03 NDo=     1
 LinEq1:  Iter=  2 NonCon=     1 RMS=1.97D-04 Max=3.55D-03 NDo=     1
 LinEq1:  Iter=  3 NonCon=     1 RMS=6.36D-05 Max=7.69D-04 NDo=     1
 LinEq1:  Iter=  4 NonCon=     1 RMS=2.60D-05 Max=7.90D-04 NDo=     1
 LinEq1:  Iter=  5 NonCon=     1 RMS=1.09D-05 Max=2.51D-04 NDo=     1
 LinEq1:  Iter=  6 NonCon=     1 RMS=3.13D-06 Max=8.33D-05 NDo=     1
 LinEq1:  Iter=  7 NonCon=     1 RMS=8.83D-07 Max=1.60D-05 NDo=     1
 LinEq1:  Iter=  8 NonCon=     1 RMS=2.65D-07 Max=3.26D-06 NDo=     1
 LinEq1:  Iter=  9 NonCon=     1 RMS=6.91D-08 Max=1.12D-06 NDo=     1
 LinEq1:  Iter= 10 NonCon=     1 RMS=1.67D-08 Max=3.09D-07 NDo=     1
 LinEq1:  Iter= 11 NonCon=     1 RMS=4.09D-09 Max=1.00D-07 NDo=     1
 LinEq1:  Iter= 12 NonCon=     1 RMS=9.13D-10 Max=2.26D-08 NDo=     1
 LinEq1:  Iter= 13 NonCon=     1 RMS=2.55D-10 Max=2.69D-09 NDo=     1
 LinEq1:  Iter= 14 NonCon=     0 RMS=6.82D-11 Max=6.92D-10 NDo=     1
 Linear equations converged to 1.000D-10 1.000D-09 after    14 iterations.
 End of Minotr F.D. properties file   721 does not exist.
 End of Minotr F.D. properties file   722 does not exist.
 End of Minotr F.D. properties file   788 does not exist.
 Leave Link 1002 at Thu Sep 23 16:34:36 2021, MaxMem= 16106127360 cpu:              40.4 elap:               4.5
 (Enter /sw/contrib/gaussian/g16/B01/g16/l601.exe)
 Copying SCF densities to generalized density rwf, IOpCl= 0 IROHF=0.

 **********************************************************************

            Population analysis using the MP2 Density.

 **********************************************************************

 Alpha  occ. eigenvalues -- -489.74609-104.73787 -64.88640 -58.24091 -58.24085
 Alpha  occ. eigenvalues --  -58.24082 -20.47371 -10.45745  -9.55890  -7.92463
 Alpha  occ. eigenvalues --   -7.92193  -7.92180  -7.16663  -7.16619  -7.16610
 Alpha  occ. eigenvalues --   -2.90835  -2.90820  -2.90807  -2.90752  -2.90752
 Alpha  occ. eigenvalues --   -1.24290  -0.90335  -0.71863  -0.55121  -0.45200
 Alpha  occ. eigenvalues --   -0.44328  -0.31497  -0.28843  -0.17343  -0.16662
 Alpha  occ. eigenvalues --   -0.16572
 Alpha virt. eigenvalues --    0.15294   0.17823   0.21705   0.22573   0.24194
 Alpha virt. eigenvalues --    0.24882   0.25054   0.28166   0.28738   0.30909
 Alpha virt. eigenvalues --    0.32939   0.33283   0.36667   0.40596   0.44253
 Alpha virt. eigenvalues --    0.45977   0.48862   0.49346   0.51385   0.53651
 Alpha virt. eigenvalues --    0.54612   0.55689   0.57613   0.59037   0.59810
 Alpha virt. eigenvalues --    0.60816   0.64853   0.66580   0.73182   0.74200
 Alpha virt. eigenvalues --    0.75661   0.76719   0.80761   0.86444   0.87134
 Alpha virt. eigenvalues --    0.88278   0.89956   0.94634   0.97681   0.98631
 Alpha virt. eigenvalues --    1.00785   1.01402   1.02324   1.04376   1.05481
 Alpha virt. eigenvalues --    1.07337   1.08937   1.10059   1.11306   1.12401
 Alpha virt. eigenvalues --    1.14680   1.17161   1.18253   1.19515   1.19952
 Alpha virt. eigenvalues --    1.21638   1.24797   1.27366   1.30150   1.34800
 Alpha virt. eigenvalues --    1.36386   1.37407   1.40744   1.47362   1.49275
 Alpha virt. eigenvalues --    1.53169   1.56701   1.57735   1.65690   1.68478
 Alpha virt. eigenvalues --    1.70260   1.71808   1.77346   1.79105   1.86344
 Alpha virt. eigenvalues --    1.96813   2.10635   2.32895   2.39616   2.41000
 Alpha virt. eigenvalues --    2.42111   2.46094   2.46691   2.50793   2.51942
 Alpha virt. eigenvalues --    2.53793   2.55306   2.56018   2.56388   2.56762
 Alpha virt. eigenvalues --    2.57777   2.59989   2.62294   2.62920   2.65140
 Alpha virt. eigenvalues --    2.65654   2.67860   2.69529   2.69823   2.71418
 Alpha virt. eigenvalues --    2.73484   2.74844   2.75881   2.78333   2.81638
 Alpha virt. eigenvalues --    2.86412   2.91211   2.99053   3.08698   3.10281
 Alpha virt. eigenvalues --    3.18501   3.21749   3.23807   3.23989   3.29402
 Alpha virt. eigenvalues --    3.34738   3.50404   3.54728   3.56928   3.91183
 Alpha virt. eigenvalues --    4.09060   4.33582   4.39187   4.50566   4.56496
 Alpha virt. eigenvalues --    4.68419   4.73847   4.95421   5.00826   5.35607
 Alpha virt. eigenvalues --    5.42666   5.68182   6.38758   6.60213   6.86993
 Alpha virt. eigenvalues --    6.89628   6.91193   6.98402   7.31529   7.34763
 Alpha virt. eigenvalues --    7.35003   7.44088   7.51786   7.72271   7.74796
 Alpha virt. eigenvalues --    8.36285  14.44212
          Condensed to atoms (all electrons):
               1          2          3          4
     1  O    8.559128  -0.079167  -0.116794   0.055483
     2  Br  -0.079167  35.896118   0.002976   0.070460
     3  Cl  -0.116794   0.002976  17.051957  -0.001035
     4  H    0.055483   0.070460  -0.001035   0.628952
 Mulliken charges:
               1
     1  O   -0.418649
     2  Br  -0.890387
     3  Cl   0.062896
     4  H    0.246140
 Sum of Mulliken charges =  -1.00000
 Mulliken charges with hydrogens summed into heavy atoms:
               1
     1  O   -0.172509
     2  Br  -0.890387
     3  Cl   0.062896
 Electronic spatial extent (au):  <R**2>=           1481.9413
 Charge=             -1.0000 electrons
 Dipole moment (field-independent basis, Debye):
    X=            -11.3511    Y=             -0.5663    Z=              0.3923  Tot=             11.3720
 Quadrupole moment (field-independent basis, Debye-Ang):
   XX=            -82.3368   YY=            -43.3172   ZZ=            -42.8191
   XY=              0.4334   XZ=              0.1472   YZ=             -0.1610
 Traceless Quadrupole moment (field-independent basis, Debye-Ang):
   XX=            -26.1791   YY=             12.8404   ZZ=             13.3386
   XY=              0.4334   XZ=              0.1472   YZ=             -0.1610
 Octapole moment (field-independent basis, Debye-Ang**2):
  XXX=           -321.1098  YYY=            -62.2350  ZZZ=             -1.6751  XYY=            -67.2905
  XXY=            -21.7225  XXZ=             -2.7707  XZZ=            -66.4152  YZZ=            -22.1981
  YYZ=             -0.9042  XYZ=              0.0943
 Hexadecapole moment (field-independent basis, Debye-Ang**3):
 XXXX=          -1765.2649 YYYY=           -257.7551 ZZZZ=            -63.8718 XXXY=             28.1511
 XXXZ=            -10.9882 YYYX=             21.9585 YYYZ=             -0.7693 ZZZX=             -2.5184
 ZZZY=             -0.2446 XXYY=           -279.7393 XXZZ=           -244.0899 YYZZ=            -58.1837
 XXYZ=             -0.1783 YYXZ=             -0.6140 ZZXY=              9.2262
 N-N= 1.897495004552D+02 E-N=-7.820719696519D+03  KE= 3.107366071775D+03
 No NMR shielding tensors so no spin-rotation constants.
 Leave Link  601 at Thu Sep 23 16:34:36 2021, MaxMem= 16106127360 cpu:               4.2 elap:               0.2
 (Enter /sw/contrib/gaussian/g16/B01/g16/l607.exe)
 ******************************Gaussian NBO Version 3.1******************************
             N A T U R A L   A T O M I C   O R B I T A L   A N D
          N A T U R A L   B O N D   O R B I T A L   A N A L Y S I S
 ******************************Gaussian NBO Version 3.1******************************
       /RESON  / : Allow strongly delocalized NBO set

 Analyzing the MP2 density

 Job title: title                                                           

 Storage needed:     95974 in NPA,    127345 in NBO (********** available)
 GSVD:  LWork=        4314 too small for GESVD, short by       49391 words or       49391 for optimal perf.


 NATURAL POPULATIONS:  Natural atomic orbital occupancies 
                                                          
   NAO  Atom  No  lang   Type(AO)    Occupancy
 --------------------------------------------
     1    O    1  S      Cor( 1S)     1.99970
     2    O    1  S      Val( 2S)     1.79184
     3    O    1  S      Ryd( 3S)     0.00922
     4    O    1  S      Ryd( 4S)     0.00112
     5    O    1  S      Ryd( 5S)     0.00018
     6    O    1  px     Val( 2p)     1.69377
     7    O    1  px     Ryd( 3p)     0.01306
     8    O    1  px     Ryd( 4p)     0.00072
     9    O    1  px     Ryd( 5p)     0.00041
    10    O    1  py     Val( 2p)     1.27287
    11    O    1  py     Ryd( 3p)     0.00777
    12    O    1  py     Ryd( 4p)     0.00062
    13    O    1  py     Ryd( 5p)     0.00034
    14    O    1  pz     Val( 2p)     1.86681
    15    O    1  pz     Ryd( 3p)     0.01770
    16    O    1  pz     Ryd( 4p)     0.00070
    17    O    1  pz     Ryd( 5p)     0.00024
    18    O    1  dxy    Ryd( 3d)     0.00926
    19    O    1  dxy    Ryd( 4d)     0.00048
    20    O    1  dxy    Ryd( 5d)     0.00018
    21    O    1  dxz    Ryd( 3d)     0.01064
    22    O    1  dxz    Ryd( 4d)     0.00057
    23    O    1  dxz    Ryd( 5d)     0.00018
    24    O    1  dyz    Ryd( 3d)     0.00963
    25    O    1  dyz    Ryd( 4d)     0.00057
    26    O    1  dyz    Ryd( 5d)     0.00010
    27    O    1  dx2y2  Ryd( 3d)     0.01111
    28    O    1  dx2y2  Ryd( 4d)     0.00043
    29    O    1  dx2y2  Ryd( 5d)     0.00017
    30    O    1  dz2    Ryd( 3d)     0.00890
    31    O    1  dz2    Ryd( 4d)     0.00057
    32    O    1  dz2    Ryd( 5d)     0.00020
    33    O    1  f(0)   Ryd( 4f)     0.00063
    34    O    1  f(0)   Ryd( 5f)     0.00011
    35    O    1  f(C1)  Ryd( 4f)     0.00060
    36    O    1  f(C1)  Ryd( 5f)     0.00012
    37    O    1  f(S1)  Ryd( 4f)     0.00062
    38    O    1  f(S1)  Ryd( 5f)     0.00011
    39    O    1  f(C2)  Ryd( 4f)     0.00062
    40    O    1  f(C2)  Ryd( 5f)     0.00014
    41    O    1  f(S2)  Ryd( 4f)     0.00059
    42    O    1  f(S2)  Ryd( 5f)     0.00012
    43    O    1  f(C3)  Ryd( 4f)     0.00060
    44    O    1  f(C3)  Ryd( 5f)     0.00014
    45    O    1  f(S3)  Ryd( 4f)     0.00059
    46    O    1  f(S3)  Ryd( 5f)     0.00011

    47   Br    2  S      Cor( 1S)     2.00000
    48   Br    2  S      Cor( 2S)     2.00000
    49   Br    2  S      Cor( 3S)     1.99997
    50   Br    2  S      Val( 4S)     1.97557
    51   Br    2  S      Ryd( 5S)     0.00260
    52   Br    2  S      Ryd( 6S)     0.00052
    53   Br    2  S      Ryd( 7S)     0.00019
    54   Br    2  px     Cor( 3p)     1.99998
    55   Br    2  px     Cor( 2p)     2.00000
    56   Br    2  px     Val( 4p)     1.89966
    57   Br    2  px     Ryd( 5p)     0.01012
    58   Br    2  px     Ryd( 6p)     0.00078
    59   Br    2  px     Ryd( 7p)     0.00011
    60   Br    2  py     Cor( 2p)     2.00002
    61   Br    2  py     Cor( 3p)     2.00000
    62   Br    2  py     Val( 4p)     1.95340
    63   Br    2  py     Ryd( 5p)     0.01160
    64   Br    2  py     Ryd( 6p)     0.00082
    65   Br    2  py     Ryd( 7p)     0.00008
    66   Br    2  pz     Cor( 2p)     2.00001
    67   Br    2  pz     Cor( 3p)     2.00000
    68   Br    2  pz     Val( 4p)     1.94724
    69   Br    2  pz     Ryd( 5p)     0.01152
    70   Br    2  pz     Ryd( 6p)     0.00082
    71   Br    2  pz     Ryd( 7p)     0.00008
    72   Br    2  dxy    Cor( 3d)     1.99767
    73   Br    2  dxy    Ryd( 4d)     0.01899
    74   Br    2  dxy    Ryd( 5d)     0.00153
    75   Br    2  dxy    Ryd( 6d)     0.00023
    76   Br    2  dxz    Cor( 3d)     1.99767
    77   Br    2  dxz    Ryd( 4d)     0.01911
    78   Br    2  dxz    Ryd( 5d)     0.00157
    79   Br    2  dxz    Ryd( 6d)     0.00024
    80   Br    2  dyz    Cor( 3d)     1.99769
    81   Br    2  dyz    Ryd( 4d)     0.01872
    82   Br    2  dyz    Ryd( 5d)     0.00177
    83   Br    2  dyz    Ryd( 6d)     0.00023
    84   Br    2  dx2y2  Cor( 3d)     1.99765
    85   Br    2  dx2y2  Ryd( 4d)     0.01856
    86   Br    2  dx2y2  Ryd( 5d)     0.00168
    87   Br    2  dx2y2  Ryd( 6d)     0.00025
    88   Br    2  dz2    Cor( 3d)     1.99768
    89   Br    2  dz2    Ryd( 4d)     0.01867
    90   Br    2  dz2    Ryd( 5d)     0.00171
    91   Br    2  dz2    Ryd( 6d)     0.00022
    92   Br    2  f(0)   Ryd( 4f)     0.00175
    93   Br    2  f(0)   Ryd( 5f)     0.00025
    94   Br    2  f(C1)  Ryd( 4f)     0.00174
    95   Br    2  f(C1)  Ryd( 5f)     0.00027
    96   Br    2  f(S1)  Ryd( 4f)     0.00176
    97   Br    2  f(S1)  Ryd( 5f)     0.00024
    98   Br    2  f(C2)  Ryd( 4f)     0.00174
    99   Br    2  f(C2)  Ryd( 5f)     0.00026
   100   Br    2  f(S2)  Ryd( 4f)     0.00177
   101   Br    2  f(S2)  Ryd( 5f)     0.00026
   102   Br    2  f(C3)  Ryd( 4f)     0.00175
   103   Br    2  f(C3)  Ryd( 5f)     0.00028
   104   Br    2  f(S3)  Ryd( 4f)     0.00172
   105   Br    2  f(S3)  Ryd( 5f)     0.00026

   106   Cl    3  S      Cor( 1S)     2.00000
   107   Cl    3  S      Cor( 2S)     1.99980
   108   Cl    3  S      Val( 3S)     1.88289
   109   Cl    3  S      Ryd( 4S)     0.00807
   110   Cl    3  S      Ryd( 5S)     0.00054
   111   Cl    3  S      Ryd( 6S)     0.00017
   112   Cl    3  px     Cor( 2p)     2.00003
   113   Cl    3  px     Val( 3p)     1.89209
   114   Cl    3  px     Ryd( 4p)     0.00964
   115   Cl    3  px     Ryd( 5p)     0.00056
   116   Cl    3  px     Ryd( 6p)     0.00008
   117   Cl    3  py     Cor( 2p)     1.99997
   118   Cl    3  py     Val( 3p)     0.96433
   119   Cl    3  py     Ryd( 4p)     0.00697
   120   Cl    3  py     Ryd( 5p)     0.00052
   121   Cl    3  py     Ryd( 6p)     0.00022
   122   Cl    3  pz     Cor( 2p)     2.00003
   123   Cl    3  pz     Val( 3p)     1.95433
   124   Cl    3  pz     Ryd( 4p)     0.01039
   125   Cl    3  pz     Ryd( 5p)     0.00063
   126   Cl    3  pz     Ryd( 6p)     0.00003
   127   Cl    3  dxy    Ryd( 3d)     0.01803
   128   Cl    3  dxy    Ryd( 4d)     0.00071
   129   Cl    3  dxy    Ryd( 5d)     0.00026
   130   Cl    3  dxz    Ryd( 3d)     0.01716
   131   Cl    3  dxz    Ryd( 4d)     0.00077
   132   Cl    3  dxz    Ryd( 5d)     0.00020
   133   Cl    3  dyz    Ryd( 3d)     0.01970
   134   Cl    3  dyz    Ryd( 4d)     0.00094
   135   Cl    3  dyz    Ryd( 5d)     0.00035
   136   Cl    3  dx2y2  Ryd( 3d)     0.01844
   137   Cl    3  dx2y2  Ryd( 4d)     0.00067
   138   Cl    3  dx2y2  Ryd( 5d)     0.00025
   139   Cl    3  dz2    Ryd( 3d)     0.01743
   140   Cl    3  dz2    Ryd( 4d)     0.00062
   141   Cl    3  dz2    Ryd( 5d)     0.00017
   142   Cl    3  f(0)   Ryd( 4f)     0.00129
   143   Cl    3  f(0)   Ryd( 5f)     0.00013
   144   Cl    3  f(C1)  Ryd( 4f)     0.00127
   145   Cl    3  f(C1)  Ryd( 5f)     0.00013
   146   Cl    3  f(S1)  Ryd( 4f)     0.00142
   147   Cl    3  f(S1)  Ryd( 5f)     0.00014
   148   Cl    3  f(C2)  Ryd( 4f)     0.00128
   149   Cl    3  f(C2)  Ryd( 5f)     0.00013
   150   Cl    3  f(S2)  Ryd( 4f)     0.00123
   151   Cl    3  f(S2)  Ryd( 5f)     0.00013
   152   Cl    3  f(C3)  Ryd( 4f)     0.00143
   153   Cl    3  f(C3)  Ryd( 5f)     0.00013
   154   Cl    3  f(S3)  Ryd( 4f)     0.00145
   155   Cl    3  f(S3)  Ryd( 5f)     0.00014

   156    H    4  S      Val( 1S)     0.48183
   157    H    4  S      Ryd( 2S)     0.00710
   158    H    4  S      Ryd( 3S)     0.00031
   159    H    4  S      Ryd( 4S)     0.00014
   160    H    4  px     Ryd( 2p)     0.00582
   161    H    4  px     Ryd( 3p)     0.00080
   162    H    4  px     Ryd( 4p)     0.00031
   163    H    4  py     Ryd( 2p)     0.00317
   164    H    4  py     Ryd( 3p)     0.00042
   165    H    4  py     Ryd( 4p)     0.00011
   166    H    4  pz     Ryd( 2p)     0.00406
   167    H    4  pz     Ryd( 3p)     0.00050
   168    H    4  pz     Ryd( 4p)     0.00020
   169    H    4  dxy    Ryd( 3d)     0.00027
   170    H    4  dxy    Ryd( 4d)     0.00009
   171    H    4  dxz    Ryd( 3d)     0.00033
   172    H    4  dxz    Ryd( 4d)     0.00010
   173    H    4  dyz    Ryd( 3d)     0.00020
   174    H    4  dyz    Ryd( 4d)     0.00007
   175    H    4  dx2y2  Ryd( 3d)     0.00025
   176    H    4  dx2y2  Ryd( 4d)     0.00012
   177    H    4  dz2    Ryd( 3d)     0.00026
   178    H    4  dz2    Ryd( 4d)     0.00010

 WARNING:  5 low occupancy (<1.9990e) core orbitals found on Br    2


 Summary of Natural Population Analysis:                  
                                                          
                                       Natural Population 
                Natural  -----------------------------------------------
    Atom  No    Charge         Core      Valence    Rydberg      Total
 -----------------------------------------------------------------------
      O    1   -0.73515      1.99970     6.62529    0.11015     8.73515
     Br    2   -0.92099     27.98832     7.77588    0.15679    35.92099
     Cl    3    0.16271      9.99982     6.69364    0.14383    16.83729
      H    4    0.49343      0.00000     0.48183    0.02473     0.50657
 =======================================================================
   * Total *   -1.00000     39.98785    21.57664    0.43551    62.00000

                                 Natural Population      
 --------------------------------------------------------
   Core                      39.98785 ( 99.9696% of  40)
   Valence                   21.57664 ( 98.0757% of  22)
   Natural Minimal Basis     61.56449 ( 99.2976% of  62)
   Natural Rydberg Basis      0.43551 (  0.7024% of  62)
 --------------------------------------------------------

    Atom  No          Natural Electron Configuration
 ----------------------------------------------------------------------------
      O    1      [core]2S( 1.79)2p( 4.83)3S( 0.01)3p( 0.04)3d( 0.05)
     Br    2      [core]4S( 1.98)4p( 5.80)4d( 0.09)5p( 0.03)4f( 0.01)5d( 0.01)
     Cl    3      [core]3S( 1.88)3p( 4.81)4S( 0.01)3d( 0.09)4p( 0.03)4f( 0.01)
      H    4            1S( 0.48)2S( 0.01)2p( 0.01)


 NATURAL BOND ORBITAL ANALYSIS:

                       Occupancies       Lewis Structure    Low   High
           Occ.    -------------------  -----------------   occ   occ
  Cycle   Thresh.   Lewis   Non-Lewis     CR  BD  3C  LP    (L)   (NL)   Dev
 =============================================================================
   1(1)    1.90    61.47478   0.52522     20   2   0   9     1      0    0.09
   2(2)    1.90    61.47478   0.52522     20   2   0   9     1      0    0.09
   3(1)    1.80    61.47478   0.52522     20   2   0   9     0      0    0.09
 -----------------------------------------------------------------------------

 Structure accepted: No low occupancy Lewis orbitals

 WARNING:  5 low occupancy (<1.9990e) core orbitals found on Br    2

 --------------------------------------------------------
   Core                     39.98785 ( 99.970% of  40)
   Valence Lewis            21.48693 ( 97.668% of  22)
  ==================       ============================
   Total Lewis              61.47478 ( 99.153% of  62)
  -----------------------------------------------------
   Valence non-Lewis         0.13721 (  0.221% of  62)
   Rydberg non-Lewis         0.38801 (  0.626% of  62)
  ==================       ============================
   Total non-Lewis           0.52522 (  0.847% of  62)
 --------------------------------------------------------


       (Occupancy)   Bond orbital/ Coefficients/ Hybrids
 ---------------------------------------------------------------------------------
     1. (1.93978) BD ( 1) O   1 -Cl   3  
                ( 59.12%)   0.7689* O   1 s( 10.29%)p 8.66( 89.16%)d 0.05(  0.53%)
                                                  f 0.00(  0.02%)
                                            0.0003  0.3180 -0.0407 -0.0135 -0.0014
                                           -0.2087  0.0304  0.0066  0.0022  0.9195
                                           -0.0204 -0.0085 -0.0096  0.0256  0.0155
                                            0.0028 -0.0004 -0.0094 -0.0011 -0.0027
                                            0.0074  0.0008 -0.0011  0.0170  0.0023
                                           -0.0005 -0.0581 -0.0044 -0.0004 -0.0382
                                           -0.0031 -0.0001 -0.0001  0.0001  0.0022
                                            0.0002 -0.0087  0.0004 -0.0029  0.0016
                                            0.0047 -0.0010  0.0046  0.0014 -0.0061
                                            0.0008
                ( 40.88%)   0.6394*Cl   3 s(  8.48%)p10.65( 90.24%)d 0.14(  1.17%)
                                                  f 0.01(  0.11%)
                                           -0.0000  0.0005  0.2852 -0.0576 -0.0100
                                           -0.0027  0.0001  0.2275 -0.0139 -0.0049
                                            0.0015 -0.0004 -0.9198  0.0652  0.0129
                                           -0.0037  0.0000  0.0051 -0.0001 -0.0019
                                            0.0009 -0.0491  0.0053 -0.0002  0.0068
                                            0.0002 -0.0009 -0.0090 -0.0012 -0.0008
                                           -0.0774  0.0094  0.0007 -0.0549  0.0058
                                            0.0003 -0.0008  0.0001 -0.0050  0.0008
                                            0.0199 -0.0027  0.0001 -0.0006 -0.0016
                                            0.0010 -0.0176  0.0023  0.0192 -0.0022
     2. (1.96413) BD ( 1) O   1 - H   4  
                ( 78.62%)   0.8867* O   1 s( 26.22%)p 2.79( 73.26%)d 0.02(  0.52%)
                                                  f 0.00(  0.01%)
                                            0.0002  0.5119 -0.0069 -0.0081  0.0022
                                            0.7244 -0.0119 -0.0068 -0.0031 -0.0232
                                            0.0160  0.0016  0.0019  0.4547 -0.0030
                                           -0.0043 -0.0035  0.0222  0.0042  0.0011
                                            0.0556  0.0035 -0.0008  0.0155  0.0028
                                            0.0003  0.0357  0.0024  0.0018 -0.0051
                                            0.0008  0.0019 -0.0081  0.0003  0.0002
                                            0.0005  0.0007 -0.0001  0.0049  0.0020
                                            0.0003 -0.0009 -0.0011  0.0025 -0.0019
                                           -0.0002
                ( 21.38%)   0.4624* H   4 s( 99.82%)p 0.00(  0.18%)d 0.00(  0.00%)
                                            0.9986  0.0315  0.0013 -0.0002  0.0041
                                           -0.0278 -0.0078  0.0129  0.0015 -0.0039
                                            0.0221 -0.0171 -0.0025  0.0010  0.0015
                                            0.0005 -0.0008  0.0014  0.0013  0.0014
                                           -0.0013 -0.0020 -0.0017
     3. (1.99970) CR ( 1) O   1           s(100.00%)p 0.00(  0.00%)
                                            1.0000 -0.0004  0.0000  0.0000  0.0000
                                           -0.0001 -0.0000  0.0000  0.0000 -0.0002
                                            0.0000  0.0000  0.0000 -0.0000 -0.0000
                                            0.0000  0.0000  0.0000 -0.0000 -0.0000
                                           -0.0000 -0.0000  0.0000 -0.0000 -0.0000
                                           -0.0000  0.0000  0.0000 -0.0000  0.0000
                                            0.0000 -0.0000  0.0000 -0.0000 -0.0000
                                           -0.0000  0.0000 -0.0000 -0.0000 -0.0000
                                           -0.0000  0.0000 -0.0000 -0.0000  0.0000
                                           -0.0000
     4. (2.00000) CR ( 1)Br   2           s(100.00%)
                                            1.0000 -0.0000  0.0000 -0.0000 -0.0000
                                            0.0000  0.0000 -0.0000 -0.0000  0.0001
                                           -0.0000 -0.0000  0.0000  0.0000  0.0000
                                           -0.0000 -0.0000 -0.0000 -0.0000  0.0000
                                            0.0000 -0.0000 -0.0000  0.0000 -0.0000
                                           -0.0000  0.0000 -0.0000  0.0000 -0.0000
                                            0.0000 -0.0000  0.0000  0.0000  0.0000
                                           -0.0000 -0.0000  0.0000 -0.0000  0.0000
                                            0.0000 -0.0000  0.0000 -0.0000  0.0000
                                            0.0000  0.0000 -0.0000 -0.0000  0.0000
                                            0.0000 -0.0000 -0.0000 -0.0000  0.0000
                                            0.0000  0.0000 -0.0000 -0.0000
     5. (2.00000) CR ( 2)Br   2           s(100.00%)
                                           -0.0000  1.0000  0.0000 -0.0000 -0.0000
                                            0.0000  0.0000 -0.0000 -0.0000  0.0000
                                           -0.0000 -0.0000  0.0000  0.0000  0.0000
                                           -0.0000 -0.0000 -0.0000 -0.0000  0.0000
                                            0.0000 -0.0000 -0.0000  0.0000 -0.0000
                                           -0.0000  0.0000 -0.0000  0.0000 -0.0000
                                            0.0000 -0.0000  0.0000  0.0000  0.0000
                                           -0.0000 -0.0000  0.0000 -0.0000  0.0000
                                            0.0000 -0.0000  0.0000 -0.0000  0.0000
                                            0.0000  0.0000 -0.0000 -0.0000  0.0000
                                            0.0000 -0.0000 -0.0000 -0.0000  0.0000
                                            0.0000  0.0000 -0.0000 -0.0000
     6. (1.99997) CR ( 3)Br   2           s(100.00%)p 0.00(  0.00%)
                                            0.0000  0.0000  1.0000  0.0000  0.0000
                                           -0.0000 -0.0000  0.0000  0.0000 -0.0004
                                            0.0000  0.0000 -0.0000 -0.0000 -0.0000
                                            0.0000  0.0000  0.0000  0.0000 -0.0000
                                           -0.0000  0.0001  0.0000 -0.0000  0.0000
                                            0.0000 -0.0000  0.0000 -0.0000  0.0000
                                           -0.0000  0.0000 -0.0000 -0.0000 -0.0000
                                            0.0000  0.0000 -0.0000  0.0000 -0.0000
                                           -0.0000  0.0000 -0.0000  0.0000 -0.0000
                                           -0.0000 -0.0000  0.0000  0.0000 -0.0000
                                           -0.0000  0.0000  0.0000 -0.0000 -0.0000
                                           -0.0000 -0.0000  0.0000  0.0000
     7. (1.99997) CR ( 4)Br   2           s(  0.00%)p 1.00(100.00%)
                                            0.0000  0.0000 -0.0000  0.0001  0.0000
                                           -0.0000 -0.0000 -1.0000  0.0000 -0.0002
                                            0.0000  0.0000 -0.0000 -0.0000 -0.0000
                                           -0.0000  0.0000  0.0000  0.0000 -0.0000
                                           -0.0000  0.0001  0.0000 -0.0000  0.0000
                                            0.0000 -0.0000  0.0000 -0.0000  0.0000
                                           -0.0000  0.0000 -0.0000  0.0000 -0.0000
                                            0.0000  0.0000 -0.0000  0.0000 -0.0000
                                           -0.0000  0.0000 -0.0000  0.0000  0.0000
                                           -0.0000 -0.0000  0.0000  0.0000 -0.0000
                                           -0.0000  0.0000  0.0000  0.0000 -0.0000
                                           -0.0000 -0.0000  0.0000  0.0000
     8. (2.00000) CR ( 5)Br   2           s(  0.00%)p 1.00(100.00%)
                                           -0.0000 -0.0000  0.0000 -0.0000 -0.0000
                                            0.0000  0.0000 -0.0000  1.0000  0.0000
                                           -0.0000 -0.0000  0.0000  0.0000  0.0000
                                           -0.0000 -0.0000 -0.0000 -0.0000  0.0000
                                            0.0000 -0.0000 -0.0000  0.0000 -0.0000
                                           -0.0000  0.0000 -0.0000  0.0000 -0.0000
                                            0.0000 -0.0000  0.0000  0.0000  0.0000
                                           -0.0000 -0.0000  0.0000 -0.0000  0.0000
                                            0.0000 -0.0000  0.0000 -0.0000 -0.0000
                                            0.0000  0.0000 -0.0000 -0.0000  0.0000
                                            0.0000 -0.0000 -0.0000  0.0000  0.0000
                                            0.0000  0.0000 -0.0000 -0.0000
     9. (2.00002) CR ( 6)Br   2           s(  0.00%)p 1.00(100.00%)
                                            0.0000  0.0000 -0.0000  0.0000 -0.0000
                                            0.0000  0.0000  0.0000  0.0000 -0.0000
                                            0.0000  0.0000 -0.0000  1.0000 -0.0000
                                           -0.0001 -0.0000 -0.0000 -0.0000 -0.0000
                                           -0.0000  0.0000 -0.0000 -0.0000 -0.0000
                                           -0.0000  0.0000 -0.0000 -0.0000  0.0000
                                           -0.0000 -0.0000  0.0000  0.0000 -0.0000
                                            0.0000 -0.0000 -0.0000 -0.0000  0.0000
                                           -0.0000  0.0000 -0.0000  0.0000 -0.0000
                                            0.0000  0.0000  0.0000  0.0000  0.0000
                                            0.0000 -0.0000 -0.0000  0.0000  0.0000
                                            0.0000  0.0000 -0.0000 -0.0000
    10. (2.00000) CR ( 7)Br   2           s(  0.00%)p 1.00(100.00%)
                                            0.0000  0.0000 -0.0000  0.0000 -0.0000
                                           -0.0000  0.0000  0.0000  0.0000 -0.0000
                                            0.0000  0.0000 -0.0000 -0.0000  1.0000
                                           -0.0000 -0.0000 -0.0000 -0.0000 -0.0000
                                           -0.0000  0.0000  0.0000 -0.0000 -0.0000
                                           -0.0000  0.0000 -0.0000 -0.0000  0.0000
                                           -0.0000  0.0000  0.0000  0.0000 -0.0000
                                            0.0000 -0.0000 -0.0000  0.0000  0.0000
                                           -0.0000  0.0000 -0.0000  0.0000 -0.0000
                                           -0.0000 -0.0000  0.0000  0.0000  0.0000
                                            0.0000  0.0000 -0.0000  0.0000  0.0000
                                           -0.0000 -0.0000 -0.0000 -0.0000
    11. (2.00001) CR ( 8)Br   2           s(  0.00%)p 1.00(100.00%)
                                            0.0000  0.0000 -0.0000  0.0000  0.0000
                                           -0.0000 -0.0000  0.0000  0.0000 -0.0001
                                            0.0000  0.0000 -0.0000 -0.0000 -0.0000
                                            0.0000  0.0000  0.0000  0.0000  1.0000
                                           -0.0000 -0.0001  0.0000 -0.0000  0.0000
                                            0.0000 -0.0000  0.0000 -0.0000  0.0000
                                           -0.0000  0.0000 -0.0000 -0.0000  0.0000
                                           -0.0000 -0.0000 -0.0000  0.0000 -0.0000
                                           -0.0000  0.0000 -0.0000  0.0000 -0.0000
                                           -0.0000 -0.0000  0.0000  0.0000 -0.0000
                                           -0.0000  0.0000  0.0000  0.0000  0.0000
                                           -0.0000 -0.0000  0.0000  0.0000
    12. (2.00000) CR ( 9)Br   2           s(  0.00%)p 1.00(100.00%)
                                            0.0000  0.0000 -0.0000  0.0000  0.0000
                                           -0.0000 -0.0000  0.0000  0.0000 -0.0000
                                            0.0000  0.0000 -0.0000 -0.0000 -0.0000
                                            0.0000  0.0000  0.0000  0.0000 -0.0000
                                            1.0000 -0.0000  0.0000 -0.0000  0.0000
                                            0.0000 -0.0000  0.0000 -0.0000  0.0000
                                           -0.0000  0.0000 -0.0000 -0.0000  0.0000
                                           -0.0000 -0.0000 -0.0000  0.0000 -0.0000
                                           -0.0000  0.0000 -0.0000  0.0000 -0.0000
                                           -0.0000 -0.0000  0.0000  0.0000 -0.0000
                                           -0.0000  0.0000  0.0000  0.0000  0.0000
                                           -0.0000 -0.0000  0.0000  0.0000
    13. (1.99767) CR (10)Br   2           s(  0.00%)p 0.00(  0.00%)d 1.00(100.00%)
                                           -0.0000 -0.0000  0.0000 -0.0000 -0.0000
                                            0.0000  0.0000 -0.0000 -0.0000  0.0000
                                           -0.0000 -0.0000 -0.0000 -0.0000 -0.0000
                                           -0.0000 -0.0000 -0.0000 -0.0000  0.0000
                                            0.0000 -0.0000 -0.0000  0.0000 -0.0000
                                            1.0000  0.0000 -0.0000 -0.0000 -0.0000
                                            0.0000 -0.0000  0.0000  0.0000 -0.0000
                                            0.0000 -0.0000  0.0000 -0.0000  0.0000
                                           -0.0000 -0.0000  0.0000 -0.0000 -0.0000
                                            0.0000  0.0000 -0.0000 -0.0000  0.0000
                                            0.0000 -0.0000 -0.0000  0.0000  0.0000
                                            0.0000  0.0000 -0.0000 -0.0000
    14. (1.99767) CR (11)Br   2           s(  0.00%)p 0.00(  0.00%)d 1.00(100.00%)
                                           -0.0000 -0.0000  0.0000 -0.0000 -0.0000
                                            0.0000  0.0000 -0.0000 -0.0000  0.0001
                                           -0.0000 -0.0000  0.0000  0.0000  0.0000
                                           -0.0000 -0.0000 -0.0000 -0.0000  0.0000
                                            0.0000 -0.0000 -0.0000  0.0000 -0.0000
                                           -0.0000  0.0000 -0.0000  0.0000  1.0000
                                            0.0000 -0.0000  0.0000  0.0000  0.0000
                                           -0.0000 -0.0000  0.0000 -0.0000  0.0000
                                            0.0000 -0.0000  0.0000 -0.0000 -0.0000
                                            0.0000  0.0000 -0.0000 -0.0000  0.0000
                                            0.0000 -0.0000 -0.0000 -0.0000  0.0000
                                            0.0000  0.0000 -0.0000 -0.0000
    15. (1.99769) CR (12)Br   2           s(  0.00%)p 0.00(  0.00%)d 1.00(100.00%)
                                            0.0000  0.0000 -0.0000 -0.0000  0.0000
                                           -0.0000 -0.0000 -0.0000  0.0000 -0.0000
                                           -0.0000  0.0000  0.0000  0.0000  0.0000
                                            0.0000  0.0000  0.0000  0.0000 -0.0000
                                           -0.0000 -0.0000  0.0000 -0.0000  0.0000
                                            0.0000 -0.0000  0.0000  0.0000  0.0000
                                            0.0000  0.0000 -0.0000  1.0000  0.0000
                                           -0.0000  0.0000 -0.0000  0.0000 -0.0000
                                            0.0000  0.0000 -0.0000  0.0000  0.0000
                                           -0.0000 -0.0000  0.0000  0.0000 -0.0000
                                           -0.0000  0.0000  0.0000 -0.0000 -0.0000
                                           -0.0000 -0.0000  0.0000  0.0000
    16. (1.99765) CR (13)Br   2           s(  0.00%)p 0.00(  0.00%)d 1.00(100.00%)
                                            0.0000  0.0000 -0.0000  0.0001  0.0000
                                           -0.0000 -0.0000  0.0000  0.0000 -0.0002
                                            0.0000  0.0000 -0.0000 -0.0000 -0.0000
                                           -0.0000  0.0000  0.0000  0.0000 -0.0000
                                           -0.0000  0.0001  0.0000 -0.0000  0.0000
                                            0.0000 -0.0000  0.0000 -0.0000  0.0000
                                           -0.0000  0.0000 -0.0000 -0.0000 -0.0000
                                            0.0000  0.0000  1.0000  0.0000 -0.0000
                                           -0.0000  0.0000 -0.0000  0.0000 -0.0000
                                           -0.0000 -0.0000  0.0000  0.0000 -0.0000
                                           -0.0000  0.0000  0.0000  0.0000 -0.0000
                                           -0.0000 -0.0000  0.0000  0.0000
    17. (1.99768) CR (14)Br   2           s(  0.00%)p 0.00(  0.00%)d 1.00(100.00%)
                                           -0.0000 -0.0000  0.0000 -0.0000 -0.0000
                                            0.0000  0.0000 -0.0000 -0.0000  0.0001
                                           -0.0000 -0.0000  0.0000  0.0000  0.0000
                                            0.0000 -0.0000 -0.0000 -0.0000  0.0000
                                            0.0000 -0.0000 -0.0000  0.0000 -0.0000
                                           -0.0000  0.0000 -0.0000  0.0000 -0.0000
                                            0.0000 -0.0000  0.0000  0.0000  0.0000
                                           -0.0000 -0.0000  0.0000 -0.0000  0.0000
                                            0.0000  1.0000  0.0000 -0.0000  0.0000
                                            0.0000  0.0000 -0.0000 -0.0000  0.0000
                                            0.0000 -0.0000 -0.0000 -0.0000  0.0000
                                            0.0000  0.0000 -0.0000 -0.0000
    18. (2.00000) CR ( 1)Cl   3           s(100.00%)
                                            1.0000  0.0000  0.0000 -0.0000 -0.0000
                                           -0.0000  0.0000  0.0000 -0.0000 -0.0000
                                            0.0000 -0.0000 -0.0000  0.0000  0.0000
                                           -0.0000 -0.0000  0.0000  0.0000 -0.0000
                                            0.0000 -0.0000  0.0000 -0.0000  0.0000
                                           -0.0000 -0.0000 -0.0000 -0.0000 -0.0000
                                           -0.0000  0.0000  0.0000 -0.0000  0.0000
                                            0.0000 -0.0000  0.0000 -0.0000  0.0000
                                            0.0000 -0.0000 -0.0000 -0.0000 -0.0000
                                            0.0000 -0.0000  0.0000  0.0000 -0.0000
    19. (1.99980) CR ( 2)Cl   3           s(100.00%)p 0.00(  0.00%)
                                            0.0000  1.0000 -0.0004  0.0000  0.0000
                                            0.0000 -0.0000 -0.0001  0.0000  0.0000
                                           -0.0000  0.0000  0.0004 -0.0000 -0.0000
                                            0.0000 -0.0000 -0.0000 -0.0000  0.0000
                                           -0.0000  0.0000 -0.0000 -0.0000 -0.0000
                                           -0.0000  0.0000  0.0000  0.0000  0.0000
                                            0.0000 -0.0000 -0.0000  0.0000 -0.0000
                                           -0.0000  0.0000 -0.0000  0.0000 -0.0000
                                           -0.0000  0.0000 -0.0000  0.0000  0.0000
                                           -0.0000  0.0000 -0.0000 -0.0000  0.0000
    20. (2.00003) CR ( 3)Cl   3           s(  0.00%)p 1.00(100.00%)
                                            0.0000 -0.0000 -0.0000  0.0000  0.0000
                                            0.0000  1.0000  0.0001  0.0000  0.0000
                                           -0.0000  0.0000  0.0001 -0.0000 -0.0000
                                            0.0000 -0.0000  0.0000  0.0000  0.0000
                                            0.0000  0.0000  0.0000  0.0000 -0.0000
                                            0.0000  0.0000  0.0000 -0.0000  0.0000
                                            0.0000 -0.0000 -0.0000  0.0000 -0.0000
                                            0.0000 -0.0000  0.0000  0.0000 -0.0000
                                           -0.0000  0.0000  0.0000 -0.0000  0.0000
                                           -0.0000  0.0000 -0.0000 -0.0000  0.0000
    21. (1.99997) CR ( 4)Cl   3           s(  0.00%)p 1.00(100.00%)
                                           -0.0000  0.0000  0.0001 -0.0000 -0.0000
                                           -0.0000  0.0000  0.0001 -0.0000 -0.0000
                                            0.0000  1.0000 -0.0003  0.0000  0.0000
                                           -0.0000 -0.0000  0.0000  0.0000 -0.0000
                                            0.0000 -0.0000  0.0000  0.0000  0.0000
                                            0.0000 -0.0000 -0.0000 -0.0000 -0.0000
                                           -0.0000  0.0000 -0.0000 -0.0000  0.0000
                                            0.0000 -0.0000  0.0000 -0.0000  0.0000
                                            0.0000 -0.0000  0.0000 -0.0000 -0.0000
                                            0.0000 -0.0000  0.0000  0.0000 -0.0000
    22. (2.00003) CR ( 5)Cl   3           s(  0.00%)p 1.00(100.00%)
                                           -0.0000 -0.0000 -0.0000  0.0000  0.0000
                                           -0.0000 -0.0000  0.0000  0.0000 -0.0000
                                            0.0000 -0.0000  0.0000 -0.0000  0.0000
                                           -0.0000  1.0000  0.0002  0.0000  0.0000
                                           -0.0000 -0.0000 -0.0000 -0.0000 -0.0000
                                           -0.0000 -0.0000  0.0000  0.0000  0.0000
                                            0.0000 -0.0000 -0.0000  0.0000  0.0000
                                            0.0000 -0.0000  0.0000  0.0000 -0.0000
                                           -0.0000  0.0000 -0.0000  0.0000 -0.0000
                                            0.0000  0.0000  0.0000 -0.0000 -0.0000
    23. (1.96798) LP ( 1) O   1           s( 63.60%)p 0.57( 36.30%)d 0.00(  0.09%)
                                                  f 0.00(  0.00%)
                                            0.0002  0.7974  0.0119  0.0074 -0.0011
                                           -0.3766 -0.0061 -0.0039 -0.0017 -0.3515
                                           -0.0049 -0.0055 -0.0024 -0.3122 -0.0044
                                           -0.0030 -0.0008 -0.0210 -0.0015  0.0040
                                           -0.0122 -0.0003  0.0008 -0.0177 -0.0022
                                            0.0012  0.0005  0.0007  0.0015  0.0009
                                           -0.0000  0.0011  0.0030 -0.0004  0.0003
                                           -0.0003 -0.0008  0.0008  0.0015 -0.0010
                                           -0.0017  0.0006  0.0043 -0.0020 -0.0001
                                            0.0006
    24. (1.95282) LP ( 2) O   1           s(  0.02%)p99.99( 99.77%)d11.67(  0.20%)
                                                  f 0.84(  0.01%)
                                           -0.0000  0.0092  0.0084  0.0041 -0.0006
                                           -0.5328 -0.0104 -0.0027 -0.0023 -0.1467
                                           -0.0037 -0.0010 -0.0019  0.8318  0.0167
                                            0.0058  0.0059 -0.0208 -0.0013  0.0031
                                           -0.0001 -0.0042 -0.0061  0.0272  0.0035
                                           -0.0019 -0.0029  0.0031  0.0046  0.0261
                                           -0.0007 -0.0062 -0.0040  0.0006  0.0071
                                            0.0000  0.0009 -0.0004 -0.0064  0.0015
                                           -0.0035 -0.0000  0.0030 -0.0018  0.0030
                                           -0.0005
    25. (1.97945) LP ( 1)Br   2           s( 95.69%)p 0.04(  4.31%)d 0.00(  0.00%)
                                                  f 0.00(  0.00%)
                                           -0.0000 -0.0000  0.0001  0.9782 -0.0001
                                            0.0002  0.0002  0.0001  0.0000  0.1971
                                           -0.0009  0.0006 -0.0001 -0.0000  0.0000
                                           -0.0046 -0.0001 -0.0000 -0.0001 -0.0000
                                           -0.0000 -0.0647  0.0003 -0.0001  0.0001
                                           -0.0000 -0.0000 -0.0000  0.0000  0.0000
                                            0.0001  0.0003  0.0002  0.0000 -0.0000
                                            0.0000 -0.0000 -0.0000  0.0007 -0.0004
                                           -0.0002  0.0000 -0.0005  0.0002  0.0001
                                           -0.0002 -0.0002  0.0003  0.0001  0.0000
                                            0.0000  0.0003  0.0003  0.0000  0.0001
                                           -0.0004 -0.0003  0.0000 -0.0000
    26. (1.95365) LP ( 2)Br   2           s(  0.00%)p 1.00( 99.99%)d 0.00(  0.01%)
                                                  f 0.00(  0.00%)
                                            0.0000  0.0000  0.0000  0.0056  0.0005
                                           -0.0005 -0.0017 -0.0000 -0.0000 -0.1340
                                            0.0001  0.0001 -0.0000  0.0001  0.0000
                                            0.9120  0.0015  0.0010  0.0001 -0.0001
                                           -0.0000 -0.3876 -0.0003 -0.0004  0.0003
                                            0.0000 -0.0075  0.0016  0.0005 -0.0000
                                            0.0018  0.0001 -0.0008 -0.0000  0.0033
                                           -0.0013  0.0011 -0.0000  0.0016 -0.0006
                                            0.0002  0.0000 -0.0020  0.0007 -0.0004
                                            0.0002  0.0000  0.0011  0.0007 -0.0004
                                           -0.0002 -0.0003 -0.0000 -0.0015 -0.0010
                                           -0.0004 -0.0001  0.0023  0.0013
    27. (1.95338) LP ( 3)Br   2           s(  0.00%)p 1.00( 99.99%)d 0.00(  0.01%)
                                                  f 0.00(  0.00%)
                                            0.0000  0.0000 -0.0000  0.0012 -0.0006
                                            0.0009  0.0023  0.0000  0.0000  0.2880
                                           -0.0005 -0.0002  0.0002  0.0001  0.0000
                                            0.4101  0.0006  0.0004 -0.0001  0.0001
                                            0.0000  0.8653  0.0007  0.0010 -0.0003
                                            0.0000 -0.0033  0.0006  0.0005  0.0000
                                           -0.0043  0.0005  0.0013 -0.0000  0.0015
                                           -0.0005  0.0005  0.0000 -0.0014  0.0001
                                            0.0010 -0.0000  0.0047 -0.0017  0.0010
                                           -0.0005 -0.0002 -0.0023 -0.0015 -0.0002
                                           -0.0001  0.0010  0.0004 -0.0008 -0.0006
                                            0.0006  0.0001  0.0010  0.0005
    28. (1.89071) LP ( 4)Br   2           s(  4.30%)p22.24( 95.65%)d 0.01(  0.04%)
                                                  f 0.00(  0.00%)
                                            0.0001  0.0000 -0.0004  0.2074  0.0003
                                           -0.0012 -0.0011  0.0003  0.0000 -0.9273
                                            0.0027  0.0022 -0.0000 -0.0000 -0.0000
                                           -0.0054  0.0000  0.0002  0.0005 -0.0001
                                           -0.0000  0.3109  0.0017 -0.0007  0.0006
                                            0.0000 -0.0001  0.0003 -0.0005  0.0001
                                           -0.0138  0.0035 -0.0014 -0.0000 -0.0001
                                            0.0000  0.0000 -0.0002  0.0137 -0.0030
                                           -0.0004  0.0001 -0.0060  0.0014 -0.0001
                                           -0.0025 -0.0013  0.0017  0.0013 -0.0000
                                           -0.0001  0.0034  0.0018  0.0000 -0.0000
                                           -0.0035 -0.0019  0.0001  0.0003
    29. (1.97410) LP ( 1)Cl   3           s( 91.67%)p 0.09(  8.30%)d 0.00(  0.02%)
                                                  f 0.00(  0.00%)
                                            0.0000  0.0003  0.9574  0.0067  0.0011
                                            0.0003 -0.0000 -0.0426 -0.0001  0.0004
                                            0.0002  0.0000  0.2838 -0.0065 -0.0029
                                            0.0012 -0.0000  0.0254  0.0007  0.0002
                                            0.0001  0.0051  0.0001  0.0004  0.0006
                                            0.0001 -0.0003  0.0005  0.0005  0.0004
                                            0.0107 -0.0006 -0.0002  0.0081  0.0007
                                            0.0003 -0.0003  0.0001  0.0006 -0.0000
                                           -0.0022 -0.0003  0.0001 -0.0001 -0.0005
                                            0.0002  0.0017  0.0003 -0.0028  0.0001
    30. (1.95614) LP ( 2)Cl   3           s(  0.02%)p99.99( 99.93%)d 2.82(  0.05%)
                                                  f 0.48(  0.01%)
                                            0.0000  0.0000  0.0117 -0.0052 -0.0024
                                            0.0013 -0.0001  0.4283  0.0057  0.0021
                                           -0.0002 -0.0000  0.1052  0.0015 -0.0001
                                            0.0006  0.0002 -0.8970 -0.0138 -0.0042
                                            0.0019  0.0028  0.0066  0.0030  0.0057
                                            0.0078  0.0031 -0.0047 -0.0142 -0.0073
                                           -0.0032 -0.0047 -0.0026 -0.0005  0.0001
                                           -0.0000  0.0042 -0.0001 -0.0018  0.0007
                                            0.0003 -0.0003  0.0058 -0.0013  0.0032
                                           -0.0007 -0.0024  0.0002 -0.0028  0.0008
    31. (1.95481) LP ( 3)Cl   3           s(  0.12%)p99.99( 99.83%)d 0.32(  0.04%)
                                                  f 0.07(  0.01%)
                                            0.0000 -0.0000  0.0346  0.0053  0.0037
                                           -0.0016  0.0002 -0.8721 -0.0114 -0.0013
                                            0.0002  0.0001 -0.2085 -0.0029 -0.0006
                                           -0.0008  0.0001 -0.4405 -0.0070 -0.0011
                                            0.0003  0.0048 -0.0097 -0.0051 -0.0003
                                            0.0025  0.0015  0.0019 -0.0055 -0.0033
                                            0.0063  0.0104  0.0059 -0.0016 -0.0030
                                           -0.0003  0.0029 -0.0005  0.0012  0.0004
                                            0.0008  0.0001  0.0020  0.0001  0.0019
                                           -0.0004  0.0055 -0.0010  0.0060 -0.0009
    32. (0.01961) RY*( 1) O   1           s(  0.19%)p99.99( 98.25%)d 7.96(  1.50%)
                                                  f 0.29(  0.05%)
                                           -0.0000 -0.0003  0.0432  0.0042  0.0012
                                            0.0129 -0.5276  0.0212  0.0093  0.0063
                                           -0.1466  0.0049 -0.0021 -0.0212  0.8248
                                           -0.0336 -0.0040 -0.0575 -0.0124 -0.0006
                                            0.0045 -0.0081 -0.0109  0.0743  0.0223
                                            0.0064 -0.0079  0.0063  0.0065  0.0713
                                            0.0056 -0.0054 -0.0074  0.0061  0.0067
                                           -0.0067  0.0027 -0.0014 -0.0104  0.0088
                                           -0.0036  0.0034  0.0087 -0.0064  0.0039
                                           -0.0043
    33. (0.01568) RY*( 2) O   1           s( 28.95%)p 2.36( 68.26%)d 0.09(  2.54%)
                                                  f 0.01(  0.26%)
                                           -0.0000  0.0020  0.5357 -0.0495 -0.0052
                                            0.0073 -0.4966  0.0042  0.0335  0.0411
                                           -0.4939 -0.0028  0.0330  0.0072 -0.4328
                                            0.0073  0.0234 -0.1040 -0.0209 -0.0080
                                           -0.0330  0.0024  0.0101 -0.1011 -0.0192
                                           -0.0076  0.0399  0.0035 -0.0013  0.0240
                                            0.0041  0.0003  0.0003 -0.0026  0.0144
                                           -0.0085 -0.0114  0.0043  0.0253 -0.0120
                                           -0.0071  0.0047  0.0307 -0.0144 -0.0103
                                            0.0037
    34. (0.00790) RY*( 3) O   1           s( 14.90%)p 0.49(  7.33%)d 5.12( 76.31%)
                                                  f 0.10(  1.46%)
                                           -0.0000  0.0148  0.3813 -0.0565  0.0135
                                            0.0106  0.2200 -0.0139  0.0624 -0.0161
                                           -0.0917  0.0022  0.0406 -0.0006  0.1012
                                           -0.0079  0.0097  0.6152 -0.0021  0.0014
                                           -0.1252  0.0033 -0.0069  0.2343  0.0098
                                            0.0078 -0.5020 -0.0107 -0.0315  0.2463
                                           -0.0059  0.0065 -0.0023  0.0010  0.0078
                                           -0.0101 -0.0032  0.0045 -0.0448  0.0179
                                            0.0280 -0.0129 -0.0911  0.0355 -0.0352
                                            0.0179
    35. (0.00708) RY*( 4) O   1           s(  0.73%)p 0.42(  0.31%)d99.99( 97.22%)
                                                  f 2.36(  1.73%)
                                            0.0000  0.0052  0.0851 -0.0077 -0.0025
                                            0.0085  0.0252  0.0061  0.0021 -0.0018
                                           -0.0020  0.0051  0.0072 -0.0153 -0.0438
                                           -0.0091  0.0061 -0.1110  0.0126 -0.0010
                                           -0.4048  0.0206 -0.0057  0.8045 -0.0347
                                            0.0088  0.2788 -0.0197  0.0009 -0.2619
                                            0.0129 -0.0087 -0.0657  0.0282 -0.0338
                                            0.0152  0.0107 -0.0044 -0.0825  0.0345
                                           -0.0162  0.0069  0.0297 -0.0159  0.0337
                                           -0.0126
    36. (0.00635) RY*( 5) O   1           s(  0.36%)p22.59(  8.18%)d99.99( 89.90%)
                                                  f 4.29(  1.55%)
                                           -0.0000  0.0021  0.0555 -0.0230 -0.0029
                                            0.0450  0.2579 -0.0161  0.0045 -0.0030
                                           -0.1059 -0.0020  0.0309 -0.0126  0.0258
                                           -0.0041  0.0041 -0.6702  0.0317 -0.0205
                                            0.0304 -0.0024  0.0001  0.1903 -0.0275
                                           -0.0082 -0.2719  0.0136 -0.0129  0.5780
                                           -0.0400  0.0198  0.0146 -0.0089  0.0653
                                           -0.0327  0.0350 -0.0178 -0.0347  0.0179
                                           -0.0346  0.0166  0.0466 -0.0163 -0.0501
                                            0.0209
    37. (0.00607) RY*( 6) O   1           s(  1.09%)p19.38( 21.13%)d69.84( 76.14%)
                                                  f 1.51(  1.64%)
                                           -0.0000  0.0085  0.0984 -0.0306 -0.0147
                                            0.0466  0.3184 -0.0144 -0.0184 -0.0157
[...]
                                            0.4528 -0.0169  0.1408  0.0482 -0.1687
                                           -0.1657  0.1110  0.1330
   162. (0.00028) RY*( 8) H   4           s( 17.96%)p 2.42( 43.44%)d 2.15( 38.59%)
                                            0.0081 -0.0394  0.4016  0.1292 -0.0140
                                            0.1761 -0.0462 -0.0257  0.4364 -0.0902
                                           -0.0111  0.1863 -0.4087 -0.0512 -0.1352
                                            0.2634  0.1729  0.1947 -0.1133 -0.4583
                                            0.0398  0.0581  0.0048
   163. (0.00028) RY*( 9) H   4           s(  5.36%)p 4.96( 26.63%)d12.68( 68.01%)
                                            0.0023  0.0167  0.2294  0.0273 -0.0438
                                            0.2873  0.1597  0.0506 -0.0422  0.0286
                                            0.0561 -0.3158  0.2197 -0.4340  0.0410
                                           -0.5024  0.0455  0.4686 -0.0270 -0.0976
                                           -0.0463  0.0554  0.0218
   164. (0.00025) RY*(10) H   4           s(  3.93%)p 9.90( 38.96%)d14.51( 57.11%)
                                           -0.0018 -0.0292  0.1929 -0.0357 -0.0605
                                            0.0955  0.3018 -0.1200  0.1057 -0.1305
                                            0.0533 -0.4826  0.0858  0.5063  0.0048
                                           -0.1587 -0.0071 -0.3849 -0.0088 -0.2962
                                           -0.1461 -0.0069  0.1790
   165. (0.00021) RY*(11) H   4           s(  9.64%)p 7.09( 68.35%)d 2.28( 22.02%)
                                           -0.0231 -0.0853  0.2898 -0.0675 -0.0887
                                           -0.4301 -0.3423  0.0220  0.0888 -0.0670
                                           -0.0122 -0.5672 -0.1967 -0.0412  0.0036
                                            0.1423  0.1708  0.1349 -0.0446  0.3708
                                            0.0287 -0.0473  0.0912
   166. (0.00018) RY*(12) H   4           s(  0.44%)p48.26( 21.28%)d99.99( 78.28%)
                                            0.0053 -0.0352 -0.0031  0.0559 -0.0575
                                            0.1760  0.0953  0.0608  0.1105  0.1621
                                            0.1156  0.0209 -0.3368 -0.0692 -0.0014
                                           -0.1775  0.0490 -0.2699  0.0212  0.3510
                                            0.0029  0.7352  0.0843
   167. (0.00013) RY*(13) H   4           s( 22.82%)p 1.08( 24.69%)d 2.30( 52.49%)
                                           -0.0052 -0.0144  0.2150  0.4263  0.0402
                                           -0.0697 -0.1506  0.0238  0.0506 -0.1443
                                           -0.0025 -0.1418  0.4167 -0.1321  0.1373
                                            0.2523 -0.3645 -0.1624  0.0829 -0.1102
                                            0.1937  0.3246 -0.3222
   168. (0.00012) RY*(14) H   4           s( 39.52%)p 0.28( 11.03%)d 1.25( 49.45%)
                                            0.0044  0.0409  0.1969  0.5956  0.0073
                                            0.0691  0.2344  0.0181  0.1311  0.0999
                                           -0.0536  0.1408  0.0197  0.1930 -0.0805
                                            0.0191 -0.2094  0.1549 -0.0775  0.4518
                                           -0.2446 -0.2618  0.2100
   169. (0.00012) RY*(15) H   4           s(  7.64%)p 0.94(  7.20%)d11.15( 85.16%)
                                            0.0018 -0.0097  0.2362  0.1433 -0.0266
                                            0.0048 -0.0227  0.0248 -0.0904  0.2203
                                           -0.0190  0.0124 -0.1135 -0.5146 -0.0356
                                           -0.0900  0.1278 -0.6293  0.1020 -0.0523
                                           -0.0531 -0.3859  0.0121
   170. (0.00010) RY*(16) H   4           s(  0.31%)p99.99( 46.50%)d99.99( 53.19%)
   171. (0.00007) RY*(17) H   4           s( 44.71%)p 0.48( 21.49%)d 0.76( 33.81%)
   172. (0.00006) RY*(18) H   4           s(  0.05%)p48.23(  2.39%)d99.99( 97.56%)
   173. (0.00005) RY*(19) H   4           s(  0.37%)p63.37( 23.19%)d99.99( 76.44%)
   174. (0.00004) RY*(20) H   4           s( 12.21%)p 1.20( 14.60%)d 6.00( 73.20%)
   175. (0.00005) RY*(21) H   4           s(  1.87%)p12.96( 24.23%)d39.53( 73.90%)
   176. (0.00003) RY*(22) H   4           s(  1.77%)p20.95( 37.12%)d34.48( 61.11%)
   177. (0.05827) BD*( 1) O   1 -Cl   3  
                ( 40.88%)   0.6394* O   1 s( 10.29%)p 8.66( 89.16%)d 0.05(  0.53%)
                                                  f 0.00(  0.02%)
                                           -0.0003 -0.3180  0.0407  0.0135  0.0014
                                            0.2087 -0.0304 -0.0066 -0.0022 -0.9195
                                            0.0204  0.0085  0.0096 -0.0256 -0.0155
                                           -0.0028  0.0004  0.0094  0.0011  0.0027
                                           -0.0074 -0.0008  0.0011 -0.0170 -0.0023
                                            0.0005  0.0581  0.0044  0.0004  0.0382
                                            0.0031  0.0001  0.0001 -0.0001 -0.0022
                                           -0.0002  0.0087 -0.0004  0.0029 -0.0016
                                           -0.0047  0.0010 -0.0046 -0.0014  0.0061
                                           -0.0008
                ( 59.12%)  -0.7689*Cl   3 s(  8.48%)p10.65( 90.24%)d 0.14(  1.17%)
                                                  f 0.01(  0.11%)
                                            0.0000 -0.0005 -0.2852  0.0576  0.0100
                                            0.0027 -0.0001 -0.2275  0.0139  0.0049
                                           -0.0015  0.0004  0.9198 -0.0652 -0.0129
                                            0.0037 -0.0000 -0.0051  0.0001  0.0019
                                           -0.0009  0.0491 -0.0053  0.0002 -0.0068
                                           -0.0002  0.0009  0.0090  0.0012  0.0008
                                            0.0774 -0.0094 -0.0007  0.0549 -0.0058
                                           -0.0003  0.0008 -0.0001  0.0050 -0.0008
                                           -0.0199  0.0027 -0.0001  0.0006  0.0016
                                           -0.0010  0.0176 -0.0023 -0.0192  0.0022
   178. (0.07894) BD*( 1) O   1 - H   4  
                ( 21.38%)   0.4624* O   1 s( 26.22%)p 2.79( 73.26%)d 0.02(  0.52%)
                                                  f 0.00(  0.01%)
                                           -0.0002 -0.5119  0.0069  0.0081 -0.0022
                                           -0.7244  0.0119  0.0068  0.0031  0.0232
                                           -0.0160 -0.0016 -0.0019 -0.4547  0.0030
                                            0.0043  0.0035 -0.0222 -0.0042 -0.0011
                                           -0.0556 -0.0035  0.0008 -0.0155 -0.0028
                                           -0.0003 -0.0357 -0.0024 -0.0018  0.0051
                                           -0.0008 -0.0019  0.0081 -0.0003 -0.0002
                                           -0.0005 -0.0007  0.0001 -0.0049 -0.0020
                                           -0.0003  0.0009  0.0011 -0.0025  0.0019
                                            0.0002
                ( 78.62%)  -0.8867* H   4 s( 99.82%)p 0.00(  0.18%)d 0.00(  0.00%)
                                           -0.9986 -0.0315 -0.0013  0.0002 -0.0041
                                            0.0278  0.0078 -0.0129 -0.0015  0.0039
                                           -0.0221  0.0171  0.0025 -0.0010 -0.0015
                                           -0.0005  0.0008 -0.0014 -0.0013 -0.0014
                                            0.0013  0.0020  0.0017


 NHO Directionality and "Bond Bending" (deviations from line of nuclear centers)

         [Thresholds for printing:  angular deviation  >  1.0 degree]
                                    hybrid p-character > 25.0%
                                    orbital occupancy  >  0.10e

                                Line of Centers        Hybrid 1              Hybrid 2
                                ---------------  -------------------   ------------------
                NBO               Theta   Phi    Theta   Phi    Dev    Theta   Phi    Dev
 ========================================================================================
     1. BD (   1) O   1 -Cl   3    90.0  103.4    87.2  100.9   3.8      --     --    --
     2. BD (   1) O   1 - H   4    60.0    0.0    57.7  359.7   2.3      --     --    --
    23. LP (   1) O   1             --     --    121.0  223.2   --       --     --    --
    24. LP (   2) O   1             --     --     33.5  195.6   --       --     --    --
    26. LP (   2)Br   2             --     --    112.8   98.3   --       --     --    --
    27. LP (   3)Br   2             --     --     30.1   55.0   --       --     --    --
    28. LP (   4)Br   2             --     --     71.3  180.3   --       --     --    --
    30. LP (   2)Cl   3             --     --    153.8   13.8   --       --     --    --
    31. LP (   3)Cl   3             --     --    116.2  193.5   --       --     --    --


 Natural Bond Orbitals (Summary):

           NBO                  Occupancy  
 -----------------------------------------------
 Molecular unit  1  (HOCl)
     1. BD (   1) O   1 -Cl   3          1.93978
     2. BD (   1) O   1 - H   4          1.96413
     3. CR (   1) O   1                  1.99970
    18. CR (   1)Cl   3                  2.00000
    19. CR (   2)Cl   3                  1.99980
    20. CR (   3)Cl   3                  2.00003
    21. CR (   4)Cl   3                  1.99997
    22. CR (   5)Cl   3                  2.00003
    23. LP (   1) O   1                  1.96798
    24. LP (   2) O   1                  1.95282
    29. LP (   1)Cl   3                  1.97410
    30. LP (   2)Cl   3                  1.95614
    31. LP (   3)Cl   3                  1.95481
    32. RY*(   1) O   1                  0.01961
    33. RY*(   2) O   1                  0.01568
    34. RY*(   3) O   1                  0.00790
    35. RY*(   4) O   1                  0.00708
    36. RY*(   5) O   1                  0.00635
    37. RY*(   6) O   1                  0.00607
    38. RY*(   7) O   1                  0.00573
    39. RY*(   8) O   1                  0.00299
    40. RY*(   9) O   1                  0.00252
    41. RY*(  10) O   1                  0.00080
    42. RY*(  11) O   1                  0.00066
    43. RY*(  12) O   1                  0.00062
    44. RY*(  13) O   1                  0.00059
    45. RY*(  14) O   1                  0.00050
    46. RY*(  15) O   1                  0.00050
    47. RY*(  16) O   1                  0.00049
    48. RY*(  17) O   1                  0.00048
    49. RY*(  18) O   1                  0.00047
    50. RY*(  19) O   1                  0.00045
    51. RY*(  20) O   1                  0.00045
    52. RY*(  21) O   1                  0.00045
    53. RY*(  22) O   1                  0.00042
    54. RY*(  23) O   1                  0.00035
    55. RY*(  24) O   1                  0.00030
    56. RY*(  25) O   1                  0.00024
    57. RY*(  26) O   1                  0.00020
    58. RY*(  27) O   1                  0.00015
    59. RY*(  28) O   1                  0.00013
    60. RY*(  29) O   1                  0.00013
    61. RY*(  30) O   1                  0.00010
    62. RY*(  31) O   1                  0.00009
    63. RY*(  32) O   1                  0.00008
    64. RY*(  33) O   1                  0.00007
    65. RY*(  34) O   1                  0.00007
    66. RY*(  35) O   1                  0.00007
    67. RY*(  36) O   1                  0.00008
    68. RY*(  37) O   1                  0.00007
    69. RY*(  38) O   1                  0.00004
    70. RY*(  39) O   1                  0.00005
    71. RY*(  40) O   1                  0.00004
    72. RY*(  41) O   1                  0.00002
   114. RY*(   1)Cl   3                  0.02247
   115. RY*(   2)Cl   3                  0.01746
   116. RY*(   3)Cl   3                  0.01682
   117. RY*(   4)Cl   3                  0.01645
   118. RY*(   5)Cl   3                  0.01163
   119. RY*(   6)Cl   3                  0.00919
   120. RY*(   7)Cl   3                  0.00901
   121. RY*(   8)Cl   3                  0.00628
   122. RY*(   9)Cl   3                  0.00169
   123. RY*(  10)Cl   3                  0.00127
   124. RY*(  11)Cl   3                  0.00127
   125. RY*(  12)Cl   3                  0.00119
   126. RY*(  13)Cl   3                  0.00119
   127. RY*(  14)Cl   3                  0.00116
   128. RY*(  15)Cl   3                  0.00110
   129. RY*(  16)Cl   3                  0.00094
   130. RY*(  17)Cl   3                  0.00077
   131. RY*(  18)Cl   3                  0.00075
   132. RY*(  19)Cl   3                  0.00063
   133. RY*(  20)Cl   3                  0.00055
   134. RY*(  21)Cl   3                  0.00042
   135. RY*(  22)Cl   3                  0.00038
   136. RY*(  23)Cl   3                  0.00033
   137. RY*(  24)Cl   3                  0.00031
   138. RY*(  25)Cl   3                  0.00019
   139. RY*(  26)Cl   3                  0.00016
   140. RY*(  27)Cl   3                  0.00014
   141. RY*(  28)Cl   3                  0.00013
   142. RY*(  29)Cl   3                  0.00012
   143. RY*(  30)Cl   3                  0.00012
   144. RY*(  31)Cl   3                  0.00012
   145. RY*(  32)Cl   3                  0.00010
   146. RY*(  33)Cl   3                  0.00010
   147. RY*(  34)Cl   3                  0.00010
   148. RY*(  35)Cl   3                  0.00010
   149. RY*(  36)Cl   3                  0.00010
   150. RY*(  37)Cl   3                  0.00007
   151. RY*(  38)Cl   3                  0.00004
   152. RY*(  39)Cl   3                  0.00004
   153. RY*(  40)Cl   3                  0.00004
   154. RY*(  41)Cl   3                  0.00001
   155. RY*(   1) H   4                  0.00922
   156. RY*(   2) H   4                  0.00509
   157. RY*(   3) H   4                  0.00381
   158. RY*(   4) H   4                  0.00298
   159. RY*(   5) H   4                  0.00053
   160. RY*(   6) H   4                  0.00050
   161. RY*(   7) H   4                  0.00040
   162. RY*(   8) H   4                  0.00028
   163. RY*(   9) H   4                  0.00028
   164. RY*(  10) H   4                  0.00025
   165. RY*(  11) H   4                  0.00021
   166. RY*(  12) H   4                  0.00018
   167. RY*(  13) H   4                  0.00013
   168. RY*(  14) H   4                  0.00012
   169. RY*(  15) H   4                  0.00012
   170. RY*(  16) H   4                  0.00010
   171. RY*(  17) H   4                  0.00007
   172. RY*(  18) H   4                  0.00006
   173. RY*(  19) H   4                  0.00005
   174. RY*(  20) H   4                  0.00004
   175. RY*(  21) H   4                  0.00005
   176. RY*(  22) H   4                  0.00003
   177. BD*(   1) O   1 -Cl   3          0.05827
   178. BD*(   1) O   1 - H   4          0.07894
       -------------------------------
              Total Lewis   25.70927  ( 98.5823%)
        Valence non-Lewis    0.13721  (  0.5261%)
        Rydberg non-Lewis    0.23252  (  0.8916%)
       -------------------------------
            Total unit  1   26.07901  (100.0000%)
           Charge unit  1   -0.07901

 Molecular unit  2  (Br)
     4. CR (   1)Br   2                  2.00000
     5. CR (   2)Br   2                  2.00000
     6. CR (   3)Br   2                  1.99997
     7. CR (   4)Br   2                  1.99997
     8. CR (   5)Br   2                  2.00000
     9. CR (   6)Br   2                  2.00002
    10. CR (   7)Br   2                  2.00000
    11. CR (   8)Br   2                  2.00001
    12. CR (   9)Br   2                  2.00000
    13. CR (  10)Br   2                  1.99767
    14. CR (  11)Br   2                  1.99767
    15. CR (  12)Br   2                  1.99769
    16. CR (  13)Br   2                  1.99765
    17. CR (  14)Br   2                  1.99768
    25. LP (   1)Br   2                  1.97945
    26. LP (   2)Br   2                  1.95365
    27. LP (   3)Br   2                  1.95338
    28. LP (   4)Br   2                  1.89071
    73. RY*(   1)Br   2                  0.01889
    74. RY*(   2)Br   2                  0.01885
    75. RY*(   3)Br   2                  0.01870
    76. RY*(   4)Br   2                  0.01870
    77. RY*(   5)Br   2                  0.01817
    78. RY*(   6)Br   2                  0.01162
    79. RY*(   7)Br   2                  0.01159
    80. RY*(   8)Br   2                  0.00990
    81. RY*(   9)Br   2                  0.00295
    82. RY*(  10)Br   2                  0.00181
    83. RY*(  11)Br   2                  0.00180
    84. RY*(  12)Br   2                  0.00176
    85. RY*(  13)Br   2                  0.00176
    86. RY*(  14)Br   2                  0.00175
    87. RY*(  15)Br   2                  0.00175
    88. RY*(  16)Br   2                  0.00176
    89. RY*(  17)Br   2                  0.00176
    90. RY*(  18)Br   2                  0.00175
    91. RY*(  19)Br   2                  0.00149
    92. RY*(  20)Br   2                  0.00148
    93. RY*(  21)Br   2                  0.00132
    94. RY*(  22)Br   2                  0.00081
    95. RY*(  23)Br   2                  0.00081
    96. RY*(  24)Br   2                  0.00077
    97. RY*(  25)Br   2                  0.00046
    98. RY*(  26)Br   2                  0.00029
    99. RY*(  27)Br   2                  0.00025
   100. RY*(  28)Br   2                  0.00026
   101. RY*(  29)Br   2                  0.00026
   102. RY*(  30)Br   2                  0.00025
   103. RY*(  31)Br   2                  0.00024
   104. RY*(  32)Br   2                  0.00024
   105. RY*(  33)Br   2                  0.00023
   106. RY*(  34)Br   2                  0.00023
   107. RY*(  35)Br   2                  0.00020
   108. RY*(  36)Br   2                  0.00017
   109. RY*(  37)Br   2                  0.00016
   110. RY*(  38)Br   2                  0.00012
   111. RY*(  39)Br   2                  0.00007
   112. RY*(  40)Br   2                  0.00007
   113. RY*(  41)Br   2                  0.00005
       -------------------------------
              Total Lewis   35.76551  ( 99.5671%)
        Valence non-Lewis    0.00000  (  0.0000%)
        Rydberg non-Lewis    0.15548  (  0.4329%)
       -------------------------------
            Total unit  2   35.92099  (100.0000%)
           Charge unit  2   -0.92099
 Leave Link  607 at Thu Sep 23 16:34:39 2021, MaxMem= 16106127360 cpu:              70.9 elap:               2.6
 (Enter /sw/contrib/gaussian/g16/B01/g16/l9999.exe)
 1\1\GINC-N2112\SP\RMP2-FC\Aug-CC-pVTZ\Br1Cl1H1O1(1-)\CGAVINH\23-Sep-20
 21\0\\#p pop=NBO SP NoSymm mp2/aug-cc-pvtz density=current\\title\\-1,
 1\O,0,0.,0.,0.\Br,0,3.07381747,0.,0.\Cl,0,-0.390920758,1.638332522,0.\
 H,0,0.86172992,0.,0.49752\\Version=ES64L-G16RevB.01\HF=-3107.4716167\M
 P2=-3108.1730432\RMSD=9.999e-09\Dipole=-1.3122084,0.6400345,0.169741\Q
 uadrupole=-19.4634969,9.5465594,9.9169375,0.3222095,0.1094272,-0.11968
 12\PG=C01 [X(Br1Cl1H1O1)]\\@


 ALL THINGS ARE POSSIBLE EXCEPT SKIING THROUGH A REVOLVING DOOR.
 Job cpu time:       0 days  0 hours  5 minutes 51.2 seconds.
 Elapsed time:       0 days  0 hours  0 minutes 18.5 seconds.
 File lengths (MBytes):  RWF=     15 Int=      0 D2E=      0 Chk=      8 Scr=      1
 Normal termination of Gaussian 16 at Thu Sep 23 16:34:39 2021.
