title                                                                   
SP        RMP2-FC                                                     Aug-CC-pVTZ         
Number of atoms                            I                4
Info1-9                                    I   N=           9
          40          13           0           0           0         110
           1           2           1
Full Title                                 C   N=           1
title       
Route                                      C   N=           5
#p pop=NBO SP NoSymm mp2/aug-cc-pvtz density=current        
Charge                                     I               -1
Multiplicity                               I                1
Number of electrons                        I               62
Number of alpha electrons                  I               31
Number of beta electrons                   I               31
Number of basis functions                  I              178
Number of independent functions            I              178
Number of point charges in /Mol/           I                0
Number of translation vectors              I                0
Atomic numbers                             I   N=           4
           8          35          17           1
Nuclear charges                            R   N=           4
  8.00000000E+00  3.50000000E+01  1.70000000E+01  1.00000000E+00
Current cartesian coordinates              R   N=          12
  0.00000000E+00  0.00000000E+00  0.00000000E+00  5.80867318E+00  0.00000000E+00
  0.00000000E+00 -7.38733169E-01  3.09599977E+00  0.00000000E+00  1.88768531E+00
  0.00000000E+00  3.32849859E-01
Number of symbols in /Mol/                 I                0
Force Field                                I                0
Atom Types                                 C   N=           4
                                                
Int Atom Types                             I   N=           4
           0           0           0           0
MM charges                                 R   N=           4
  0.00000000E+00  0.00000000E+00  0.00000000E+00  0.00000000E+00
Integer atomic weights                     I   N=           4
          16          79          35           1
Real atomic weights                        R   N=           4
  1.59949146E+01  7.89183361E+01  3.49688527E+01  1.00782504E+00
Atom fragment info                         I   N=           4
           0           0           0           0
Atom residue num                           I   N=           4
           0           0           0           0
Nuclear spins                              I   N=           4
           0           3           3           1
Nuclear ZEff                               R   N=           4
 -5.60000000E+00 -2.45000000E+01 -1.42400000E+01 -1.00000000E+00
Nuclear ZNuc                               R   N=           4
  8.00000000E+00  3.50000000E+01  1.70000000E+01  1.00000000E+00
Nuclear QMom                               R   N=           4
  0.00000000E+00  3.13000000E+01 -8.16500000E+00  0.00000000E+00
Nuclear GFac                               R   N=           4
  0.00000000E+00  2.10639900E+00  8.21874000E-01  2.79284600E+00
MicOpt                                     I   N=           4
          -1          -1          -1          -1
Number of residues                         I                0
Number of secondary structures             I                0
Number of contracted shells                I               58
Number of primitive shells                 I              180
Pure/Cartesian d shells                    I                0
Pure/Cartesian f shells                    I                0
Highest angular momentum                   I                3
Largest degree of contraction              I               15
Shell types                                I   N=          58
           0           0           0           0           0           1
           1           1           1          -2          -2          -2
          -3          -3           0           0           0           0
           0           0           0           1           1           1
           1           1           1          -2          -2          -2
          -2          -3          -3           0           0           0
           0           0           0           1           1           1
           1           1          -2          -2          -2          -3
          -3           0           0           0           0           1
           1           1          -2          -2
Number of primitives per shell             I   N=          58
           7           6           1           1           1           3
           1           1           1           1           1           1
           1           1          15          12          10          10
           1           1           1           9           9           8
           1           1           1           7           1           1
           1           1           1          11           9           8
           1           1           1           6           6           1
           1           1           1           1           1           1
           1           3           1           1           1           1
           1           1           1           1
Shell to atom map                          I   N=          58
           1           1           1           1           1           1
           1           1           1           1           1           1
           1           1           2           2           2           2
           2           2           2           2           2           2
           2           2           2           2           2           2
           2           2           2           3           3           3
           3           3           3           3           3           3
           3           3           3           3           3           3
           3           4           4           4           4           4
           4           4           4           4
Primitive exponents                        R   N=         180
  1.53300000E+04  2.29900000E+03  5.22400000E+02  1.47300000E+02  4.75500000E+01
  1.67600000E+01  6.20700000E+00  5.22400000E+02  1.47300000E+02  4.75500000E+01
  1.67600000E+01  6.20700000E+00  6.88200000E-01  1.75200000E+00  2.38400000E-01
  7.37600000E-02  3.44600000E+01  7.74900000E+00  2.28000000E+00  7.15600000E-01
  2.14000000E-01  5.97400000E-02  2.31400000E+00  6.45000000E-01  2.14000000E-01
  1.42800000E+00  5.00000000E-01  1.06390000E+07  1.59340000E+06  3.62610000E+05
  1.02700000E+05  3.35010000E+04  1.20930000E+04  4.71590000E+03  1.95560000E+03
  8.52610000E+02  3.87670000E+02  1.82680000E+02  8.82450000E+01  3.92630000E+01
  9.40570000E+00  1.89950000E+00  3.35010000E+04  1.20930000E+04  4.71590000E+03
  1.95560000E+03  8.52610000E+02  3.87670000E+02  1.82680000E+02  8.82450000E+01
  3.92630000E+01  1.92340000E+01  9.40570000E+00  1.89950000E+00  4.71590000E+03
  8.52610000E+02  3.87670000E+02  1.82680000E+02  8.82450000E+01  3.92630000E+01
  1.92340000E+01  9.40570000E+00  4.16010000E+00  1.89950000E+00  4.71590000E+03
  8.52610000E+02  3.87670000E+02  8.82450000E+01  3.92630000E+01  1.92340000E+01
  9.40570000E+00  4.16010000E+00  1.89950000E+00  3.01140000E-01  6.04720000E-01
  1.25150000E-01  4.55930000E-02  8.67650000E+03  2.05590000E+03  6.66230000E+02
  2.53100000E+02  1.06120000E+02  4.72420000E+01  2.18250000E+01  9.96840000E+00
  1.99820000E+00  8.67650000E+03  6.66230000E+02  2.53100000E+02  1.06120000E+02
  4.72420000E+01  2.18250000E+01  9.96840000E+00  4.51710000E+00  1.99820000E+00
  6.66230000E+02  1.06120000E+02  4.72420000E+01  2.18250000E+01  9.96840000E+00
  4.51710000E+00  1.99820000E+00  2.81450000E-01  7.09880000E-01  1.02040000E-01
  3.51420000E-02  4.03830000E+02  1.21170000E+02  4.63450000E+01  1.97210000E+01
  8.86240000E+00  3.99620000E+00  1.76360000E+00  7.06190000E-01  2.63900000E-01
  1.04700000E-01  5.51500000E-01  2.58000000E-01  4.56100000E+05  6.83300000E+04
  1.55500000E+04  4.40500000E+03  1.43900000E+03  5.20400000E+02  2.03100000E+02
  8.39600000E+01  3.62000000E+01  1.58300000E+01  6.33400000E+00  4.40500000E+03
  1.43900000E+03  5.20400000E+02  2.03100000E+02  8.39600000E+01  3.62000000E+01
  1.58300000E+01  6.33400000E+00  2.69400000E+00  1.43900000E+03  2.03100000E+02
  8.39600000E+01  3.62000000E+01  1.58300000E+01  6.33400000E+00  2.69400000E+00
  4.31300000E-01  9.76800000E-01  1.62500000E-01  5.91000000E-02  6.63300000E+02
  1.56800000E+02  4.99800000E+01  1.84200000E+01  7.24000000E+00  2.92200000E+00
  1.56800000E+02  4.99800000E+01  1.84200000E+01  7.24000000E+00  2.92200000E+00
  3.81800000E-01  1.02200000E+00  1.30100000E-01  4.19000000E-02  1.04600000E+00
  3.44000000E-01  1.35000000E-01  7.06000000E-01  3.12000000E-01  3.38700000E+01
  5.09500000E+00  1.15900000E+00  3.25800000E-01  1.02700000E-01  2.52600000E-02
  1.40700000E+00  3.88000000E-01  1.02000000E-01  1.05700000E+00  2.47000000E-01
Contraction coefficients                   R   N=         180
  5.19808943E-04  4.02025621E-03  2.07128267E-02  8.10105536E-02  2.35962985E-01
  4.42653446E-01  3.57064423E-01 -4.42115008E-05 -1.22591041E-03 -1.05517725E-02
 -6.74452633E-02 -1.71198607E-01  1.07329856E+00  1.00000000E+00  1.00000000E+00
  1.00000000E+00  4.11634896E-02  2.57762836E-01  8.02419274E-01  1.00000000E+00
  1.00000000E+00  1.00000000E+00  1.00000000E+00  1.00000000E+00  1.00000000E+00
  1.00000000E+00  1.00000000E+00  5.89674518E-06  4.60752740E-05  2.42070343E-04
  1.02205299E-03  3.70930499E-03  1.19720307E-02  3.46735726E-02  8.90729487E-02
  1.93334549E-01  3.20663919E-01  3.29580713E-01  1.49250790E-01  1.55764867E-02
  7.93747636E-04  2.65221775E-04 -5.68536848E-06 -3.52666574E-05 -3.27539377E-04
 -1.87629276E-03 -1.01414527E-02 -3.80702440E-02 -9.57536910E-02 -4.73840598E-02
  3.47577995E-01  5.73945554E-01  2.14222079E-01 -1.02928963E-02  7.18105399E-06
  1.20828593E-04  4.42852463E-04  3.05163083E-03  3.69571776E-03 -4.41792565E-02
 -2.33790718E-01 -4.89037435E-02  6.44374705E-01  5.44424123E-01  2.45813907E-06
  1.21542842E-05 -4.20845287E-05 -2.71411136E-04  1.88335237E-03  1.04009470E-02
  6.18574958E-03 -1.11556547E-01 -4.47970305E-01  1.18314733E+00  1.00000000E+00
  1.00000000E+00  1.00000000E+00  4.37079993E-04  3.79355062E-03  2.05440673E-02
  7.95459389E-02  2.18602295E-01  3.89303910E-01  3.60668111E-01  1.10677963E-01
 -1.34807692E-03  1.00103778E-06 -7.06114784E-05 -1.15560817E-03 -7.09755620E-03
 -2.44937124E-02 -1.01982599E-02  2.19854720E-01  5.15741017E-01  3.67494091E-01
 -2.33484889E-05 -3.27796533E-04  4.19438933E-04 -2.20691716E-03 -6.45224464E-03
 -4.68458724E-02 -4.09196666E-02  1.01815889E+00  1.00000000E+00  1.00000000E+00
  1.00000000E+00  1.51744738E-03  1.30531170E-02  5.97884776E-02  1.75631556E-01
  3.28164786E-01  3.96050780E-01  2.81996460E-01  1.00000000E+00  1.00000000E+00
  1.00000000E+00  1.00000000E+00  1.00000000E+00  4.93229477E-05  3.83207967E-04
  2.00947816E-03  8.38950124E-03  2.94843950E-02  8.78759948E-02  2.11589759E-01
  3.65611554E-01  3.41246350E-01  1.02162570E-01  2.14249949E-03 -2.21747925E-06
 -1.71189708E-04 -1.27922846E-03 -9.32956265E-03 -3.98910062E-02 -1.05536085E-01
  9.36202446E-03  5.10511140E-01  5.73150737E-01  4.03949245E-06  2.12481765E-04
  8.59484452E-04  4.63248159E-03  4.47343490E-04 -7.38438245E-02 -3.62271994E-01
  1.16620337E+00  1.00000000E+00  1.00000000E+00  1.00000000E+00  2.47206402E-03
  1.97550234E-02  9.09917355E-02  2.63187834E-01  4.49078073E-01  3.60183072E-01
  3.03427809E-05 -1.22475826E-03 -6.01429772E-03 -2.76401323E-02  4.35105612E-04
  1.00307272E+00  1.00000000E+00  1.00000000E+00  1.00000000E+00  1.00000000E+00
  1.00000000E+00  1.00000000E+00  1.00000000E+00  1.00000000E+00  2.54948632E-02
  1.90362766E-01  8.52162022E-01  1.00000000E+00  1.00000000E+00  1.00000000E+00
  1.00000000E+00  1.00000000E+00  1.00000000E+00  1.00000000E+00  1.00000000E+00
Coordinates of each shell                  R   N=         174
  0.00000000E+00  0.00000000E+00  0.00000000E+00  0.00000000E+00  0.00000000E+00
  0.00000000E+00  0.00000000E+00  0.00000000E+00  0.00000000E+00  0.00000000E+00
  0.00000000E+00  0.00000000E+00  0.00000000E+00  0.00000000E+00  0.00000000E+00
  0.00000000E+00  0.00000000E+00  0.00000000E+00  0.00000000E+00  0.00000000E+00
  0.00000000E+00  0.00000000E+00  0.00000000E+00  0.00000000E+00  0.00000000E+00
  0.00000000E+00  0.00000000E+00  0.00000000E+00  0.00000000E+00  0.00000000E+00
  0.00000000E+00  0.00000000E+00  0.00000000E+00  0.00000000E+00  0.00000000E+00
  0.00000000E+00  0.00000000E+00  0.00000000E+00  0.00000000E+00  0.00000000E+00
  0.00000000E+00  0.00000000E+00  5.80867318E+00  0.00000000E+00  0.00000000E+00
  5.80867318E+00  0.00000000E+00  0.00000000E+00  5.80867318E+00  0.00000000E+00
  0.00000000E+00  5.80867318E+00  0.00000000E+00  0.00000000E+00  5.80867318E+00
  0.00000000E+00  0.00000000E+00  5.80867318E+00  0.00000000E+00  0.00000000E+00
  5.80867318E+00  0.00000000E+00  0.00000000E+00  5.80867318E+00  0.00000000E+00
  0.00000000E+00  5.80867318E+00  0.00000000E+00  0.00000000E+00  5.80867318E+00
  0.00000000E+00  0.00000000E+00  5.80867318E+00  0.00000000E+00  0.00000000E+00
  5.80867318E+00  0.00000000E+00  0.00000000E+00  5.80867318E+00  0.00000000E+00
  0.00000000E+00  5.80867318E+00  0.00000000E+00  0.00000000E+00  5.80867318E+00
  0.00000000E+00  0.00000000E+00  5.80867318E+00  0.00000000E+00  0.00000000E+00
  5.80867318E+00  0.00000000E+00  0.00000000E+00  5.80867318E+00  0.00000000E+00
  0.00000000E+00  5.80867318E+00  0.00000000E+00  0.00000000E+00 -7.38733169E-01
  3.09599977E+00  0.00000000E+00 -7.38733169E-01  3.09599977E+00  0.00000000E+00
 -7.38733169E-01  3.09599977E+00  0.00000000E+00 -7.38733169E-01  3.09599977E+00
  0.00000000E+00 -7.38733169E-01  3.09599977E+00  0.00000000E+00 -7.38733169E-01
  3.09599977E+00  0.00000000E+00 -7.38733169E-01  3.09599977E+00  0.00000000E+00
 -7.38733169E-01  3.09599977E+00  0.00000000E+00 -7.38733169E-01  3.09599977E+00
  0.00000000E+00 -7.38733169E-01  3.09599977E+00  0.00000000E+00 -7.38733169E-01
  3.09599977E+00  0.00000000E+00 -7.38733169E-01  3.09599977E+00  0.00000000E+00
 -7.38733169E-01  3.09599977E+00  0.00000000E+00 -7.38733169E-01  3.09599977E+00
  0.00000000E+00 -7.38733169E-01  3.09599977E+00  0.00000000E+00 -7.38733169E-01
  3.09599977E+00  0.00000000E+00  1.88768531E+00  0.00000000E+00  3.32849859E-01
  1.88768531E+00  0.00000000E+00  3.32849859E-01  1.88768531E+00  0.00000000E+00
  3.32849859E-01  1.88768531E+00  0.00000000E+00  3.32849859E-01  1.88768531E+00
  0.00000000E+00  3.32849859E-01  1.88768531E+00  0.00000000E+00  3.32849859E-01
  1.88768531E+00  0.00000000E+00  3.32849859E-01  1.88768531E+00  0.00000000E+00
  3.32849859E-01  1.88768531E+00  0.00000000E+00  3.32849859E-01
Num ILSW                                   I              100
ILSW                                       I   N=         100
           0           0           0           0           2           0
           0           0           0           0           0          -1
           5           0           0           0           0           0
           0           0           0           0           0           0
           1           1           0           0           0           0
           0           0      100000           0          -1           0
           0           0           0           0           0           0
           0           0           0           1           0           0
           0 -2000000000           1           0           0           0
           0           0           4          52           0           0
           0           0           0           0           0           0
           0           0           0           4           0           1
           0           0           0           0           0           0
           0           0           0           0           0           0
           0           0           0           0           0           0
           0           0           0           0           0           0
           0           0           0           0
Num RLSW                                   I               52
RLSW                                       R   N=          52
  1.00000000E+00  1.00000000E+00  1.00000000E+00  1.00000000E+00  1.00000000E+00
  0.00000000E+00  0.00000000E+00  1.00000000E+00  0.00000000E+00  0.00000000E+00
  0.00000000E+00  0.00000000E+00  1.00000000E+00  0.00000000E+00  0.00000000E+00
  0.00000000E+00  0.00000000E+00  1.00000000E+00  0.00000000E+00  0.00000000E+00
  0.00000000E+00  0.00000000E+00  1.00000000E+00  0.00000000E+00  0.00000000E+00
  0.00000000E+00  0.00000000E+00  1.00000000E+00  0.00000000E+00  0.00000000E+00
  0.00000000E+00  0.00000000E+00  1.00000000E+00  0.00000000E+00  0.00000000E+00
  0.00000000E+00  0.00000000E+00  0.00000000E+00  1.00000000E+00  1.00000000E+00
  0.00000000E+00  1.00000000E+00  0.00000000E+00  0.00000000E+00  0.00000000E+00
  0.00000000E+00  0.00000000E+00  0.00000000E+00  0.00000000E+00  0.00000000E+00
  0.00000000E+00  0.00000000E+00
MxBond                                     I                2
NBond                                      I   N=           4
           2           0           1           1
IBond                                      I   N=           8
           3           4           0           0           1           0
           1           0
RBond                                      R   N=           8
  1.00000000E+00  1.00000000E+00  0.00000000E+00  0.00000000E+00  1.00000000E+00
  0.00000000E+00  1.00000000E+00  0.00000000E+00
Virial Ratio                               R      2.000047222484436E+00
SCF Energy                                 R     -3.107477621174345E+03
MP2 Energy                                 R     -3.108181527762604E+03
Total Energy                               R     -3.108181527762604E+03
Post-SCF wavefunction norm                 R      1.105517130542708E+00
RMS Density                                R      5.100864693481643E-09
Job Status                                 I                1
Nuclear derivative order                   I                0
External E-field                           R   N=          35
  0.00000000E+00  0.00000000E+00  0.00000000E+00  0.00000000E+00  0.00000000E+00
  0.00000000E+00  0.00000000E+00  0.00000000E+00  0.00000000E+00  0.00000000E+00
  0.00000000E+00  0.00000000E+00  0.00000000E+00  0.00000000E+00  0.00000000E+00
  0.00000000E+00  0.00000000E+00  0.00000000E+00  0.00000000E+00  0.00000000E+00
  0.00000000E+00  0.00000000E+00  0.00000000E+00  0.00000000E+00  0.00000000E+00
  0.00000000E+00  0.00000000E+00  0.00000000E+00  0.00000000E+00  0.00000000E+00
  0.00000000E+00  0.00000000E+00  0.00000000E+00  0.00000000E+00  0.00000000E+00
IOpCl                                      I                0
IROHF                                      I                0
Alpha Orbital Energies                     R   N=         178
 -4.89755089E+02 -1.04731666E+02 -6.48954528E+01 -5.82499625E+01 -5.82499063E+01
 -5.82499017E+01 -2.04624689E+01 -1.04511710E+01 -9.56799379E+00 -7.91834115E+00
 -7.91569605E+00 -7.91559238E+00 -7.17581169E+00 -7.17523581E+00 -7.17522954E+00
 -2.91751822E+00 -2.91724902E+00 -2.91723948E+00 -2.91659509E+00 -2.91659406E+00
 -1.22938239E+00 -8.95818247E-01 -7.30367314E-01 -5.39477633E-01 -4.42748268E-01
 -4.34495713E-01 -3.08373994E-01 -2.81117899E-01 -1.84993147E-01 -1.75451798E-01
 -1.75304952E-01  1.55870248E-01  1.80874939E-01  2.15920120E-01  2.27605178E-01
  2.41285798E-01  2.46617946E-01  2.50056989E-01  2.86728619E-01  3.04469281E-01
  3.07445334E-01  3.25029630E-01  3.32463106E-01  3.60740745E-01  4.27994781E-01
  4.40418961E-01  4.66851700E-01  4.83292869E-01  4.86796535E-01  5.05553612E-01
  5.40769102E-01  5.43866315E-01  5.68286446E-01  5.93904042E-01  5.96852895E-01
  6.01155669E-01  6.12520988E-01  6.55257983E-01  6.98012902E-01  7.35574844E-01
  7.40865977E-01  7.55550853E-01  7.79687328E-01  7.86507722E-01  8.51518281E-01
  8.87519086E-01  8.93870080E-01  9.12161849E-01  9.43970400E-01  9.93946896E-01
  1.00131347E+00  1.00382327E+00  1.00911869E+00  1.01972227E+00  1.03306456E+00
  1.07007309E+00  1.07734008E+00  1.09166854E+00  1.10234392E+00  1.11088679E+00
  1.13518723E+00  1.15924214E+00  1.17822855E+00  1.18041686E+00  1.20570693E+00
  1.21781445E+00  1.22723177E+00  1.26824660E+00  1.29933736E+00  1.32007366E+00
  1.34840969E+00  1.37718466E+00  1.38898149E+00  1.47641805E+00  1.50591137E+00
  1.52738224E+00  1.53697992E+00  1.58143323E+00  1.62543547E+00  1.66277753E+00
  1.70015663E+00  1.70802023E+00  1.76160479E+00  1.78999950E+00  1.79691664E+00
  1.89207153E+00  1.97347052E+00  2.14414014E+00  2.37191052E+00  2.38482187E+00
  2.41823320E+00  2.44771058E+00  2.46480571E+00  2.49007630E+00  2.50844704E+00
  2.52990324E+00  2.53605081E+00  2.55044776E+00  2.55298436E+00  2.55755782E+00
  2.57017485E+00  2.57853921E+00  2.59933805E+00  2.62533982E+00  2.63494971E+00
  2.65360576E+00  2.67570577E+00  2.69007858E+00  2.70369272E+00  2.71953553E+00
  2.73046310E+00  2.75593564E+00  2.76297475E+00  2.77934206E+00  2.79459990E+00
  2.81153553E+00  2.87870165E+00  2.98042805E+00  3.07316678E+00  3.09447511E+00
  3.17357842E+00  3.19699400E+00  3.21780787E+00  3.25533302E+00  3.28723565E+00
  3.30805908E+00  3.34504019E+00  3.52789184E+00  3.54817325E+00  3.57392670E+00
  3.92941390E+00  4.17523362E+00  4.31094735E+00  4.45471048E+00  4.53104663E+00
  4.55416686E+00  4.76999432E+00  4.94678491E+00  4.99841147E+00  5.14917984E+00
  5.32605244E+00  5.40584591E+00  5.66162263E+00  6.42614205E+00  6.58460583E+00
  6.85846441E+00  6.90229175E+00  6.91784821E+00  6.99668751E+00  7.28815666E+00
  7.33355057E+00  7.34797032E+00  7.44520811E+00  7.54975616E+00  7.74402162E+00
  7.80374724E+00  8.34874260E+00  1.45220834E+01
Alpha MO coefficients                      R   N=       31684
  1.08670726E-07  5.70350493E-07 -3.67517980E-08  2.08327800E-06  7.37260379E-06
 -3.03652404E-08 -4.24744570E-09 -1.02957473E-08  2.53550959E-07  1.85374773E-08
  7.44270460E-08 -2.89752419E-06 -6.38028210E-07  1.13245894E-06  1.00414943E-06
 -2.17717932E-08  8.17828317E-07 -3.00181155E-08 -1.66269351E-08 -6.33880740E-09
  3.14437146E-08  5.55465396E-09  1.25614880E-07  1.75444908E-07  2.11232091E-08
 -9.74134831E-08 -2.62959141E-08  1.08907276E-06  4.08063417E-08 -1.26077440E-07
 -1.47492991E-06 -1.25551393E-07 -4.99168531E-08 -2.90306003E-08  1.12562833E-09
  4.39169400E-08  1.10109692E-09  2.30013845E-08 -4.94715655E-09  5.06895990E-08
  2.04434333E-07  1.25722177E-08  1.21707361E-09 -1.07305874E-08 -1.32493239E-07
  1.72495723E-09  1.00053503E+00 -1.74586661E-03 -3.66020967E-04  2.70414751E-05
 -3.88175550E-05 -1.72753361E-05 -6.90061384E-07 -5.84799431E-07 -4.72911921E-08
  1.84692256E-07  3.43544169E-09  1.80156838E-08 -4.12241928E-08 -2.06013269E-06
  9.24958472E-09  2.30181174E-07  4.60935313E-07 -9.65920752E-09 -3.98484997E-08
  6.92151581E-06 -3.50168018E-08 -6.74044832E-07  1.59434386E-07  3.95175445E-08
 -2.42448552E-08 -1.10437595E-08 -2.18149405E-08  1.32940079E-10  2.61708859E-08
  4.49544036E-09 -8.96941170E-10  3.77868909E-08 -1.24731414E-09 -2.05126297E-08
 -1.36362917E-08 -2.86369145E-07 -1.76555084E-07  4.11049267E-09  5.56058883E-07
  2.33631980E-08  1.13423381E-06  4.69956102E-07 -1.89129125E-09 -2.06276568E-06
 -2.48577208E-08 -5.70926893E-08  1.55688460E-07  4.76708253E-09  7.13139519E-08
 -2.57251373E-10 -2.23110207E-07 -2.21369267E-09  5.13717170E-08 -1.32116379E-07
 -9.03998874E-09 -6.19165802E-08 -2.94724960E-09  1.94808465E-07  1.05181382E-08
 -9.50509792E-10 -9.58289893E-09 -3.73874000E-08 -2.87786921E-08  5.30822996E-07
 -1.84486126E-07  6.63859652E-09 -1.18876502E-09 -1.25623446E-09  1.41411024E-07
 -3.42157464E-08 -8.02840207E-09 -2.39481197E-08  1.27855238E-08  4.25994971E-09
  2.23500474E-09 -4.79322522E-07  1.74452413E-07 -1.40790026E-07  1.29211824E-07
 -1.34741620E-07 -1.07177666E-08  8.39325078E-09  2.78232562E-11  1.16947785E-08
 -5.51254372E-09 -1.33033101E-08 -1.70238512E-08 -1.10502696E-08 -3.91905000E-08
 -6.29836984E-08 -4.51172519E-08  7.74665315E-08 -6.86502838E-08 -2.39520978E-07
 -4.95976729E-08 -2.54425182E-08 -8.33272984E-09 -7.70366746E-09  1.72136897E-08
  1.12141215E-08 -8.98688640E-09 -1.09498637E-10  4.58826960E-08  3.65331832E-08
  4.95080758E-08 -4.47210669E-08 -2.83102359E-08 -5.93332020E-08  2.18609633E-08
  1.50627011E-07  3.40528434E-06 -1.40438065E-06 -5.53183552E-07  1.14296714E-07
 -2.21820917E-08  5.91816615E-08 -2.65942595E-07  1.76511893E-07 -7.60306013E-07
  1.11018324E-05  2.67937894E-07 -7.67249468E-07  5.01642405E-08  1.16640867E-07
  5.07542945E-09 -8.55862290E-08 -1.61106554E-08  1.11486729E-06  2.84127285E-07
 -2.90796151E-08 -1.91256213E-06 -1.11282251E-07  5.09311300E-06  2.85082006E-05
  2.35589535E-06 -1.54688556E-04 -1.05841668E-04  4.51734955E-07  2.97251653E-06
  3.84376061E-07 -4.58548397E-06 -8.74225948E-06 -1.92261049E-06  4.95752795E-05
 -1.54038230E-04  1.17611610E-07  1.09719677E-05 -3.79022923E-05  1.17371704E-06
 -2.19294472E-06  1.49626069E-07  1.44877903E-08 -3.10778239E-06 -1.46146943E-06
  1.44396099E-05 -8.09170070E-07 -1.79834973E-07  2.07024782E-05  9.68715523E-06
  2.51400313E-05  2.58107099E-06 -1.66059112E-06  5.99525862E-05  1.20410122E-05
 -1.24681366E-07 -2.98466831E-07 -6.22075745E-08 -2.55208545E-07  2.12436890E-07
 -1.66585858E-06  1.00477069E-06  2.25369963E-07 -2.66294663E-06  1.32376527E-05
  1.07929650E-06 -9.64914528E-07 -4.87574710E-06  8.91076035E-06  8.01650486E-08
  4.29245569E-07  2.45200115E-06  5.90034075E-06  7.16028576E-07 -2.61977171E-05
 -6.06601124E-06 -9.15716137E-08  2.04977562E-08  2.08965175E-08  1.00172502E-06
 -5.51952549E-08 -2.05608309E-07  7.16760710E-06  3.46890084E-07 -1.36347366E-06
 -2.45121226E-06  2.77898362E-07  5.34593298E-07  1.82832311E-05 -5.79738346E-06
 -2.16309264E-06  2.08557618E-06  3.37460317E-07  3.35774552E-07  5.04206160E-08
  5.01330115E-08 -1.33434232E-09 -4.88387564E-08  1.14850432E-07 -4.41746142E-07
 -4.11017371E-07 -2.56152319E-09  4.96217772E-07 -8.04438652E-07  3.04579854E-06
  2.19782570E-06  1.35715064E-07 -4.67766018E-06  1.90192446E-06  3.38169157E-06
  8.44624140E-07 -8.68854446E-07 -5.10556709E-06  3.48753213E-06 -7.10315733E-08
  4.33996131E-08 -9.28873580E-08 -7.78824446E-08 -4.54899045E-07  1.44157594E-08
  5.51281740E-07  8.90977422E-07 -1.67458141E-06  5.10773118E-07 -7.87769485E-07
  8.91916337E-07  1.39967275E-06 -2.29231878E-06  9.99534862E-01  1.95394847E-03
  1.84682246E-04 -4.18002440E-04  7.25432017E-05  7.68912894E-05  1.76487650E-05
 -7.53055840E-05  7.63380639E-07  3.75477566E-05 -1.34772028E-04  1.33759117E-06
 -1.82663988E-05  7.17483244E-05 -7.33897439E-07  3.22900270E-06 -5.76810312E-05
 -1.99855886E-06  2.45652224E-06 -1.17317019E-05 -5.86053700E-07 -3.65017917E-06
  3.78644396E-08 -8.05529640E-08 -4.96160648E-06 -3.29391889E-06 -2.86747751E-05
  2.73501299E-07 -3.35498149E-07 -4.38269162E-05 -2.41386068E-05 -1.10536629E-06
 -1.81915785E-06  7.43391934E-07 -1.03209645E-05  8.51726971E-07 -3.11222862E-07
 -2.01327909E-06  6.20363441E-06  1.91733296E-07 -4.48004179E-07 -4.61715456E-06
  4.02002520E-06  6.23718594E-07  3.74528372E-07  3.04383457E-06 -5.27930676E-07
  9.49182125E-07 -4.44208666E-06  7.48240665E-06 -1.63283551E-06 -1.86984263E-05
  5.89890782E-05 -7.85378409E-06  8.49224247E-07 -2.56983731E-06  8.38738875E-08
 -1.14403224E-05  1.57513794E-05 -8.93621118E-07  3.78650550E-06  2.49360702E-05
 -1.75941148E-06 -5.15850821E-07  2.75160173E-08 -4.42315711E-09 -6.66402561E-07
 -9.95211430E-07 -1.51804816E-05  2.46850311E-06 -1.01052457E-06  1.12108406E-05
 -1.93312342E-06  3.90217541E-07  2.62780139E-06 -3.74559856E-09  9.56397282E-06
  3.64568798E-05  6.82720712E-08  1.52989105E-08  1.98084222E-09  1.21646584E-06
  9.69111783E-08  1.75910175E-07 -1.48416705E-05 -1.40644422E-06  4.80193362E-06
  5.50557411E-06  9.29186396E-07  3.71532295E-06 -1.37556252E-07 -8.80691487E-08
 -3.26291817E-08  1.62753845E-07  2.55619027E-08  7.12069562E-07  6.51139887E-07
  1.18356362E-07 -8.05058773E-07 -7.07871689E-08  5.12612595E-06  6.99796117E-08
 -5.71588203E-07 -7.65439972E-06 -1.84293197E-07 -1.60747060E-07 -1.09155512E-07
  1.11434995E-08  1.12217986E-07 -2.88804103E-09  5.58562763E-08 -3.17731717E-08
  2.08079958E-07  1.07994622E-06  3.22056560E-09  3.44350845E-08 -1.80198285E-08
 -8.38442277E-07  3.88236474E-08 -3.14071450E-01  1.04046668E+00  2.14058342E-02
  3.74261161E-05 -8.02104414E-05 -6.89438115E-05 -1.33175414E-05 -6.19044150E-05
 -7.21116706E-06  2.56347376E-05 -8.24720259E-06 -5.42622867E-07  2.29795305E-06
 -1.11777107E-05 -2.93411057E-07  1.95414017E-06  5.67810249E-06  2.98835492E-07
 -1.40107736E-06  3.55678928E-05  5.55480867E-08 -3.70510754E-06  2.11210465E-06
  3.94671826E-08 -1.09030004E-07 -6.40939081E-07 -1.09279087E-06 -2.91274680E-09
  1.40617993E-06  1.84162562E-07 -1.44928378E-08  3.21438795E-07  3.97836004E-09
 -1.29586971E-07 -9.82487910E-08 -1.00854985E-06 -1.06956300E-06 -5.75961372E-09
  2.12687923E-06  2.18662613E-07  5.78189268E-06  2.36554264E-06  7.97418674E-09
 -1.05424315E-05 -1.37958428E-07 -1.57150833E-07  4.99743189E-07  2.29029415E-08
  1.89695692E-07 -4.34311845E-09 -7.47162337E-07 -3.00169576E-08  2.24915191E-07
 -9.57208205E-07 -3.60082546E-08 -2.65529056E-07  4.85639140E-09  1.34869397E-06
  5.03689319E-09  2.19075763E-09  2.04019283E-08  2.92004410E-08 -1.55434322E-07
  1.38957829E-06 -2.75063289E-06  3.83711163E-08 -1.41188097E-08 -9.13851592E-09
  8.46143279E-07  9.44862369E-08 -7.69218588E-08 -1.70679974E-07  2.53672050E-08
  3.50041292E-08 -7.99822797E-07 -1.05281070E-06  9.35009270E-07 -3.44651440E-07
  8.03269272E-07 -6.96462997E-07 -9.10823250E-08  3.70171429E-08 -3.02700123E-09