title                                                                   
SP        RMP2-FC                                                     Aug-CC-pVTZ         
Number of atoms                            I                4
Info1-9                                    I   N=           9
          40          13           0           0           0         110
           1           2           1
Full Title                                 C   N=           1
title       
Route                                      C   N=           5
#p pop=NBO SP NoSymm mp2/aug-cc-pvtz density=current        
Charge                                     I               -1
Multiplicity                               I                1
Number of electrons                        I               62
Number of alpha electrons                  I               31
Number of beta electrons                   I               31
Number of basis functions                  I              178
Number of independent functions            I              178
Number of point charges in /Mol/           I                0
Number of translation vectors              I                0
Atomic numbers                             I   N=           4
           8          35          17           1
Nuclear charges                            R   N=           4
  8.00000000E+00  3.50000000E+01  1.70000000E+01  1.00000000E+00
Current cartesian coordinates              R   N=          12
  0.00000000E+00  0.00000000E+00  0.00000000E+00  5.80867318E+00  0.00000000E+00
  0.00000000E+00 -7.38733169E-01  3.09599977E+00  0.00000000E+00  1.84428226E+00
  0.00000000E+00  4.94173945E-01
Number of symbols in /Mol/                 I                0
Force Field                                I                0
Atom Types                                 C   N=           4
                                                
Int Atom Types                             I   N=           4
           0           0           0           0
MM charges                                 R   N=           4
  0.00000000E+00  0.00000000E+00  0.00000000E+00  0.00000000E+00
Integer atomic weights                     I   N=           4
          16          79          35           1
Real atomic weights                        R   N=           4
  1.59949146E+01  7.89183361E+01  3.49688527E+01  1.00782504E+00
Atom fragment info                         I   N=           4
           0           0           0           0
Atom residue num                           I   N=           4
           0           0           0           0
Nuclear spins                              I   N=           4
           0           3           3           1
Nuclear ZEff                               R   N=           4
 -5.60000000E+00 -2.45000000E+01 -1.42400000E+01 -1.00000000E+00
Nuclear ZNuc                               R   N=           4
  8.00000000E+00  3.50000000E+01  1.70000000E+01  1.00000000E+00
Nuclear QMom                               R   N=           4
  0.00000000E+00  3.13000000E+01 -8.16500000E+00  0.00000000E+00
Nuclear GFac                               R   N=           4
  0.00000000E+00  2.10639900E+00  8.21874000E-01  2.79284600E+00
MicOpt                                     I   N=           4
          -1          -1          -1          -1
Number of residues                         I                0
Number of secondary structures             I                0
Number of contracted shells                I               58
Number of primitive shells                 I              180
Pure/Cartesian d shells                    I                0
Pure/Cartesian f shells                    I                0
Highest angular momentum                   I                3
Largest degree of contraction              I               15
Shell types                                I   N=          58
           0           0           0           0           0           1
           1           1           1          -2          -2          -2
          -3          -3           0           0           0           0
           0           0           0           1           1           1
           1           1           1          -2          -2          -2
          -2          -3          -3           0           0           0
           0           0           0           1           1           1
           1           1          -2          -2          -2          -3
          -3           0           0           0           0           1
           1           1          -2          -2
Number of primitives per shell             I   N=          58
           7           6           1           1           1           3
           1           1           1           1           1           1
           1           1          15          12          10          10
           1           1           1           9           9           8
           1           1           1           7           1           1
           1           1           1          11           9           8
           1           1           1           6           6           1
           1           1           1           1           1           1
           1           3           1           1           1           1
           1           1           1           1
Shell to atom map                          I   N=          58
           1           1           1           1           1           1
           1           1           1           1           1           1
           1           1           2           2           2           2
           2           2           2           2           2           2
           2           2           2           2           2           2
           2           2           2           3           3           3
           3           3           3           3           3           3
           3           3           3           3           3           3
           3           4           4           4           4           4
           4           4           4           4
Primitive exponents                        R   N=         180
  1.53300000E+04  2.29900000E+03  5.22400000E+02  1.47300000E+02  4.75500000E+01
  1.67600000E+01  6.20700000E+00  5.22400000E+02  1.47300000E+02  4.75500000E+01
  1.67600000E+01  6.20700000E+00  6.88200000E-01  1.75200000E+00  2.38400000E-01
  7.37600000E-02  3.44600000E+01  7.74900000E+00  2.28000000E+00  7.15600000E-01
  2.14000000E-01  5.97400000E-02  2.31400000E+00  6.45000000E-01  2.14000000E-01
  1.42800000E+00  5.00000000E-01  1.06390000E+07  1.59340000E+06  3.62610000E+05
  1.02700000E+05  3.35010000E+04  1.20930000E+04  4.71590000E+03  1.95560000E+03
  8.52610000E+02  3.87670000E+02  1.82680000E+02  8.82450000E+01  3.92630000E+01
  9.40570000E+00  1.89950000E+00  3.35010000E+04  1.20930000E+04  4.71590000E+03
  1.95560000E+03  8.52610000E+02  3.87670000E+02  1.82680000E+02  8.82450000E+01
  3.92630000E+01  1.92340000E+01  9.40570000E+00  1.89950000E+00  4.71590000E+03
  8.52610000E+02  3.87670000E+02  1.82680000E+02  8.82450000E+01  3.92630000E+01
  1.92340000E+01  9.40570000E+00  4.16010000E+00  1.89950000E+00  4.71590000E+03
  8.52610000E+02  3.87670000E+02  8.82450000E+01  3.92630000E+01  1.92340000E+01
  9.40570000E+00  4.16010000E+00  1.89950000E+00  3.01140000E-01  6.04720000E-01
  1.25150000E-01  4.55930000E-02  8.67650000E+03  2.05590000E+03  6.66230000E+02
  2.53100000E+02  1.06120000E+02  4.72420000E+01  2.18250000E+01  9.96840000E+00
  1.99820000E+00  8.67650000E+03  6.66230000E+02  2.53100000E+02  1.06120000E+02
  4.72420000E+01  2.18250000E+01  9.96840000E+00  4.51710000E+00  1.99820000E+00
  6.66230000E+02  1.06120000E+02  4.72420000E+01  2.18250000E+01  9.96840000E+00
  4.51710000E+00  1.99820000E+00  2.81450000E-01  7.09880000E-01  1.02040000E-01
  3.51420000E-02  4.03830000E+02  1.21170000E+02  4.63450000E+01  1.97210000E+01
  8.86240000E+00  3.99620000E+00  1.76360000E+00  7.06190000E-01  2.63900000E-01
  1.04700000E-01  5.51500000E-01  2.58000000E-01  4.56100000E+05  6.83300000E+04
  1.55500000E+04  4.40500000E+03  1.43900000E+03  5.20400000E+02  2.03100000E+02
  8.39600000E+01  3.62000000E+01  1.58300000E+01  6.33400000E+00  4.40500000E+03
  1.43900000E+03  5.20400000E+02  2.03100000E+02  8.39600000E+01  3.62000000E+01
  1.58300000E+01  6.33400000E+00  2.69400000E+00  1.43900000E+03  2.03100000E+02
  8.39600000E+01  3.62000000E+01  1.58300000E+01  6.33400000E+00  2.69400000E+00
  4.31300000E-01  9.76800000E-01  1.62500000E-01  5.91000000E-02  6.63300000E+02
  1.56800000E+02  4.99800000E+01  1.84200000E+01  7.24000000E+00  2.92200000E+00
  1.56800000E+02  4.99800000E+01  1.84200000E+01  7.24000000E+00  2.92200000E+00
  3.81800000E-01  1.02200000E+00  1.30100000E-01  4.19000000E-02  1.04600000E+00
  3.44000000E-01  1.35000000E-01  7.06000000E-01  3.12000000E-01  3.38700000E+01
  5.09500000E+00  1.15900000E+00  3.25800000E-01  1.02700000E-01  2.52600000E-02
  1.40700000E+00  3.88000000E-01  1.02000000E-01  1.05700000E+00  2.47000000E-01
Contraction coefficients                   R   N=         180
  5.19808943E-04  4.02025621E-03  2.07128267E-02  8.10105536E-02  2.35962985E-01
  4.42653446E-01  3.57064423E-01 -4.42115008E-05 -1.22591041E-03 -1.05517725E-02
 -6.74452633E-02 -1.71198607E-01  1.07329856E+00  1.00000000E+00  1.00000000E+00
  1.00000000E+00  4.11634896E-02  2.57762836E-01  8.02419274E-01  1.00000000E+00
  1.00000000E+00  1.00000000E+00  1.00000000E+00  1.00000000E+00  1.00000000E+00
  1.00000000E+00  1.00000000E+00  5.89674518E-06  4.60752740E-05  2.42070343E-04
  1.02205299E-03  3.70930499E-03  1.19720307E-02  3.46735726E-02  8.90729487E-02
  1.93334549E-01  3.20663919E-01  3.29580713E-01  1.49250790E-01  1.55764867E-02
  7.93747636E-04  2.65221775E-04 -5.68536848E-06 -3.52666574E-05 -3.27539377E-04
 -1.87629276E-03 -1.01414527E-02 -3.80702440E-02 -9.57536910E-02 -4.73840598E-02
  3.47577995E-01  5.73945554E-01  2.14222079E-01 -1.02928963E-02  7.18105399E-06
  1.20828593E-04  4.42852463E-04  3.05163083E-03  3.69571776E-03 -4.41792565E-02
 -2.33790718E-01 -4.89037435E-02  6.44374705E-01  5.44424123E-01  2.45813907E-06
  1.21542842E-05 -4.20845287E-05 -2.71411136E-04  1.88335237E-03  1.04009470E-02
  6.18574958E-03 -1.11556547E-01 -4.47970305E-01  1.18314733E+00  1.00000000E+00
  1.00000000E+00  1.00000000E+00  4.37079993E-04  3.79355062E-03  2.05440673E-02
  7.95459389E-02  2.18602295E-01  3.89303910E-01  3.60668111E-01  1.10677963E-01
 -1.34807692E-03  1.00103778E-06 -7.06114784E-05 -1.15560817E-03 -7.09755620E-03
 -2.44937124E-02 -1.01982599E-02  2.19854720E-01  5.15741017E-01  3.67494091E-01
 -2.33484889E-05 -3.27796533E-04  4.19438933E-04 -2.20691716E-03 -6.45224464E-03
 -4.68458724E-02 -4.09196666E-02  1.01815889E+00  1.00000000E+00  1.00000000E+00
  1.00000000E+00  1.51744738E-03  1.30531170E-02  5.97884776E-02  1.75631556E-01
  3.28164786E-01  3.96050780E-01  2.81996460E-01  1.00000000E+00  1.00000000E+00
  1.00000000E+00  1.00000000E+00  1.00000000E+00  4.93229477E-05  3.83207967E-04
  2.00947816E-03  8.38950124E-03  2.94843950E-02  8.78759948E-02  2.11589759E-01
  3.65611554E-01  3.41246350E-01  1.02162570E-01  2.14249949E-03 -2.21747925E-06
 -1.71189708E-04 -1.27922846E-03 -9.32956265E-03 -3.98910062E-02 -1.05536085E-01
  9.36202446E-03  5.10511140E-01  5.73150737E-01  4.03949245E-06  2.12481765E-04
  8.59484452E-04  4.63248159E-03  4.47343490E-04 -7.38438245E-02 -3.62271994E-01
  1.16620337E+00  1.00000000E+00  1.00000000E+00  1.00000000E+00  2.47206402E-03
  1.97550234E-02  9.09917355E-02  2.63187834E-01  4.49078073E-01  3.60183072E-01
  3.03427809E-05 -1.22475826E-03 -6.01429772E-03 -2.76401323E-02  4.35105612E-04
  1.00307272E+00  1.00000000E+00  1.00000000E+00  1.00000000E+00  1.00000000E+00
  1.00000000E+00  1.00000000E+00  1.00000000E+00  1.00000000E+00  2.54948632E-02
  1.90362766E-01  8.52162022E-01  1.00000000E+00  1.00000000E+00  1.00000000E+00
  1.00000000E+00  1.00000000E+00  1.00000000E+00  1.00000000E+00  1.00000000E+00
Coordinates of each shell                  R   N=         174
  0.00000000E+00  0.00000000E+00  0.00000000E+00  0.00000000E+00  0.00000000E+00
  0.00000000E+00  0.00000000E+00  0.00000000E+00  0.00000000E+00  0.00000000E+00
  0.00000000E+00  0.00000000E+00  0.00000000E+00  0.00000000E+00  0.00000000E+00
  0.00000000E+00  0.00000000E+00  0.00000000E+00  0.00000000E+00  0.00000000E+00
  0.00000000E+00  0.00000000E+00  0.00000000E+00  0.00000000E+00  0.00000000E+00
  0.00000000E+00  0.00000000E+00  0.00000000E+00  0.00000000E+00  0.00000000E+00
  0.00000000E+00  0.00000000E+00  0.00000000E+00  0.00000000E+00  0.00000000E+00
  0.00000000E+00  0.00000000E+00  0.00000000E+00  0.00000000E+00  0.00000000E+00
  0.00000000E+00  0.00000000E+00  5.80867318E+00  0.00000000E+00  0.00000000E+00
  5.80867318E+00  0.00000000E+00  0.00000000E+00  5.80867318E+00  0.00000000E+00
  0.00000000E+00  5.80867318E+00  0.00000000E+00  0.00000000E+00  5.80867318E+00
  0.00000000E+00  0.00000000E+00  5.80867318E+00  0.00000000E+00  0.00000000E+00
  5.80867318E+00  0.00000000E+00  0.00000000E+00  5.80867318E+00  0.00000000E+00
  0.00000000E+00  5.80867318E+00  0.00000000E+00  0.00000000E+00  5.80867318E+00
  0.00000000E+00  0.00000000E+00  5.80867318E+00  0.00000000E+00  0.00000000E+00
  5.80867318E+00  0.00000000E+00  0.00000000E+00  5.80867318E+00  0.00000000E+00
  0.00000000E+00  5.80867318E+00  0.00000000E+00  0.00000000E+00  5.80867318E+00
  0.00000000E+00  0.00000000E+00  5.80867318E+00  0.00000000E+00  0.00000000E+00
  5.80867318E+00  0.00000000E+00  0.00000000E+00  5.80867318E+00  0.00000000E+00
  0.00000000E+00  5.80867318E+00  0.00000000E+00  0.00000000E+00 -7.38733169E-01
  3.09599977E+00  0.00000000E+00 -7.38733169E-01  3.09599977E+00  0.00000000E+00
 -7.38733169E-01  3.09599977E+00  0.00000000E+00 -7.38733169E-01  3.09599977E+00
  0.00000000E+00 -7.38733169E-01  3.09599977E+00  0.00000000E+00 -7.38733169E-01
  3.09599977E+00  0.00000000E+00 -7.38733169E-01  3.09599977E+00  0.00000000E+00
 -7.38733169E-01  3.09599977E+00  0.00000000E+00 -7.38733169E-01  3.09599977E+00
  0.00000000E+00 -7.38733169E-01  3.09599977E+00  0.00000000E+00 -7.38733169E-01
  3.09599977E+00  0.00000000E+00 -7.38733169E-01  3.09599977E+00  0.00000000E+00
 -7.38733169E-01  3.09599977E+00  0.00000000E+00 -7.38733169E-01  3.09599977E+00
  0.00000000E+00 -7.38733169E-01  3.09599977E+00  0.00000000E+00 -7.38733169E-01
  3.09599977E+00  0.00000000E+00  1.84428226E+00  0.00000000E+00  4.94173945E-01
  1.84428226E+00  0.00000000E+00  4.94173945E-01  1.84428226E+00  0.00000000E+00
  4.94173945E-01  1.84428226E+00  0.00000000E+00  4.94173945E-01  1.84428226E+00
  0.00000000E+00  4.94173945E-01  1.84428226E+00  0.00000000E+00  4.94173945E-01
  1.84428226E+00  0.00000000E+00  4.94173945E-01  1.84428226E+00  0.00000000E+00
  4.94173945E-01  1.84428226E+00  0.00000000E+00  4.94173945E-01
Num ILSW                                   I              100
ILSW                                       I   N=         100
           0           0           0           0           2           0
           0           0           0           0           0          -1
           5           0           0           0           0           0
           0           0           0           0           0           0
           1           1           0           0           0           0
           0           0      100000           0          -1           0
           0           0           0           0           0           0
           0           0           0           1           0           0
           0 -2000000000           1           0           0           0
           0           0           4          52           0           0
           0           0           0           0           0           0
           0           0           0           4           0           1
           0           0           0           0           0           0
           0           0           0           0           0           0
           0           0           0           0           0           0
           0           0           0           0           0           0
           0           0           0           0
Num RLSW                                   I               52
RLSW                                       R   N=          52
  1.00000000E+00  1.00000000E+00  1.00000000E+00  1.00000000E+00  1.00000000E+00
  0.00000000E+00  0.00000000E+00  1.00000000E+00  0.00000000E+00  0.00000000E+00
  0.00000000E+00  0.00000000E+00  1.00000000E+00  0.00000000E+00  0.00000000E+00
  0.00000000E+00  0.00000000E+00  1.00000000E+00  0.00000000E+00  0.00000000E+00
  0.00000000E+00  0.00000000E+00  1.00000000E+00  0.00000000E+00  0.00000000E+00
  0.00000000E+00  0.00000000E+00  1.00000000E+00  0.00000000E+00  0.00000000E+00
  0.00000000E+00  0.00000000E+00  1.00000000E+00  0.00000000E+00  0.00000000E+00
  0.00000000E+00  0.00000000E+00  0.00000000E+00  1.00000000E+00  1.00000000E+00
  0.00000000E+00  1.00000000E+00  0.00000000E+00  0.00000000E+00  0.00000000E+00
  0.00000000E+00  0.00000000E+00  0.00000000E+00  0.00000000E+00  0.00000000E+00
  0.00000000E+00  0.00000000E+00
MxBond                                     I                2
NBond                                      I   N=           4
           2           0           1           1
IBond                                      I   N=           8
           3           4           0           0           1           0
           1           0
RBond                                      R   N=           8
  1.00000000E+00  1.00000000E+00  0.00000000E+00  0.00000000E+00  1.00000000E+00
  0.00000000E+00  1.00000000E+00  0.00000000E+00
Virial Ratio                               R      2.000046567438305E+00
SCF Energy                                 R     -3.107476631806600E+03
MP2 Energy                                 R     -3.108180043415582E+03
Total Energy                               R     -3.108180043415582E+03
Post-SCF wavefunction norm                 R      1.105461396227125E+00
RMS Density                                R      4.626384025398096E-09
Job Status                                 I                1
Nuclear derivative order                   I                0
External E-field                           R   N=          35
  0.00000000E+00  0.00000000E+00  0.00000000E+00  0.00000000E+00  0.00000000E+00
  0.00000000E+00  0.00000000E+00  0.00000000E+00  0.00000000E+00  0.00000000E+00
  0.00000000E+00  0.00000000E+00  0.00000000E+00  0.00000000E+00  0.00000000E+00
  0.00000000E+00  0.00000000E+00  0.00000000E+00  0.00000000E+00  0.00000000E+00
  0.00000000E+00  0.00000000E+00  0.00000000E+00  0.00000000E+00  0.00000000E+00
  0.00000000E+00  0.00000000E+00  0.00000000E+00  0.00000000E+00  0.00000000E+00
  0.00000000E+00  0.00000000E+00  0.00000000E+00  0.00000000E+00  0.00000000E+00
IOpCl                                      I                0
IROHF                                      I                0
Alpha Orbital Energies                     R   N=         178
 -4.89753418E+02 -1.04732882E+02 -6.48937695E+01 -5.82482824E+01 -5.82482234E+01
 -5.82482125E+01 -2.04646233E+01 -1.04523999E+01 -9.56630109E+00 -7.91957248E+00
 -7.91691615E+00 -7.91680691E+00 -7.17410185E+00 -7.17354878E+00 -7.17353026E+00
 -2.91580790E+00 -2.91556373E+00 -2.91553711E+00 -2.91490348E+00 -2.91490259E+00
 -1.23196803E+00 -8.97306743E-01 -7.28124349E-01 -5.41729077E-01 -4.44544278E-01
 -4.36191648E-01 -3.09607033E-01 -2.82559671E-01 -1.82849514E-01 -1.73804491E-01
 -1.73505471E-01  1.55429782E-01  1.80408433E-01  2.16163466E-01  2.27177751E-01
  2.41376418E-01  2.47028201E-01  2.50079813E-01  2.85931999E-01  3.00989609E-01
  3.05923050E-01  3.26018057E-01  3.34804077E-01  3.62798178E-01  4.22283281E-01
  4.41306339E-01  4.64903760E-01  4.84503552E-01  4.88059081E-01  5.08382324E-01
  5.39766582E-01  5.44421366E-01  5.65568437E-01  5.91771291E-01  5.93905861E-01
  6.00382252E-01  6.13390442E-01  6.53883382E-01  6.94034805E-01  7.34208712E-01
  7.39982166E-01  7.55686620E-01  7.76940917E-01  7.90952625E-01  8.56555917E-01
  8.83241624E-01  8.90683004E-01  9.07321339E-01  9.44150515E-01  9.90870560E-01
  9.97444507E-01  1.00589919E+00  1.00868574E+00  1.01761684E+00  1.04002560E+00
  1.07048753E+00  1.07244596E+00  1.09196703E+00  1.09789167E+00  1.11511423E+00
  1.13650369E+00  1.16280241E+00  1.17683437E+00  1.18164259E+00  1.19832873E+00
  1.20727339E+00  1.22083240E+00  1.26368984E+00  1.29694506E+00  1.31614134E+00
  1.35291404E+00  1.37633558E+00  1.38887937E+00  1.47073636E+00  1.50336275E+00
  1.50784230E+00  1.53537275E+00  1.57556732E+00  1.61402352E+00  1.66184165E+00
  1.69875890E+00  1.70672378E+00  1.75243809E+00  1.79103676E+00  1.79355682E+00
  1.88456010E+00  1.97189476E+00  2.13500975E+00  2.35814696E+00  2.38750934E+00
  2.41620157E+00  2.45277532E+00  2.46607822E+00  2.47730425E+00  2.50830660E+00
  2.53162282E+00  2.53563298E+00  2.55151920E+00  2.55638453E+00  2.55909931E+00
  2.57124731E+00  2.58171120E+00  2.59575046E+00  2.62193109E+00  2.63051114E+00
  2.65105247E+00  2.67093580E+00  2.69036443E+00  2.69947349E+00  2.71782730E+00
  2.73983288E+00  2.75416491E+00  2.77358692E+00  2.77722927E+00  2.78621820E+00
  2.80863727E+00  2.87434987E+00  2.94455385E+00  3.05836149E+00  3.09131774E+00
  3.16482017E+00  3.19317288E+00  3.21809749E+00  3.25206703E+00  3.27915518E+00
  3.30316051E+00  3.34884827E+00  3.52367004E+00  3.54770908E+00  3.57411497E+00
  3.92449777E+00  4.16566598E+00  4.31620427E+00  4.44312482E+00  4.51310587E+00
  4.55482519E+00  4.76111018E+00  4.88611703E+00  4.98464600E+00  5.08935396E+00
  5.33277857E+00  5.41743156E+00  5.66703781E+00  6.41807738E+00  6.58071451E+00
  6.86600367E+00  6.90131726E+00  6.91810086E+00  6.99392073E+00  7.30009329E+00
  7.33663077E+00  7.34872773E+00  7.44072997E+00  7.54379166E+00  7.74269860E+00
  7.78900772E+00  8.34841647E+00  1.44781596E+01
Alpha MO coefficients                      R   N=       31684
  6.80121047E-08  3.49729088E-07 -3.16065643E-08  1.79812405E-06  6.03766562E-06
 -2.52853397E-08 -5.97483811E-09 -1.38984873E-08  1.75131207E-07  2.20737286E-08
  8.96083879E-08 -2.00507361E-06 -5.26670816E-07  1.53624295E-06  7.55437570E-07
 -2.67614290E-08  1.03697743E-06 -2.34348882E-08 -2.40921191E-08 -7.06122987E-09
  1.98042265E-08  7.48544303E-09  1.20346131E-07  2.29452795E-07  2.36170729E-08
 -6.30624090E-08 -3.24610445E-08  9.03101350E-07  1.14176701E-07 -1.24554854E-07
 -9.53912701E-07 -6.41539566E-08 -5.85001206E-08 -4.63585993E-09  1.78273101E-09
  5.11104013E-08 -3.28688158E-10  4.35670089E-09 -4.84878566E-09  6.43768196E-08
  1.66039367E-07  3.32478039E-09  1.10018157E-08 -6.25444449E-09 -4.16455013E-08
  6.07816472E-09  1.00053503E+00 -1.74591753E-03 -3.66281088E-04  2.64805435E-05
 -3.86289565E-05 -1.60578914E-05 -4.65434162E-09 -5.32829094E-07 -4.67688910E-08
  2.61261554E-07  4.80058662E-09  1.94920254E-08 -6.72071672E-08 -1.82567628E-06
  2.03867812E-08  2.58694815E-07  4.26653092E-07 -1.38053499E-08 -3.45725698E-08
  5.95436562E-06 -6.69509641E-08 -7.85377762E-07  6.56475464E-09  4.67922181E-08
 -2.36434081E-08 -8.11961639E-09 -3.03339388E-08  3.34238859E-10  2.38988995E-08
  4.84614515E-09 -1.93436632E-09  4.78548765E-08 -2.77985948E-09 -2.13961922E-08
 -1.45096496E-08 -2.26741822E-07 -1.99956942E-07  8.16385968E-09  4.59965109E-07
  2.35351559E-08  9.73191579E-07  5.55595854E-07 -6.37348374E-09 -1.80944608E-06
 -8.18026800E-09 -6.67192964E-08  1.36954382E-07  4.26693876E-09  8.42651924E-08
  4.83879140E-10 -2.07251759E-07  2.50580077E-09  6.60875806E-08 -1.38315984E-07
 -7.83359444E-09 -8.17198408E-08 -6.26113979E-09  2.13666969E-07  2.94930838E-09
  1.92181352E-09  3.27533809E-08  7.47320486E-08 -4.11081867E-08  2.30881962E-07
 -1.72609636E-07  5.68690306E-10 -5.98682493E-10 -1.97681624E-09  7.48089593E-08
 -2.83906479E-08 -1.32801229E-08  1.01879748E-09  6.01645822E-09  7.06646570E-09
 -1.03476037E-07 -3.28666869E-07  1.63707966E-07 -1.42945637E-07  8.95969197E-08
 -1.62579423E-07 -8.41624861E-09  1.14814533E-08 -3.11568915E-09  1.35898728E-08
 -1.32652482E-08  5.16396734E-09 -2.77560921E-08 -1.03909313E-09 -3.35152472E-08
 -1.48222761E-08 -8.47327156E-09  7.63510827E-08 -6.37857300E-08 -2.33980547E-07
 -3.04994636E-08 -3.20376682E-08  8.61609752E-09 -9.13728088E-09  1.77634866E-08
  1.10365110E-08 -1.08401045E-08 -7.97250116E-09  6.09970338E-08  5.00870793E-09
  3.11463288E-08 -4.75894133E-08 -2.20151755E-08 -4.45206871E-08  2.99085993E-08
  1.16279766E-07  1.97004222E-06 -5.86872339E-07 -6.28671845E-07  1.37851431E-07
 -1.98439672E-08  7.97787357E-08  1.16875030E-09  1.34126179E-07 -8.91548458E-07
  8.90940093E-06  3.69702951E-07 -1.08550400E-06  6.26059784E-08  1.30134418E-07
  7.44133944E-09 -8.63327901E-08 -8.33183243E-09  9.36612032E-07  3.97025289E-07
 -4.98991803E-08 -1.55158467E-06 -1.26161003E-07  5.27487570E-06  2.93849501E-05
  2.17157788E-06 -1.51015936E-04 -1.01321426E-04  3.38944672E-07  3.02498828E-06
  5.27063333E-07 -3.78697372E-06 -8.96168779E-06 -2.60311000E-06  5.04205167E-05
 -1.54236167E-04  3.22581770E-07  1.18923201E-05 -3.69604601E-05  1.78123659E-06
 -2.14122884E-06  2.09729638E-07  3.24620306E-08 -3.08419037E-06 -1.42445700E-06
  1.41125168E-05 -1.04689161E-06 -3.13254736E-07  2.08036276E-05  9.51629694E-06
  2.52045981E-05  3.83883257E-06 -2.83057491E-06  5.95644849E-05  1.21178746E-05
 -1.65766526E-07 -2.48706168E-07 -1.32570498E-08 -3.78092279E-07  3.49706148E-07
 -1.59637680E-06  9.73315906E-07  2.64682018E-07 -2.75396566E-06  1.30159314E-05
  1.62197287E-06 -1.54375365E-06 -5.09412199E-06  8.99719653E-06  9.51585029E-08
  4.96752309E-07  2.88177823E-06  6.80455248E-06  2.59430267E-07 -2.45484559E-05
 -6.82255511E-06 -8.42660208E-08  1.60986627E-08  2.38277441E-08  8.34952416E-07
 -3.44873423E-08 -2.30822711E-07  5.56047847E-06  3.69313349E-07 -1.50930117E-06
 -2.18929136E-06  1.96295664E-07  6.14309156E-07  1.81529908E-05 -4.79655496E-06
 -2.96167331E-06  2.28344638E-06  2.23200219E-07  4.48130995E-07  4.33559409E-08
  5.99102806E-08 -1.06435709E-09 -6.75169091E-08  8.57849334E-08 -3.89275570E-07
 -4.92765440E-07 -1.00431642E-08  6.08454115E-07 -6.10219704E-07  2.49248618E-06
  2.59645866E-06  2.09119802E-07 -4.29968991E-06  1.40778851E-06  3.41432665E-06
  1.22054565E-06 -1.15343550E-06 -5.29477597E-06  2.93565619E-06 -8.37661857E-08
  2.40766651E-08 -2.64765297E-08 -9.39202240E-08 -6.17174396E-07 -1.63960277E-07
  3.52494748E-07  1.03805613E-06 -1.36327769E-06  3.21182019E-07 -9.29778216E-07
  1.18081244E-06  1.71838889E-06 -1.65426863E-06  9.99534858E-01  1.95377626E-03
  1.84361859E-04 -4.17801598E-04  7.26905677E-05  7.65306709E-05  1.74998064E-05
 -7.54480799E-05  1.11947916E-06  3.70578151E-05 -1.34692815E-04  1.91913802E-06
 -1.80521587E-05  7.17877524E-05 -1.06080350E-06  4.27698027E-06 -5.76411120E-05
 -2.59471274E-06  2.37134083E-06 -1.17932128E-05 -8.07918451E-07 -3.66925360E-06
  6.81903143E-08 -1.16041878E-07 -5.01917658E-06 -3.31345800E-06 -2.85590851E-05
  3.59591928E-07 -4.98642365E-07 -4.37836419E-05 -2.39612691E-05 -1.50659251E-06
 -2.49892762E-06  9.01703085E-07 -9.89671030E-06  5.07393042E-07 -4.33131121E-07
 -1.91753308E-06  6.14648097E-06  2.83741118E-07 -6.53737749E-07 -4.67506096E-06
  4.11340413E-06  8.63018738E-07  1.70347999E-07  3.13615712E-06 -7.87332118E-07
  1.36334613E-06 -4.26392102E-06  7.28564834E-06 -1.46254345E-06 -1.93272185E-05
  5.06035681E-05 -7.53908273E-06  8.55031207E-07 -2.55390126E-06  1.21654306E-07
 -1.05430585E-05  1.61081184E-05 -1.01017226E-06  5.16716133E-06  2.31221809E-05
 -2.19050538E-06 -5.17565756E-07  2.70438511E-08 -2.79676382E-08 -7.78231777E-07
 -9.95602315E-07 -1.36649175E-05  2.96629546E-06 -1.28512799E-06  9.84883928E-06
 -2.65028307E-06  2.28941985E-07  1.72097613E-06 -7.57085334E-09  7.72058360E-06
  2.93580651E-05  8.54112586E-08  7.93947470E-09  1.17330885E-08  8.97943745E-07
  1.19568782E-07  1.62663686E-07 -1.03890008E-05 -1.27709596E-06  6.34720656E-06
  4.13559841E-06  7.49064438E-07  4.65766596E-06 -1.12470694E-07 -1.20624379E-07
 -3.84021015E-08  1.17522726E-07  3.48513567E-08  6.39826848E-07  8.28946508E-07
  1.39860314E-07 -6.04311557E-07 -1.05622287E-07  4.13528100E-06  3.85164665E-07
 -5.94996094E-07 -5.07437428E-06  1.03271960E-07 -1.75579589E-07 -2.64073788E-08
  1.14377054E-08  1.14754298E-07 -1.03186904E-08 -4.76707196E-09 -2.85953885E-08
  2.39021087E-07  8.64811120E-07 -1.90046739E-08  9.19089468E-08  6.61386235E-09
 -4.66269065E-07  5.37485772E-08 -3.14071503E-01  1.04046652E+00  2.14043864E-02
  3.47293602E-05 -7.90612638E-05 -6.37302142E-05 -9.96299870E-06 -5.59908132E-05
 -7.16363445E-06  3.63575932E-05 -7.47214204E-06 -5.27706923E-07  3.19689042E-06
 -9.54392781E-06 -2.26208258E-07  2.39168377E-06  5.05686543E-06  2.70804531E-07
 -1.85371190E-06  3.10951070E-05 -9.37062320E-08 -4.49351273E-06  1.37857344E-06
  6.40378702E-08 -1.05922807E-07 -4.42094063E-07 -1.52826135E-06 -3.90759753E-09
  1.21709404E-06  1.94496900E-07 -6.20099109E-08  4.10129904E-07 -1.46192412E-09
 -8.34788998E-08 -9.77055994E-08 -5.84934724E-07 -1.19687429E-06  9.26328321E-09
  1.46638276E-06  1.96709361E-07  5.01889810E-06  2.84482319E-06 -8.35415302E-09
 -9.35841207E-06 -5.47880728E-08 -1.63888235E-07  4.59455945E-07  2.18075348E-08
  1.97959336E-07 -1.20616987E-09 -7.04812462E-07 -8.49239178E-09  3.15167868E-07
 -1.03065108E-06 -3.69509779E-08 -3.82252605E-07 -9.23549632E-09  1.47974273E-06
 -1.47007529E-08  1.45314013E-08  2.01753474E-07  5.06689610E-07 -2.22399801E-07
  3.85101726E-07 -2.41607783E-06  1.36051220E-08 -1.87522026E-08 -1.36490863E-08
  5.73527678E-07  2.72884401E-09 -1.18753174E-07 -6.87302022E-08  2.36965670E-08
  5.36889148E-08 -1.27028347E-06 -6.39869939E-07  9.65942146E-07 -3.11544241E-07
  6.02752898E-07 -8.56790743E-07 -7.44072806E-08  4.69428663E-08 -1.61936294E-08