title                                                                   
SP        RMP2-FC                                                     Aug-CC-pVTZ         
Number of atoms                            I                4
Info1-9                                    I   N=           9
          40          13           0           0           0         110
           1           2           1
Full Title                                 C   N=           1
title       
Route                                      C   N=           5
#p pop=NBO SP NoSymm mp2/aug-cc-pvtz density=current        
Charge                                     I               -1
Multiplicity                               I                1
Number of electrons                        I               62
Number of alpha electrons                  I               31
Number of beta electrons                   I               31
Number of basis functions                  I              178
Number of independent functions            I              178
Number of point charges in /Mol/           I                0
Number of translation vectors              I                0
Atomic numbers                             I   N=           4
           8          35          17           1
Nuclear charges                            R   N=           4
  8.00000000E+00  3.50000000E+01  1.70000000E+01  1.00000000E+00
Current cartesian coordinates              R   N=          12
  0.00000000E+00  0.00000000E+00  0.00000000E+00  5.80867318E+00  0.00000000E+00
  0.00000000E+00 -7.38733169E-01  3.09599977E+00  0.00000000E+00  1.92324987E+00
  0.00000000E+00  0.00000000E+00
Number of symbols in /Mol/                 I                0
Force Field                                I                0
Atom Types                                 C   N=           4
                                                
Int Atom Types                             I   N=           4
           0           0           0           0
MM charges                                 R   N=           4
  0.00000000E+00  0.00000000E+00  0.00000000E+00  0.00000000E+00
Integer atomic weights                     I   N=           4
          16          79          35           1
Real atomic weights                        R   N=           4
  1.59949146E+01  7.89183361E+01  3.49688527E+01  1.00782504E+00
Atom fragment info                         I   N=           4
           0           0           0           0
Atom residue num                           I   N=           4
           0           0           0           0
Nuclear spins                              I   N=           4
           0           3           3           1
Nuclear ZEff                               R   N=           4
 -5.60000000E+00 -2.45000000E+01 -1.42400000E+01 -1.00000000E+00
Nuclear ZNuc                               R   N=           4
  8.00000000E+00  3.50000000E+01  1.70000000E+01  1.00000000E+00
Nuclear QMom                               R   N=           4
  0.00000000E+00  3.13000000E+01 -8.16500000E+00  0.00000000E+00
Nuclear GFac                               R   N=           4
  0.00000000E+00  2.10639900E+00  8.21874000E-01  2.79284600E+00
MicOpt                                     I   N=           4
          -1          -1          -1          -1
Number of residues                         I                0
Number of secondary structures             I                0
Number of contracted shells                I               58
Number of primitive shells                 I              180
Pure/Cartesian d shells                    I                0
Pure/Cartesian f shells                    I                0
Highest angular momentum                   I                3
Largest degree of contraction              I               15
Shell types                                I   N=          58
           0           0           0           0           0           1
           1           1           1          -2          -2          -2
          -3          -3           0           0           0           0
           0           0           0           1           1           1
           1           1           1          -2          -2          -2
          -2          -3          -3           0           0           0
           0           0           0           1           1           1
           1           1          -2          -2          -2          -3
          -3           0           0           0           0           1
           1           1          -2          -2
Number of primitives per shell             I   N=          58
           7           6           1           1           1           3
           1           1           1           1           1           1
           1           1          15          12          10          10
           1           1           1           9           9           8
           1           1           1           7           1           1
           1           1           1          11           9           8
           1           1           1           6           6           1
           1           1           1           1           1           1
           1           3           1           1           1           1
           1           1           1           1
Shell to atom map                          I   N=          58
           1           1           1           1           1           1
           1           1           1           1           1           1
           1           1           2           2           2           2
           2           2           2           2           2           2
           2           2           2           2           2           2
           2           2           2           3           3           3
           3           3           3           3           3           3
           3           3           3           3           3           3
           3           4           4           4           4           4
           4           4           4           4
Primitive exponents                        R   N=         180
  1.53300000E+04  2.29900000E+03  5.22400000E+02  1.47300000E+02  4.75500000E+01
  1.67600000E+01  6.20700000E+00  5.22400000E+02  1.47300000E+02  4.75500000E+01
  1.67600000E+01  6.20700000E+00  6.88200000E-01  1.75200000E+00  2.38400000E-01
  7.37600000E-02  3.44600000E+01  7.74900000E+00  2.28000000E+00  7.15600000E-01
  2.14000000E-01  5.97400000E-02  2.31400000E+00  6.45000000E-01  2.14000000E-01
  1.42800000E+00  5.00000000E-01  1.06390000E+07  1.59340000E+06  3.62610000E+05
  1.02700000E+05  3.35010000E+04  1.20930000E+04  4.71590000E+03  1.95560000E+03
  8.52610000E+02  3.87670000E+02  1.82680000E+02  8.82450000E+01  3.92630000E+01
  9.40570000E+00  1.89950000E+00  3.35010000E+04  1.20930000E+04  4.71590000E+03
  1.95560000E+03  8.52610000E+02  3.87670000E+02  1.82680000E+02  8.82450000E+01
  3.92630000E+01  1.92340000E+01  9.40570000E+00  1.89950000E+00  4.71590000E+03
  8.52610000E+02  3.87670000E+02  1.82680000E+02  8.82450000E+01  3.92630000E+01
  1.92340000E+01  9.40570000E+00  4.16010000E+00  1.89950000E+00  4.71590000E+03
  8.52610000E+02  3.87670000E+02  8.82450000E+01  3.92630000E+01  1.92340000E+01
  9.40570000E+00  4.16010000E+00  1.89950000E+00  3.01140000E-01  6.04720000E-01
  1.25150000E-01  4.55930000E-02  8.67650000E+03  2.05590000E+03  6.66230000E+02
  2.53100000E+02  1.06120000E+02  4.72420000E+01  2.18250000E+01  9.96840000E+00
  1.99820000E+00  8.67650000E+03  6.66230000E+02  2.53100000E+02  1.06120000E+02
  4.72420000E+01  2.18250000E+01  9.96840000E+00  4.51710000E+00  1.99820000E+00
  6.66230000E+02  1.06120000E+02  4.72420000E+01  2.18250000E+01  9.96840000E+00
  4.51710000E+00  1.99820000E+00  2.81450000E-01  7.09880000E-01  1.02040000E-01
  3.51420000E-02  4.03830000E+02  1.21170000E+02  4.63450000E+01  1.97210000E+01
  8.86240000E+00  3.99620000E+00  1.76360000E+00  7.06190000E-01  2.63900000E-01
  1.04700000E-01  5.51500000E-01  2.58000000E-01  4.56100000E+05  6.83300000E+04
  1.55500000E+04  4.40500000E+03  1.43900000E+03  5.20400000E+02  2.03100000E+02
  8.39600000E+01  3.62000000E+01  1.58300000E+01  6.33400000E+00  4.40500000E+03
  1.43900000E+03  5.20400000E+02  2.03100000E+02  8.39600000E+01  3.62000000E+01
  1.58300000E+01  6.33400000E+00  2.69400000E+00  1.43900000E+03  2.03100000E+02
  8.39600000E+01  3.62000000E+01  1.58300000E+01  6.33400000E+00  2.69400000E+00
  4.31300000E-01  9.76800000E-01  1.62500000E-01  5.91000000E-02  6.63300000E+02
  1.56800000E+02  4.99800000E+01  1.84200000E+01  7.24000000E+00  2.92200000E+00
  1.56800000E+02  4.99800000E+01  1.84200000E+01  7.24000000E+00  2.92200000E+00
  3.81800000E-01  1.02200000E+00  1.30100000E-01  4.19000000E-02  1.04600000E+00
  3.44000000E-01  1.35000000E-01  7.06000000E-01  3.12000000E-01  3.38700000E+01
  5.09500000E+00  1.15900000E+00  3.25800000E-01  1.02700000E-01  2.52600000E-02
  1.40700000E+00  3.88000000E-01  1.02000000E-01  1.05700000E+00  2.47000000E-01
Contraction coefficients                   R   N=         180
  5.19808943E-04  4.02025621E-03  2.07128267E-02  8.10105536E-02  2.35962985E-01
  4.42653446E-01  3.57064423E-01 -4.42115008E-05 -1.22591041E-03 -1.05517725E-02
 -6.74452633E-02 -1.71198607E-01  1.07329856E+00  1.00000000E+00  1.00000000E+00
  1.00000000E+00  4.11634896E-02  2.57762836E-01  8.02419274E-01  1.00000000E+00
  1.00000000E+00  1.00000000E+00  1.00000000E+00  1.00000000E+00  1.00000000E+00
  1.00000000E+00  1.00000000E+00  5.89674518E-06  4.60752740E-05  2.42070343E-04
  1.02205299E-03  3.70930499E-03  1.19720307E-02  3.46735726E-02  8.90729487E-02
  1.93334549E-01  3.20663919E-01  3.29580713E-01  1.49250790E-01  1.55764867E-02
  7.93747636E-04  2.65221775E-04 -5.68536848E-06 -3.52666574E-05 -3.27539377E-04
 -1.87629276E-03 -1.01414527E-02 -3.80702440E-02 -9.57536910E-02 -4.73840598E-02
  3.47577995E-01  5.73945554E-01  2.14222079E-01 -1.02928963E-02  7.18105399E-06
  1.20828593E-04  4.42852463E-04  3.05163083E-03  3.69571776E-03 -4.41792565E-02
 -2.33790718E-01 -4.89037435E-02  6.44374705E-01  5.44424123E-01  2.45813907E-06
  1.21542842E-05 -4.20845287E-05 -2.71411136E-04  1.88335237E-03  1.04009470E-02
  6.18574958E-03 -1.11556547E-01 -4.47970305E-01  1.18314733E+00  1.00000000E+00
  1.00000000E+00  1.00000000E+00  4.37079993E-04  3.79355062E-03  2.05440673E-02
  7.95459389E-02  2.18602295E-01  3.89303910E-01  3.60668111E-01  1.10677963E-01
 -1.34807692E-03  1.00103778E-06 -7.06114784E-05 -1.15560817E-03 -7.09755620E-03
 -2.44937124E-02 -1.01982599E-02  2.19854720E-01  5.15741017E-01  3.67494091E-01
 -2.33484889E-05 -3.27796533E-04  4.19438933E-04 -2.20691716E-03 -6.45224464E-03
 -4.68458724E-02 -4.09196666E-02  1.01815889E+00  1.00000000E+00  1.00000000E+00
  1.00000000E+00  1.51744738E-03  1.30531170E-02  5.97884776E-02  1.75631556E-01
  3.28164786E-01  3.96050780E-01  2.81996460E-01  1.00000000E+00  1.00000000E+00
  1.00000000E+00  1.00000000E+00  1.00000000E+00  4.93229477E-05  3.83207967E-04
  2.00947816E-03  8.38950124E-03  2.94843950E-02  8.78759948E-02  2.11589759E-01
  3.65611554E-01  3.41246350E-01  1.02162570E-01  2.14249949E-03 -2.21747925E-06
 -1.71189708E-04 -1.27922846E-03 -9.32956265E-03 -3.98910062E-02 -1.05536085E-01
  9.36202446E-03  5.10511140E-01  5.73150737E-01  4.03949245E-06  2.12481765E-04
  8.59484452E-04  4.63248159E-03  4.47343490E-04 -7.38438245E-02 -3.62271994E-01
  1.16620337E+00  1.00000000E+00  1.00000000E+00  1.00000000E+00  2.47206402E-03
  1.97550234E-02  9.09917355E-02  2.63187834E-01  4.49078073E-01  3.60183072E-01
  3.03427809E-05 -1.22475826E-03 -6.01429772E-03 -2.76401323E-02  4.35105612E-04
  1.00307272E+00  1.00000000E+00  1.00000000E+00  1.00000000E+00  1.00000000E+00
  1.00000000E+00  1.00000000E+00  1.00000000E+00  1.00000000E+00  2.54948632E-02
  1.90362766E-01  8.52162022E-01  1.00000000E+00  1.00000000E+00  1.00000000E+00
  1.00000000E+00  1.00000000E+00  1.00000000E+00  1.00000000E+00  1.00000000E+00
Coordinates of each shell                  R   N=         174
  0.00000000E+00  0.00000000E+00  0.00000000E+00  0.00000000E+00  0.00000000E+00
  0.00000000E+00  0.00000000E+00  0.00000000E+00  0.00000000E+00  0.00000000E+00
  0.00000000E+00  0.00000000E+00  0.00000000E+00  0.00000000E+00  0.00000000E+00
  0.00000000E+00  0.00000000E+00  0.00000000E+00  0.00000000E+00  0.00000000E+00
  0.00000000E+00  0.00000000E+00  0.00000000E+00  0.00000000E+00  0.00000000E+00
  0.00000000E+00  0.00000000E+00  0.00000000E+00  0.00000000E+00  0.00000000E+00
  0.00000000E+00  0.00000000E+00  0.00000000E+00  0.00000000E+00  0.00000000E+00
  0.00000000E+00  0.00000000E+00  0.00000000E+00  0.00000000E+00  0.00000000E+00
  0.00000000E+00  0.00000000E+00  5.80867318E+00  0.00000000E+00  0.00000000E+00
  5.80867318E+00  0.00000000E+00  0.00000000E+00  5.80867318E+00  0.00000000E+00
  0.00000000E+00  5.80867318E+00  0.00000000E+00  0.00000000E+00  5.80867318E+00
  0.00000000E+00  0.00000000E+00  5.80867318E+00  0.00000000E+00  0.00000000E+00
  5.80867318E+00  0.00000000E+00  0.00000000E+00  5.80867318E+00  0.00000000E+00
  0.00000000E+00  5.80867318E+00  0.00000000E+00  0.00000000E+00  5.80867318E+00
  0.00000000E+00  0.00000000E+00  5.80867318E+00  0.00000000E+00  0.00000000E+00
  5.80867318E+00  0.00000000E+00  0.00000000E+00  5.80867318E+00  0.00000000E+00
  0.00000000E+00  5.80867318E+00  0.00000000E+00  0.00000000E+00  5.80867318E+00
  0.00000000E+00  0.00000000E+00  5.80867318E+00  0.00000000E+00  0.00000000E+00
  5.80867318E+00  0.00000000E+00  0.00000000E+00  5.80867318E+00  0.00000000E+00
  0.00000000E+00  5.80867318E+00  0.00000000E+00  0.00000000E+00 -7.38733169E-01
  3.09599977E+00  0.00000000E+00 -7.38733169E-01  3.09599977E+00  0.00000000E+00
 -7.38733169E-01  3.09599977E+00  0.00000000E+00 -7.38733169E-01  3.09599977E+00
  0.00000000E+00 -7.38733169E-01  3.09599977E+00  0.00000000E+00 -7.38733169E-01
  3.09599977E+00  0.00000000E+00 -7.38733169E-01  3.09599977E+00  0.00000000E+00
 -7.38733169E-01  3.09599977E+00  0.00000000E+00 -7.38733169E-01  3.09599977E+00
  0.00000000E+00 -7.38733169E-01  3.09599977E+00  0.00000000E+00 -7.38733169E-01
  3.09599977E+00  0.00000000E+00 -7.38733169E-01  3.09599977E+00  0.00000000E+00
 -7.38733169E-01  3.09599977E+00  0.00000000E+00 -7.38733169E-01  3.09599977E+00
  0.00000000E+00 -7.38733169E-01  3.09599977E+00  0.00000000E+00 -7.38733169E-01
  3.09599977E+00  0.00000000E+00  1.92324987E+00  0.00000000E+00  0.00000000E+00
  1.92324987E+00  0.00000000E+00  0.00000000E+00  1.92324987E+00  0.00000000E+00
  0.00000000E+00  1.92324987E+00  0.00000000E+00  0.00000000E+00  1.92324987E+00
  0.00000000E+00  0.00000000E+00  1.92324987E+00  0.00000000E+00  0.00000000E+00
  1.92324987E+00  0.00000000E+00  0.00000000E+00  1.92324987E+00  0.00000000E+00
  0.00000000E+00  1.92324987E+00  0.00000000E+00  0.00000000E+00
Num ILSW                                   I              100
ILSW                                       I   N=         100
           0           0           0           0           2           0
           0           0           0           0           0          -1
           5           0           0           0           0           0
           0           0           0           0           0           0
           1           1           0           0           0           0
           0           0      100000           0          -1           0
           0           0           0           0           0           0
           0           0           0           1           0           0
           0 -2000000000           1           0           0           0
           0           0           4          52           0           0
           0           0           0           0           0           0
           0           0           0           4           0           1
           0           0           0           0           0           0
           0           0           0           0           0           0
           0           0           0           0           0           0
           0           0           0           0           0           0
           0           0           0           0
Num RLSW                                   I               52
RLSW                                       R   N=          52
  1.00000000E+00  1.00000000E+00  1.00000000E+00  1.00000000E+00  1.00000000E+00
  0.00000000E+00  0.00000000E+00  1.00000000E+00  0.00000000E+00  0.00000000E+00
  0.00000000E+00  0.00000000E+00  1.00000000E+00  0.00000000E+00  0.00000000E+00
  0.00000000E+00  0.00000000E+00  1.00000000E+00  0.00000000E+00  0.00000000E+00
  0.00000000E+00  0.00000000E+00  1.00000000E+00  0.00000000E+00  0.00000000E+00
  0.00000000E+00  0.00000000E+00  1.00000000E+00  0.00000000E+00  0.00000000E+00
  0.00000000E+00  0.00000000E+00  1.00000000E+00  0.00000000E+00  0.00000000E+00
  0.00000000E+00  0.00000000E+00  0.00000000E+00  1.00000000E+00  1.00000000E+00
  0.00000000E+00  1.00000000E+00  0.00000000E+00  0.00000000E+00  0.00000000E+00
  0.00000000E+00  0.00000000E+00  0.00000000E+00  0.00000000E+00  0.00000000E+00
  0.00000000E+00  0.00000000E+00
MxBond                                     I                2
NBond                                      I   N=           4
           2           0           1           1
IBond                                      I   N=           8
           3           4           0           0           1           0
           1           0
RBond                                      R   N=           8
  1.00000000E+00  1.00000000E+00  0.00000000E+00  0.00000000E+00  1.00000000E+00
  0.00000000E+00  1.00000000E+00  0.00000000E+00
Virial Ratio                               R      2.000047669944603E+00
SCF Energy                                 R     -3.107478428094955E+03
MP2 Energy                                 R     -3.108182766377997E+03
Total Energy                               R     -3.108182766377997E+03
Post-SCF wavefunction norm                 R      1.105563509142681E+00
RMS Density                                R      4.836488180724359E-09
Job Status                                 I                1
Nuclear derivative order                   I                0
External E-field                           R   N=          35
  0.00000000E+00  0.00000000E+00  0.00000000E+00  0.00000000E+00  0.00000000E+00
  0.00000000E+00  0.00000000E+00  0.00000000E+00  0.00000000E+00  0.00000000E+00
  0.00000000E+00  0.00000000E+00  0.00000000E+00  0.00000000E+00  0.00000000E+00
  0.00000000E+00  0.00000000E+00  0.00000000E+00  0.00000000E+00  0.00000000E+00
  0.00000000E+00  0.00000000E+00  0.00000000E+00  0.00000000E+00  0.00000000E+00
  0.00000000E+00  0.00000000E+00  0.00000000E+00  0.00000000E+00  0.00000000E+00
  0.00000000E+00  0.00000000E+00  0.00000000E+00  0.00000000E+00  0.00000000E+00
IOpCl                                      I                0
IROHF                                      I                0
Alpha Orbital Energies                     R   N=         178
 -4.89756512E+02 -1.04730611E+02 -6.48968875E+01 -5.82513933E+01 -5.82513440E+01
 -5.82513398E+01 -2.04606078E+01 -1.04501060E+01 -9.56943714E+00 -7.91727405E+00
 -7.91463871E+00 -7.91453982E+00 -7.17727029E+00 -7.17668443E+00 -7.17666949E+00
 -2.91897787E+00 -2.91869728E+00 -2.91867793E+00 -2.91803892E+00 -2.91803778E+00
 -1.22717073E+00 -8.94530477E-01 -7.32303249E-01 -5.37558538E-01 -4.41195242E-01
 -4.33034231E-01 -3.07330277E-01 -2.79863958E-01 -1.86813988E-01 -1.76881284E-01
 -1.76825033E-01  1.56200597E-01  1.81262018E-01  2.15714216E-01  2.27995783E-01
  2.41211134E-01  2.46273367E-01  2.50068153E-01  2.87284885E-01  3.03642922E-01
  3.18231781E-01  3.23600371E-01  3.24911910E-01  3.58865747E-01  4.36104003E-01
  4.37058084E-01  4.69220527E-01  4.81927343E-01  4.85769650E-01  5.02338572E-01
  5.42359085E-01  5.42725675E-01  5.70897733E-01  5.93645334E-01  6.01319575E-01
  6.03964080E-01  6.09087809E-01  6.56384829E-01  6.99742180E-01  7.37503078E-01
  7.44807661E-01  7.53237119E-01  7.76701422E-01  7.87639957E-01  8.46875360E-01
  8.90375936E-01  8.96538648E-01  9.20012994E-01  9.43899879E-01  9.98346004E-01
  9.98861593E-01  1.00344788E+00  1.00865154E+00  1.01870177E+00  1.03253695E+00
  1.06845673E+00  1.08158516E+00  1.09378082E+00  1.10321125E+00  1.11068551E+00
  1.13329235E+00  1.15320323E+00  1.17672482E+00  1.18180121E+00  1.20870317E+00
  1.22165354E+00  1.24112646E+00  1.28394791E+00  1.29499128E+00  1.33323959E+00
  1.33525364E+00  1.37457531E+00  1.38884882E+00  1.47604000E+00  1.50601756E+00
  1.51938980E+00  1.56911851E+00  1.59067893E+00  1.63297559E+00  1.66703219E+00
  1.70118377E+00  1.70629884E+00  1.77177443E+00  1.79084521E+00  1.79934885E+00
  1.89903067E+00  1.97532224E+00  2.15201859E+00  2.37834020E+00  2.41049250E+00
  2.41726216E+00  2.42246838E+00  2.46603738E+00  2.50275497E+00  2.50598508E+00
  2.52789130E+00  2.53516600E+00  2.54931346E+00  2.55084626E+00  2.55327064E+00
  2.56243644E+00  2.58233949E+00  2.60218682E+00  2.63161291E+00  2.64742053E+00
  2.65853874E+00  2.68017744E+00  2.68115149E+00  2.70052809E+00  2.72016475E+00
  2.72612020E+00  2.73976213E+00  2.75706393E+00  2.78309104E+00  2.80845918E+00
  2.81044845E+00  2.88347131E+00  3.03278005E+00  3.07443285E+00  3.09696613E+00
  3.17740457E+00  3.20097509E+00  3.21751253E+00  3.25688712E+00  3.29137725E+00
  3.31212759E+00  3.33995576E+00  3.53144126E+00  3.54847906E+00  3.57377311E+00
  3.93455214E+00  4.18735576E+00  4.30651565E+00  4.44962181E+00  4.53643299E+00
  4.58990972E+00  4.77660142E+00  4.97065320E+00  5.03347123E+00  5.25295906E+00
  5.33135308E+00  5.37032653E+00  5.65902438E+00  6.43310978E+00  6.59525361E+00
  6.84916376E+00  6.90278066E+00  6.91676112E+00  6.99928332E+00  7.27097102E+00
  7.33088831E+00  7.34681883E+00  7.45082367E+00  7.55659414E+00  7.74302662E+00
  7.81847296E+00  8.35131397E+00  1.45653206E+01
Alpha MO coefficients                      R   N=       31684
  1.47907015E-07  7.86157765E-07 -3.71762153E-08  2.33588151E-06  8.86135566E-06
 -3.38064013E-08 -2.74242852E-09  8.00075343E-17  3.21756784E-07  1.63207342E-08
 -1.03169493E-15 -3.86484393E-06 -7.63347683E-07  6.79521897E-15  1.29189232E-06
 -3.24714355E-09  4.75660752E-15 -3.70413919E-08  5.48913296E-16 -4.25715545E-17
  4.30154262E-08  3.16644624E-09  1.32746364E-07 -8.62556432E-16 -7.07525814E-17
 -1.36573205E-07 -1.81867719E-08  1.30480085E-06  3.62315765E-15  4.45840086E-16
 -2.04345480E-06 -1.87499663E-07  2.02093209E-16 -5.83257440E-08 -5.32347919E-10
 -2.45910132E-16  4.40373780E-16  4.37154547E-08 -4.66751920E-09 -3.90630293E-16
  2.47602136E-07  2.59322483E-08  1.01327419E-15 -3.16325931E-16 -2.33745815E-07
 -3.83357431E-09  1.00053504E+00 -1.74580919E-03 -3.65714741E-04  2.77019320E-05
 -3.90301813E-05 -1.87553437E-05 -1.48767704E-06 -6.29335243E-07 -4.77938142E-08
 -3.85564431E-17 -7.73621014E-10  1.61024644E-08 -1.03675994E-16 -2.30797025E-06
 -4.30943175E-09 -1.01937034E-15  4.92807673E-07 -4.26479308E-09  1.82261762E-16
  8.08182303E-06 -2.77843222E-09  2.71358547E-15  3.29674883E-07  3.27487698E-08
  8.07276777E-17 -1.31630010E-08 -5.67759655E-17 -2.51780092E-17  2.68289231E-08
  4.33063663E-09 -2.14061183E-09 -2.27196654E-16  1.48642389E-16 -1.28138778E-08
 -1.40712680E-08 -3.49102295E-07  7.62411125E-16 -9.30013315E-17  6.45552581E-07
  2.78680201E-08  1.33410618E-06 -2.74363218E-15  8.13490982E-17 -2.36313627E-06
 -4.21075662E-08  1.35570331E-16  1.80382645E-07  4.85937700E-09 -3.49516001E-16
 -3.96715762E-17 -2.42723924E-07 -6.45825724E-09 -3.84484599E-16 -1.30585383E-07
 -8.67440595E-09  6.31924472E-16 -8.60035424E-17  1.81599340E-07  1.42844474E-08
 -4.13044849E-09 -5.65765256E-08 -1.61609902E-07 -1.49519368E-08  8.66535282E-07
 -2.13290895E-07  1.31846541E-08 -2.01940016E-09  3.08779874E-16  2.12984851E-07
 -4.37333174E-08  7.65137031E-16 -5.08474835E-08  2.08267719E-08 -6.67358372E-16
  1.19234603E-07 -6.53138472E-07 -7.01205799E-16 -1.40813245E-07  1.73016650E-07
 -1.06174011E-15 -1.35790207E-08  2.48078374E-16  5.04007352E-16  9.70631430E-09
  2.91823738E-09 -3.37795132E-08 -6.07773604E-16 -6.15535017E-16 -4.72696315E-08
 -1.14474709E-07 -9.47338952E-08  7.93105003E-16  1.02318684E-15 -2.47963695E-07
 -7.49903244E-08 -5.47712658E-18 -2.76254934E-08 -7.23937280E-09  5.81796748E-16
 -1.42832307E-17 -5.72757392E-09  9.64243374E-09  2.84836342E-16  7.22359442E-08
  7.38880426E-08  2.29443239E-16 -1.98870595E-16 -7.66627267E-08  1.11151064E-08
  1.82129555E-07  4.98740735E-06 -2.14394995E-06 -4.49954307E-07  8.65881259E-08
 -2.44165168E-08  2.33821168E-16 -6.03751924E-07  2.16376687E-07 -2.79348384E-15
  1.35800986E-05  1.58044293E-07 -9.88061710E-15  2.63781808E-08 -5.02921310E-17
  3.96023038E-16 -7.27998756E-08 -2.45118241E-08  1.28630218E-06  2.12168141E-15
 -3.83648093E-16 -2.27357218E-06 -8.68589790E-08  4.94519340E-06  2.78004140E-05
  2.51533391E-06 -1.57912526E-04 -1.09604545E-04  5.51732786E-07  2.92363526E-06
 -9.95763541E-17 -5.27323633E-06 -8.54150176E-06  1.77267158E-16  4.83736014E-05
 -1.53490376E-04 -1.77274748E-14  1.00759337E-05 -3.86531131E-05 -1.98569483E-15
 -2.24056010E-06 -2.77370381E-17 -9.98253383E-16 -3.12280835E-06 -1.50335268E-06
  1.47596097E-05 -2.38702008E-15  5.27966759E-16  2.05721343E-05  9.88302379E-06
  2.51030393E-05 -6.95985644E-15 -4.24745533E-15  6.00823843E-05  1.20216725E-05
 -8.65469594E-16 -3.39390614E-07 -8.56852595E-08  7.66398180E-17  9.99720573E-16
 -1.72765415E-06  1.02326420E-06  3.55116158E-15 -2.55026068E-06  1.33636842E-05
 -1.91820125E-15 -1.09853940E-17 -4.70844541E-06  8.88192686E-06  6.37277914E-08
  3.54905732E-07  1.98006367E-06  4.90252680E-06  1.18273963E-06 -2.77058461E-05
 -5.42087259E-06 -9.87277029E-08  2.49359956E-08 -7.58249357E-17  1.16948401E-06
 -7.89422047E-08 -2.53077873E-16  8.79376984E-06  2.90911798E-07  3.03342790E-17
 -2.70902739E-06  3.64544855E-07  2.41916997E-16  1.83745860E-05 -6.73863610E-06
  2.38766995E-16  1.91703412E-06  4.49441013E-07 -9.73664819E-17  5.88935863E-08
  3.56373647E-16  4.30266388E-17 -3.02859373E-08  1.41500691E-07 -5.07035081E-07
 -6.08651515E-16  4.34413963E-16  3.87375350E-07 -9.85277495E-07  3.66786556E-06
 -1.67313934E-16 -5.12847997E-16 -5.07530798E-06  2.39332855E-06  3.32393292E-06
 -1.99122353E-16  4.48328261E-16 -4.90199796E-06  4.00086282E-06 -1.76649750E-18
  5.60307812E-08 -1.52078623E-07 -3.02126244E-16  2.40734499E-16  1.93862299E-07
  7.27164394E-07 -3.47969995E-16 -2.04301853E-06  6.88974625E-07  8.83357214E-16
 -1.68596723E-16  1.09974118E-06 -2.88858823E-06  9.99534867E-01  1.95412553E-03
  1.85018095E-04 -4.18200435E-04  7.21469631E-05  7.68649947E-05  1.77772752E-05
 -7.51798810E-05  1.85736188E-16  3.80297336E-05 -1.34806174E-04  9.49149774E-16
 -1.84743929E-05  7.17113707E-05 -4.30184266E-16  2.17349346E-06 -5.74220843E-05
  3.60198637E-15  2.51090146E-06 -1.16182022E-05 -1.82375201E-16 -3.62913532E-06
 -2.66282838E-16  8.32923379E-16 -4.92050331E-06 -3.26871431E-06 -2.87787545E-05
  1.04119739E-15 -2.76113966E-15 -4.38085903E-05 -2.43249780E-05 -6.86311066E-07
  3.11839758E-16 -1.75183138E-15 -1.06478662E-05  1.23933127E-06  9.53763092E-17
 -2.09445678E-06  6.25002785E-06  2.55820764E-16  2.96240608E-17 -4.57344615E-06
  3.93871315E-06 -1.17047635E-15  5.38231360E-07  2.96150710E-06 -1.72692082E-15
 -1.13331602E-15 -4.58953204E-06  7.63357088E-06 -1.78655512E-06 -1.77968641E-05
  6.66649262E-05 -8.07800353E-06  8.20090057E-07 -2.57284992E-06 -9.41788228E-16
 -1.22787631E-05  1.53758664E-05  1.18976083E-14  2.68064607E-06  2.65775089E-05
  5.93043386E-15 -5.24002313E-07 -1.44563204E-15 -8.96760970E-16 -5.74837129E-07
 -9.87744117E-07 -1.65111379E-05 -6.72037133E-15  7.42967065E-16  1.24575120E-05
 -1.15909063E-06  5.56763537E-07  3.57059159E-06  9.92057305E-09  1.13854293E-05
  4.43822868E-05  5.14557116E-08  2.20588399E-08  4.64794531E-16  1.54253654E-06
  7.88482879E-08 -2.54614049E-15 -1.95965137E-05 -1.57890800E-06 -3.08669018E-15
  7.07141914E-06  1.18246507E-06  2.13449393E-15 -1.64021780E-07  1.27479623E-15
  1.22117077E-15  2.11015787E-07  1.38536842E-08  7.73720635E-07 -2.97633829E-15
 -1.44687597E-15 -1.01293251E-06 -2.47339635E-08  6.22541685E-06 -4.23255451E-15
  4.16457308E-15 -1.04675853E-05 -4.72376284E-07  7.40081027E-16 -2.17794570E-07
  7.16502953E-09  2.36838026E-17 -6.68842033E-17  1.31617007E-07 -3.34559496E-08
  9.24705786E-16  1.31298240E-06  4.17621203E-08 -2.46219831E-15 -3.91570065E-16
 -1.26333673E-06  2.10489095E-08 -3.14071391E-01  1.04046688E+00  2.14075017E-02
  4.06273626E-05 -8.14678963E-05 -7.54268409E-05 -1.72013974E-05 -6.68660931E-05
 -7.26456832E-06 -1.97270018E-15 -8.93502432E-06 -5.60600957E-07 -4.54403215E-16
 -1.28658914E-05 -3.78309401E-07 -2.85768549E-15  6.23866034E-06  3.35237052E-07
  1.48823224E-15  4.09577646E-05  2.09793612E-07  4.75062153E-15  2.93020888E-06
  1.74172499E-08 -2.17897783E-15 -8.15913615E-07 -2.63618303E-16  1.15810118E-16
  1.56165973E-06  1.76526537E-07  1.96464683E-08  7.96858443E-16  1.79011690E-16
 -1.37027617E-07 -1.06709547E-07 -1.45418003E-06 -1.80895577E-15 -1.52423172E-16
  2.75754697E-06  2.69725256E-07  6.72994336E-06 -6.47030916E-16  4.17948842E-16
 -1.19533328E-05 -2.27940796E-07  4.85054038E-16  5.72660062E-07  2.20692964E-08
 -1.87687210E-16  3.91909583E-16 -8.12771061E-07 -4.99944427E-08 -1.41167087E-15
 -8.97921033E-07 -2.64882948E-08  1.41074133E-15 -2.33896615E-16  1.24310969E-06
  5.17974471E-09 -1.15533678E-08 -1.81170548E-07 -5.02858056E-07 -8.48879958E-08
  2.55177470E-06 -3.18128548E-06  6.59107398E-08 -1.06746094E-08  1.71465952E-16
  1.14815121E-06  1.69344168E-07  1.00411262E-15 -2.84375704E-07  3.37956602E-08
 -5.10775608E-16 -2.78894823E-07 -1.56379224E-06 -4.78358579E-15 -3.89628383E-07
  1.02690037E-06  1.30753537E-16 -1.10466597E-07 -4.19538808E-16  2.67086606E-16