 Entering Gaussian System, Link 0=g09
 Input=ihocl_rOH_100_sp.gjf
 Output=ihocl_rOH_100_sp.log
 Initial command:
 /usr/local/gaussian/g09/l1.exe "/scratch/Gau-26035.inp" -scrdir="/scratch/"
 Entering Link 1 = /usr/local/gaussian/g09/l1.exe PID=     26036.
  
 Copyright (c) 1988,1990,1992,1993,1995,1998,2003,2009,2015,
            Gaussian, Inc.  All Rights Reserved.
  
 This is part of the Gaussian(R) 09 program.  It is based on
 the Gaussian(R) 03 system (copyright 2003, Gaussian, Inc.),
 the Gaussian(R) 98 system (copyright 1998, Gaussian, Inc.),
 the Gaussian(R) 94 system (copyright 1995, Gaussian, Inc.),
 the Gaussian 92(TM) system (copyright 1992, Gaussian, Inc.),
 the Gaussian 90(TM) system (copyright 1990, Gaussian, Inc.),
 the Gaussian 88(TM) system (copyright 1988, Gaussian, Inc.),
 the Gaussian 86(TM) system (copyright 1986, Carnegie Mellon
 University), and the Gaussian 82(TM) system (copyright 1983,
 Carnegie Mellon University). Gaussian is a federally registered
 trademark of Gaussian, Inc.
  
 This software contains proprietary and confidential information,
 including trade secrets, belonging to Gaussian, Inc.
  
 This software is provided under written license and may be
 used, copied, transmitted, or stored only in accord with that
 written license.
  
 The following legend is applicable only to US Government
 contracts under FAR:
  
                    RESTRICTED RIGHTS LEGEND
  
 Use, reproduction and disclosure by the US Government is
 subject to restrictions as set forth in subparagraphs (a)
 and (c) of the Commercial Computer Software - Restricted
 Rights clause in FAR 52.227-19.
  
 Gaussian, Inc.
 340 Quinnipiac St., Bldg. 40, Wallingford CT 06492
  
  
 ---------------------------------------------------------------
 Warning -- This program may not be used in any manner that
 competes with the business of Gaussian, Inc. or will provide
 assistance to any competitor of Gaussian, Inc.  The licensee
 of this program is prohibited from giving any competitor of
 Gaussian, Inc. access to this program.  By using this program,
 the user acknowledges that Gaussian, Inc. is engaged in the
 business of creating and licensing software in the field of
 computational chemistry and represents and warrants to the
 licensee that it is not a competitor of Gaussian, Inc. and that
 it will not use this program in any manner prohibited above.
 ---------------------------------------------------------------
  

 Cite this work as:
 Gaussian 09, Revision E.01,
 M. J. Frisch, G. W. Trucks, H. B. Schlegel, G. E. Scuseria, 
 M. A. Robb, J. R. Cheeseman, G. Scalmani, V. Barone, B. Mennucci, 
 G. A. Petersson, H. Nakatsuji, M. Caricato, X. Li, H. P. Hratchian, 
 A. F. Izmaylov, J. Bloino, G. Zheng, J. L. Sonnenberg, M. Hada, 
 M. Ehara, K. Toyota, R. Fukuda, J. Hasegawa, M. Ishida, T. Nakajima, 
 Y. Honda, O. Kitao, H. Nakai, T. Vreven, J. A. Montgomery, Jr., 
 J. E. Peralta, F. Ogliaro, M. Bearpark, J. J. Heyd, E. Brothers, 
 K. N. Kudin, V. N. Staroverov, T. Keith, R. Kobayashi, J. Normand, 
 K. Raghavachari, A. Rendell, J. C. Burant, S. S. Iyengar, J. Tomasi, 
 M. Cossi, N. Rega, J. M. Millam, M. Klene, J. E. Knox, J. B. Cross, 
 V. Bakken, C. Adamo, J. Jaramillo, R. Gomperts, R. E. Stratmann, 
 O. Yazyev, A. J. Austin, R. Cammi, C. Pomelli, J. W. Ochterski, 
 R. L. Martin, K. Morokuma, V. G. Zakrzewski, G. A. Voth, 
 P. Salvador, J. J. Dannenberg, S. Dapprich, A. D. Daniels, 
 O. Farkas, J. B. Foresman, J. V. Ortiz, J. Cioslowski, 
 and D. J. Fox, Gaussian, Inc., Wallingford CT, 2013.
 
 ******************************************
 Gaussian 09:  ES64L-G09RevE.01 30-Nov-2015
                12-Oct-2021 
 ******************************************
 %nproc=12
 Will use up to   12 processors via shared memory.
 %mem=8000MB
 %chk=/home/netid.washington.edu/cgavinh/mccoy_hocl/rOH_s_oop_0/ihocl/ihocl_rOH_1
 00_sp.chk
 --------------------------------------------------------
 #p pop=NBO SP NoSymm mp2/gen Pseudo=read density=current
 --------------------------------------------------------
 1/30=1,38=1/1;
 2/12=2,15=1,17=6,18=5,40=1/2;
 3/5=7,11=9,16=1,17=8,25=1,30=1,71=1/1,2,3;
 4//1;
 5/5=2,38=5/2;
 8/6=4,10=1/1;
 9/15=1,16=-3/6;
 10/5=1,13=10,31=1/2;
 6/7=2,8=2,9=2,10=2,22=-1,40=1/1,7;
 99/5=1,9=1/99;
 Leave Link    1 at Tue Oct 12 15:35:10 2021, MaxMem=  1048576000 cpu:         0.2
 (Enter /usr/local/gaussian/g09/l101.exe)
 -----
 title
 -----
 Symbolic Z-matrix:
 Charge = -1 Multiplicity = 1
 O
 X                    1     10. 
 Cl                   1    r1       2     90. 
 I                    1    r2       2     90.      3    a1       0
 H                    1    r3       2    oop      3    a1       0
       Variables:
  r1                    1.68652                  
  r2                    3.3123                   
  r3                    1.                       
  a1                  103.2454                   
  OOP                  90.                       
 
 NAtoms=      4 NQM=        4 NQMF=       0 NMMI=      0 NMMIF=      0
                NMic=       0 NMicF=      0.
                    Isotopes and Nuclear Properties:
 (Nuclear quadrupole moments (NQMom) in fm**2, nuclear magnetic moments (NMagM)
  in nuclear magnetons)

  Atom         1           2           3           4
 IAtWgt=          16          35         127           1
 AtmWgt=  15.9949146  34.9688527 126.9004000   1.0078250
 NucSpn=           0           3           5           1
 AtZEff=   0.0000000   0.0000000   0.0000000   0.0000000
 NQMom=    0.0000000  -8.1650000 -71.0000000   0.0000000
 NMagM=    0.0000000   0.8218740   2.8132800   2.7928460
 AtZNuc=   8.0000000  17.0000000  53.0000000   1.0000000
 Leave Link  101 at Tue Oct 12 15:35:10 2021, MaxMem=  1048576000 cpu:         0.4
 (Enter /usr/local/gaussian/g09/l202.exe)
                          Input orientation:                          
 ---------------------------------------------------------------------
 Center     Atomic      Atomic             Coordinates (Angstroms)
 Number     Number       Type             X           Y           Z
 ---------------------------------------------------------------------
      1          8           0        0.000000    0.000000    0.000000
      2         17           0        1.686522    0.000000    0.000000
      3         53           0       -0.758922   -3.224184    0.000000
      4          1           0       -0.229122   -0.973398    0.000000
 ---------------------------------------------------------------------
                    Distance matrix (angstroms):
                    1          2          3          4
     1  O    0.000000
     2  Cl   1.686522   0.000000
     3  I    3.312299   4.046673   0.000000
     4  H    1.000000   2.148766   2.312299   0.000000
 Symmetry turned off by external request.
 Stoichiometry    ClHIO(1-)
 Framework group  CS[SG(ClHIO)]
 Deg. of freedom     5
 Full point group                 CS      NOp   2
 Rotational constants (GHZ):     21.7679644      0.9695473      0.9282049
 Leave Link  202 at Tue Oct 12 15:35:10 2021, MaxMem=  1048576000 cpu:         0.0
 (Enter /usr/local/gaussian/g09/l301.exe)
 General basis read from cards:  (5D, 7F)
 Centers:       4      1      2
 aug-cc-pVTZ
 ****
 Centers:       3
 S 11 1.00
     Exponent=  5.5465000000D+03 Coefficients=  1.5600000000D-04
     Exponent=  8.3821400000D+02 Coefficients=  9.8600000000D-04
     Exponent=  1.8218700000D+02 Coefficients=  2.7920000000D-03
     Exponent=  3.1212300000D+01 Coefficients= -4.3251000000D-02
     Exponent=  1.9531400000D+01 Coefficients=  2.3413400000D-01
     Exponent=  8.2409900000D+00 Coefficients= -7.5094300000D-01
     Exponent=  2.1945500000D+00 Coefficients=  8.8296800000D-01
     Exponent=  1.1091100000D+00 Coefficients=  4.6206100000D-01
     Exponent=  3.7464100000D-01 Coefficients=  2.2286000000D-02
     Exponent=  1.7708000000D-01 Coefficients= -4.3530000000D-03
     Exponent=  8.1061000000D-02 Coefficients=  1.1020000000D-03
 S 11 1.00
     Exponent=  5.5465000000D+03 Coefficients= -7.3000000000D-05
     Exponent=  8.3821400000D+02 Coefficients= -5.0800000000D-04
     Exponent=  1.8218700000D+02 Coefficients= -1.1580000000D-03
     Exponent=  3.1212300000D+01 Coefficients=  1.2193000000D-02
     Exponent=  1.9531400000D+01 Coefficients= -8.7854000000D-02
     Exponent=  8.2409900000D+00 Coefficients=  3.3820000000D-01
     Exponent=  2.1945500000D+00 Coefficients= -5.7655000000D-01
     Exponent=  1.1091100000D+00 Coefficients= -4.0929800000D-01
     Exponent=  3.7464100000D-01 Coefficients=  5.6745900000D-01
     Exponent=  1.7708000000D-01 Coefficients=  6.1248900000D-01
     Exponent=  8.1061000000D-02 Coefficients=  1.4323100000D-01
 S 1 1.00
     Exponent=  3.7464100000D-01 Coefficients=  1.0000000000D+00
 S 1 1.00
     Exponent=  1.7708000000D-01 Coefficients=  1.0000000000D+00
 S 1 1.00
     Exponent=  1.0010000000D-01 Coefficients=  1.0000000000D+00
 S 1 1.00
     Exponent=  4.1200000000D-02 Coefficients=  1.0000000000D+00
 P 9 1.00
     Exponent=  1.8898800000D+02 Coefficients=  5.8500000000D-04
     Exponent=  2.1286800000D+01 Coefficients=  3.6923000000D-02
     Exponent=  1.0039600000D+01 Coefficients= -2.3532400000D-01
     Exponent=  3.4518000000D+00 Coefficients=  3.4148300000D-01
     Exponent=  1.9745600000D+00 Coefficients=  5.3478800000D-01
     Exponent=  1.0242000000D+00 Coefficients=  2.6514100000D-01
     Exponent=  4.4943700000D-01 Coefficients=  2.5787000000D-02
     Exponent=  1.8664800000D-01 Coefficients=  5.2200000000D-04
     Exponent=  7.3481000000D-02 Coefficients=  6.0600000000D-04
 P 9 1.00
     Exponent=  1.8898800000D+02 Coefficients= -2.5600000000D-04
     Exponent=  2.1286800000D+01 Coefficients= -1.1682000000D-02
     Exponent=  1.0039600000D+01 Coefficients=  8.3192000000D-02
     Exponent=  3.4518000000D+00 Coefficients= -1.5697000000D-01
     Exponent=  1.9745600000D+00 Coefficients= -2.2451800000D-01
     Exponent=  1.0242000000D+00 Coefficients= -1.1445100000D-01
     Exponent=  4.4943700000D-01 Coefficients=  3.7535600000D-01
     Exponent=  1.8664800000D-01 Coefficients=  5.7513600000D-01
     Exponent=  7.3481000000D-02 Coefficients=  2.4591700000D-01
 P 1 1.00
     Exponent=  5.9810000000D-01 Coefficients=  1.0000000000D+00
 P 1 1.00
     Exponent=  9.6180000000D-02 Coefficients=  1.0000000000D+00
 P 1 1.00
     Exponent=  3.5900000000D-02 Coefficients=  1.0000000000D+00
 D 9 1.00
     Exponent=  1.3266200000D+02 Coefficients=  5.7200000000D-04
     Exponent=  3.7605400000D+01 Coefficients=  4.4020000000D-03
     Exponent=  1.0389100000D+01 Coefficients= -4.0922000000D-02
     Exponent=  6.4901700000D+00 Coefficients=  9.9661000000D-02
     Exponent=  3.4545100000D+00 Coefficients=  3.2266300000D-01
     Exponent=  1.8441300000D+00 Coefficients=  4.0034300000D-01
     Exponent=  9.6247800000D-01 Coefficients=  2.6830600000D-01
     Exponent=  4.7285300000D-01 Coefficients=  8.4847000000D-02
     Exponent=  1.9320000000D-01 Coefficients=  7.6320000000D-03
 D 1 1.00
     Exponent=  4.7285300000D-01 Coefficients=  1.0000000000D+00
 D 1 1.00
     Exponent=  1.9320000000D-01 Coefficients=  1.0000000000D+00
 D 1 1.00
     Exponent=  7.8200000000D-02 Coefficients=  1.0000000000D+00
 F 1 1.00
     Exponent=  4.0640000000D-01 Coefficients=  1.0000000000D+00
 F 1 1.00
     Exponent=  1.8480000000D-01 Coefficients=  1.0000000000D+00
 ****
 ======================================================================================================
                                       Pseudopotential Parameters
 ======================================================================================================
  Center     Atomic      Valence      Angular      Power
  Number     Number     Electrons     Momentum     of R      Exponent        Coefficient   SO-Coeffient
 ======================================================================================================
    1          8
                                   No pseudopotential on this center.
    2         17
                                   No pseudopotential on this center.
    3         53           25
                                      G and up 
                                                     2        1.0000000        0.00000000    0.00000000
                                      S - G
                                                     2       40.0333760       49.98964900    0.00000000
                                                     2       17.3005760      281.00655600    0.00000000
                                                     2        8.8517200       61.41673900    0.00000000
                                      P - G
                                                     2       15.7201410       67.41623900    0.00000000
                                                     2       15.2082220      134.80769600    0.00000000
                                                     2        8.2941860       14.56654800    0.00000000
                                                     2        7.7539490       28.96842200    0.00000000
                                      D - G
                                                     2       13.8177510       35.53875600    0.00000000
                                                     2       13.5878050       53.33975900    0.00000000
                                                     2        6.9476300        9.71646600    0.00000000
                                                     2        6.9600990       14.97750000    0.00000000
                                      F - G
                                                     2       18.5229500      -20.17661800    0.00000000
                                                     2       18.2510350      -26.08807700    0.00000000
                                                     2        7.5579010       -0.22043400    0.00000000
                                                     2        7.5974040       -0.22164600    0.00000000
    4          1
                                   No pseudopotential on this center.
 ======================================================================================================
 Ernie: Thresh=  0.10000D-02 Tol=  0.10000D-05 Strict=F.
 Ernie:  23 primitive shells out of 166 were deleted.
   174 basis functions,   383 primitive gaussians,   204 cartesian basis functions
    26 alpha electrons       26 beta electrons
       nuclear repulsion energy       144.3427033804 Hartrees.
 IExCor=    0 DFT=F Ex=HF Corr=None ExCW=0 ScaHFX=  1.000000
 ScaDFX=  1.000000  1.000000  1.000000  1.000000 ScalE2=  1.000000  1.000000
 IRadAn=      0 IRanWt=     -1 IRanGd=            0 ICorTp=0 IEmpDi=  4
 NAtoms=    4 NActive=    4 NUniq=    4 SFac= 1.00D+00 NAtFMM=   60 NAOKFM=F Big=F
 Integral buffers will be    131072 words long.
 Raffenetti 1 integral format.
 Two-electron integral symmetry is turned off.
 Leave Link  301 at Tue Oct 12 15:35:10 2021, MaxMem=  1048576000 cpu:         0.6
 (Enter /usr/local/gaussian/g09/l302.exe)
 NPDir=0 NMtPBC=     1 NCelOv=     1 NCel=       1 NClECP=     1 NCelD=      1
         NCelK=      1 NCelE2=     1 NClLst=     1 CellRange=     0.0.
 One-electron integrals computed using PRISM.
   1 Symmetry operations used in ECPInt.
 ECPInt:  NShTT=    1596 NPrTT=   10643 LenC2=    1597 LenP2D=    8416.
 LDataN:  DoStor=T MaxTD1= 7 Len=  274
 NBasis=   174 RedAO= T EigKep=  2.21D-04  NBF=   174
 NBsUse=   174 1.00D-06 EigRej= -1.00D+00 NBFU=   174
 Leave Link  302 at Tue Oct 12 15:35:10 2021, MaxMem=  1048576000 cpu:         2.8
 (Enter /usr/local/gaussian/g09/l303.exe)
 DipDrv:  MaxL=1.
 Leave Link  303 at Tue Oct 12 15:35:10 2021, MaxMem=  1048576000 cpu:         0.2
 (Enter /usr/local/gaussian/g09/l401.exe)
 ExpMin= 2.53D-02 ExpMax= 4.56D+05 ExpMxC= 1.44D+03 IAcc=3 IRadAn=         5 AccDes= 0.00D+00
 Harris functional with IExCor=  205 and IRadAn=       5 diagonalized for initial guess.
 HarFok:  IExCor=  205 AccDes= 0.00D+00 IRadAn=         5 IDoV= 1 UseB2=F ITyADJ=14
 ICtDFT=  3500011 ScaDFX=  1.000000  1.000000  1.000000  1.000000
 Defaulting to unpruned grid for atomic number  53.
 Defaulting to unpruned grid for atomic number  53.
 Defaulting to unpruned grid for atomic number  53.
 Defaulting to unpruned grid for atomic number  53.
 Defaulting to unpruned grid for atomic number  53.
 Defaulting to unpruned grid for atomic number  53.
 Defaulting to unpruned grid for atomic number  53.
 Defaulting to unpruned grid for atomic number  53.
 Defaulting to unpruned grid for atomic number  53.
 Defaulting to unpruned grid for atomic number  53.
 Defaulting to unpruned grid for atomic number  53.
 Defaulting to unpruned grid for atomic number  53.
 FoFCou: FMM=F IPFlag=           0 FMFlag=      100000 FMFlg1=           0
         NFxFlg=           0 DoJE=T BraDBF=F KetDBF=T FulRan=T
         wScrn=  0.000000 ICntrl=     500 IOpCl=  0 I1Cent=   200000004 NGrid=           0
         NMat0=    1 NMatS0=      1 NMatT0=    0 NMatD0=    1 NMtDS0=    0 NMtDT0=    0
 Symmetry not used in FoFCou.
 Harris En= -831.057773430959    
 JPrj=0 DoOrth=F DoCkMO=F.
 Leave Link  401 at Tue Oct 12 15:35:11 2021, MaxMem=  1048576000 cpu:         3.1
 (Enter /usr/local/gaussian/g09/l502.exe)
 Closed shell SCF:
 Using DIIS extrapolation, IDIIS=  1040.
 Two-electron integral symmetry not used.
 Keep R1 ints in memory in canonical form, NReq=124441393.
 IVT=      147078 IEndB=      147078 NGot=  1048576000 MDV=   932520998
 LenX=   932520998 LenY=   932478941
 Requested convergence on RMS density matrix=1.00D-08 within 128 cycles.
 Requested convergence on MAX density matrix=1.00D-06.
 Requested convergence on             energy=1.00D-06.
 No special actions if energy rises.
 FoFCou: FMM=F IPFlag=           0 FMFlag=           0 FMFlg1=           0
         NFxFlg=           0 DoJE=F BraDBF=F KetDBF=F FulRan=T
         wScrn=  0.000000 ICntrl=     600 IOpCl=  0 I1Cent=           0 NGrid=           0
         NMat0=    1 NMatS0=  15225 NMatT0=    0 NMatD0=    1 NMtDS0=    0 NMtDT0=    0
 Symmetry not used in FoFCou.

 Cycle   1  Pass 1  IDiag  1:
 E= -829.532873589281    
 DIIS: error= 2.86D-02 at cycle   1 NSaved=   1.
 NSaved= 1 IEnMin= 1 EnMin= -829.532873589281     IErMin= 1 ErrMin= 2.86D-02
 ErrMax= 2.86D-02  0.00D+00 EMaxC= 1.00D-01 BMatC= 4.53D-01 BMatP= 4.53D-01
 IDIUse=3 WtCom= 7.14D-01 WtEn= 2.86D-01
 Coeff-Com:  0.100D+01
 Coeff-En:   0.100D+01
 Coeff:      0.100D+01
 Gap=     0.407 Goal=   None    Shift=    0.000
 GapD=    0.407 DampG=2.000 DampE=0.500 DampFc=1.0000 IDamp=-1.
 RMSDP=3.66D-03 MaxDP=1.07D-01              OVMax= 1.18D-01

 Cycle   2  Pass 1  IDiag  1:
 E= -829.650158649697     Delta-E=       -0.117285060416 Rises=F Damp=F
 DIIS: error= 2.25D-02 at cycle   2 NSaved=   2.
 NSaved= 2 IEnMin= 2 EnMin= -829.650158649697     IErMin= 2 ErrMin= 2.25D-02
 ErrMax= 2.25D-02  0.00D+00 EMaxC= 1.00D-01 BMatC= 5.40D-02 BMatP= 4.53D-01
 IDIUse=3 WtCom= 7.75D-01 WtEn= 2.25D-01
 Coeff-Com:  0.194D+00 0.806D+00
 Coeff-En:   0.000D+00 0.100D+01
 Coeff:      0.150D+00 0.850D+00
 Gap=     0.308 Goal=   None    Shift=    0.000
 RMSDP=1.58D-03 MaxDP=7.65D-02 DE=-1.17D-01 OVMax= 7.81D-02

 Cycle   3  Pass 1  IDiag  1:
 E= -829.676289090080     Delta-E=       -0.026130440384 Rises=F Damp=F
 DIIS: error= 1.04D-02 at cycle   3 NSaved=   3.
 NSaved= 3 IEnMin= 3 EnMin= -829.676289090080     IErMin= 3 ErrMin= 1.04D-02
 ErrMax= 1.04D-02  0.00D+00 EMaxC= 1.00D-01 BMatC= 1.38D-02 BMatP= 5.40D-02
 IDIUse=3 WtCom= 8.96D-01 WtEn= 1.04D-01
 Coeff-Com: -0.155D-02 0.328D+00 0.673D+00
 Coeff-En:   0.000D+00 0.113D+00 0.887D+00
 Coeff:     -0.139D-02 0.306D+00 0.696D+00
 Gap=     0.304 Goal=   None    Shift=    0.000
 RMSDP=4.16D-04 MaxDP=1.93D-02 DE=-2.61D-02 OVMax= 3.57D-02

 Cycle   4  Pass 1  IDiag  1:
 E= -829.685781059068     Delta-E=       -0.009491968988 Rises=F Damp=F
 DIIS: error= 1.98D-03 at cycle   4 NSaved=   4.
 NSaved= 4 IEnMin= 4 EnMin= -829.685781059068     IErMin= 4 ErrMin= 1.98D-03
 ErrMax= 1.98D-03  0.00D+00 EMaxC= 1.00D-01 BMatC= 2.50D-04 BMatP= 1.38D-02
 IDIUse=3 WtCom= 9.80D-01 WtEn= 1.98D-02
 Coeff-Com: -0.885D-02-0.296D-03 0.114D+00 0.895D+00
 Coeff-En:   0.000D+00 0.000D+00 0.000D+00 0.100D+01
 Coeff:     -0.867D-02-0.290D-03 0.112D+00 0.897D+00
 Gap=     0.307 Goal=   None    Shift=    0.000
 RMSDP=9.39D-05 MaxDP=5.51D-03 DE=-9.49D-03 OVMax= 3.69D-03

 Cycle   5  Pass 1  IDiag  1:
 E= -829.686011349039     Delta-E=       -0.000230289971 Rises=F Damp=F
 DIIS: error= 2.70D-04 at cycle   5 NSaved=   5.
 NSaved= 5 IEnMin= 5 EnMin= -829.686011349039     IErMin= 5 ErrMin= 2.70D-04
 ErrMax= 2.70D-04  0.00D+00 EMaxC= 1.00D-01 BMatC= 1.41D-05 BMatP= 2.50D-04
 IDIUse=3 WtCom= 9.97D-01 WtEn= 2.70D-03
 Coeff-Com:  0.173D-02-0.288D-01-0.591D-01-0.370D-01 0.112D+01
 Coeff-En:   0.000D+00 0.000D+00 0.000D+00 0.000D+00 0.100D+01
 Coeff:      0.172D-02-0.287D-01-0.589D-01-0.369D-01 0.112D+01
 Gap=     0.305 Goal=   None    Shift=    0.000
 RMSDP=4.77D-05 MaxDP=2.14D-03 DE=-2.30D-04 OVMax= 2.69D-03

 Cycle   6  Pass 1  IDiag  1:
 E= -829.686044015914     Delta-E=       -0.000032666875 Rises=F Damp=F
 DIIS: error= 1.38D-04 at cycle   6 NSaved=   6.
 NSaved= 6 IEnMin= 6 EnMin= -829.686044015914     IErMin= 6 ErrMin= 1.38D-04
 ErrMax= 1.38D-04  0.00D+00 EMaxC= 1.00D-01 BMatC= 1.76D-06 BMatP= 1.41D-05
 IDIUse=3 WtCom= 9.99D-01 WtEn= 1.38D-03
 Coeff-Com:  0.114D-03 0.878D-02 0.992D-02-0.964D-01-0.287D+00 0.136D+01
 Coeff-En:   0.000D+00 0.000D+00 0.000D+00 0.000D+00 0.000D+00 0.100D+01
 Coeff:      0.114D-03 0.877D-02 0.991D-02-0.963D-01-0.286D+00 0.136D+01
 Gap=     0.306 Goal=   None    Shift=    0.000
 RMSDP=1.64D-05 MaxDP=5.69D-04 DE=-3.27D-05 OVMax= 1.36D-03

 Cycle   7  Pass 1  IDiag  1:
 E= -829.686049876176     Delta-E=       -0.000005860262 Rises=F Damp=F
 DIIS: error= 3.57D-05 at cycle   7 NSaved=   7.
 NSaved= 7 IEnMin= 7 EnMin= -829.686049876176     IErMin= 7 ErrMin= 3.57D-05
 ErrMax= 3.57D-05  0.00D+00 EMaxC= 1.00D-01 BMatC= 1.40D-07 BMatP= 1.76D-06
 IDIUse=1 WtCom= 1.00D+00 WtEn= 0.00D+00
 Coeff-Com: -0.155D-03 0.828D-03 0.410D-02 0.202D-01-0.608D-01-0.212D+00
 Coeff-Com:  0.125D+01
 Coeff:     -0.155D-03 0.828D-03 0.410D-02 0.202D-01-0.608D-01-0.212D+00
 Coeff:      0.125D+01
 Gap=     0.306 Goal=   None    Shift=    0.000
 RMSDP=5.08D-06 MaxDP=1.58D-04 DE=-5.86D-06 OVMax= 4.53D-04

 Cycle   8  Pass 1  IDiag  1:
 E= -829.686050447439     Delta-E=       -0.000000571263 Rises=F Damp=F
 DIIS: error= 1.07D-05 at cycle   8 NSaved=   8.
 NSaved= 8 IEnMin= 8 EnMin= -829.686050447439     IErMin= 8 ErrMin= 1.07D-05
 ErrMax= 1.07D-05  0.00D+00 EMaxC= 1.00D-01 BMatC= 1.96D-08 BMatP= 1.40D-07
 IDIUse=1 WtCom= 1.00D+00 WtEn= 0.00D+00
 Coeff-Com: -0.131D-04-0.128D-02-0.107D-02 0.140D-01 0.343D-01-0.193D+00
 Coeff-Com:  0.572D-01 0.109D+01
 Coeff:     -0.131D-04-0.128D-02-0.107D-02 0.140D-01 0.343D-01-0.193D+00
 Coeff:      0.572D-01 0.109D+01
 Gap=     0.306 Goal=   None    Shift=    0.000
 RMSDP=1.80D-06 MaxDP=4.51D-05 DE=-5.71D-07 OVMax= 1.76D-04

 Cycle   9  Pass 1  IDiag  1:
 E= -829.686050514051     Delta-E=       -0.000000066612 Rises=F Damp=F
 DIIS: error= 4.31D-06 at cycle   9 NSaved=   9.
 NSaved= 9 IEnMin= 9 EnMin= -829.686050514051     IErMin= 9 ErrMin= 4.31D-06
 ErrMax= 4.31D-06  0.00D+00 EMaxC= 1.00D-01 BMatC= 2.02D-09 BMatP= 1.96D-08
 IDIUse=1 WtCom= 1.00D+00 WtEn= 0.00D+00
 Coeff-Com:  0.161D-04 0.300D-03-0.604D-04-0.709D-02-0.382D-02 0.830D-01
 Coeff-Com: -0.128D+00-0.427D+00 0.148D+01
 Coeff:      0.161D-04 0.300D-03-0.604D-04-0.709D-02-0.382D-02 0.830D-01
 Coeff:     -0.128D+00-0.427D+00 0.148D+01
 Gap=     0.306 Goal=   None    Shift=    0.000
 RMSDP=8.16D-07 MaxDP=2.76D-05 DE=-6.66D-08 OVMax= 8.67D-05

 Cycle  10  Pass 1  IDiag  1:
 E= -829.686050523980     Delta-E=       -0.000000009929 Rises=F Damp=F
 DIIS: error= 1.39D-06 at cycle  10 NSaved=  10.
 NSaved=10 IEnMin=10 EnMin= -829.686050523980     IErMin=10 ErrMin= 1.39D-06
 ErrMax= 1.39D-06  0.00D+00 EMaxC= 1.00D-01 BMatC= 2.13D-10 BMatP= 2.02D-09
 IDIUse=1 WtCom= 1.00D+00 WtEn= 0.00D+00
 Coeff-Com: -0.311D-05 0.483D-04 0.107D-03 0.736D-03-0.257D-02-0.271D-02
 Coeff-Com:  0.301D-01-0.692D-03-0.387D+00 0.136D+01
 Coeff:     -0.311D-05 0.483D-04 0.107D-03 0.736D-03-0.257D-02-0.271D-02
 Coeff:      0.301D-01-0.692D-03-0.387D+00 0.136D+01
 Gap=     0.306 Goal=   None    Shift=    0.000
 RMSDP=2.51D-07 MaxDP=7.01D-06 DE=-9.93D-09 OVMax= 2.96D-05

 Cycle  11  Pass 1  IDiag  1:
 E= -829.686050525064     Delta-E=       -0.000000001085 Rises=F Damp=F
 DIIS: error= 5.91D-07 at cycle  11 NSaved=  11.
 NSaved=11 IEnMin=11 EnMin= -829.686050525064     IErMin=11 ErrMin= 5.91D-07
 ErrMax= 5.91D-07  0.00D+00 EMaxC= 1.00D-01 BMatC= 2.38D-11 BMatP= 2.13D-10
 IDIUse=1 WtCom= 1.00D+00 WtEn= 0.00D+00
 Coeff-Com: -0.212D-05-0.392D-04 0.396D-05 0.874D-03 0.494D-03-0.104D-01
 Coeff-Com:  0.149D-01 0.519D-01-0.161D+00-0.142D+00 0.125D+01
 Coeff:     -0.212D-05-0.392D-04 0.396D-05 0.874D-03 0.494D-03-0.104D-01
 Coeff:      0.149D-01 0.519D-01-0.161D+00-0.142D+00 0.125D+01
 Gap=     0.306 Goal=   None    Shift=    0.000
 RMSDP=9.47D-08 MaxDP=2.64D-06 DE=-1.08D-09 OVMax= 1.03D-05

 Cycle  12  Pass 1  IDiag  1:
 E= -829.686050525181     Delta-E=       -0.000000000117 Rises=F Damp=F
 DIIS: error= 1.55D-07 at cycle  12 NSaved=  12.
 NSaved=12 IEnMin=12 EnMin= -829.686050525181     IErMin=12 ErrMin= 1.55D-07
 ErrMax= 1.55D-07  0.00D+00 EMaxC= 1.00D-01 BMatC= 1.41D-12 BMatP= 2.38D-11
 IDIUse=1 WtCom= 1.00D+00 WtEn= 0.00D+00
 Coeff-Com:  0.323D-06-0.360D-05-0.109D-04-0.860D-04 0.250D-03 0.480D-03
 Coeff-Com: -0.292D-02-0.237D-02 0.385D-01-0.894D-01-0.111D+00 0.117D+01
 Coeff:      0.323D-06-0.360D-05-0.109D-04-0.860D-04 0.250D-03 0.480D-03
 Coeff:     -0.292D-02-0.237D-02 0.385D-01-0.894D-01-0.111D+00 0.117D+01
 Gap=     0.306 Goal=   None    Shift=    0.000
 RMSDP=2.56D-08 MaxDP=1.30D-06 DE=-1.17D-10 OVMax= 1.90D-06

 Cycle  13  Pass 1  IDiag  1:
 E= -829.686050525184     Delta-E=       -0.000000000003 Rises=F Damp=F
 DIIS: error= 4.34D-08 at cycle  13 NSaved=  13.
 NSaved=13 IEnMin=13 EnMin= -829.686050525184     IErMin=13 ErrMin= 4.34D-08
 ErrMax= 4.34D-08  0.00D+00 EMaxC= 1.00D-01 BMatC= 1.46D-13 BMatP= 1.41D-12
 IDIUse=1 WtCom= 1.00D+00 WtEn= 0.00D+00
 Coeff-Com:  0.180D-06 0.330D-05-0.549D-06-0.644D-04-0.509D-04 0.799D-03
 Coeff-Com: -0.101D-02-0.393D-02 0.976D-02 0.228D-01-0.111D+00-0.798D-01
 Coeff-Com:  0.116D+01
 Coeff:      0.180D-06 0.330D-05-0.549D-06-0.644D-04-0.509D-04 0.799D-03
 Coeff:     -0.101D-02-0.393D-02 0.976D-02 0.228D-01-0.111D+00-0.798D-01
 Coeff:      0.116D+01
 Gap=     0.306 Goal=   None    Shift=    0.000
 RMSDP=8.31D-09 MaxDP=5.10D-07 DE=-2.96D-12 OVMax= 5.69D-07

 SCF Done:  E(RHF) =  -829.686050525     A.U. after   13 cycles
            NFock= 13  Conv=0.83D-08     -V/T= 2.2850
 KE= 6.456560667432D+02 PE=-2.197051502834D+03 EE= 5.773666821850D+02
 Leave Link  502 at Tue Oct 12 15:35:14 2021, MaxMem=  1048576000 cpu:        17.3
 (Enter /usr/local/gaussian/g09/l801.exe)
 ExpMin= 2.53D-02 ExpMax= 4.56D+05 ExpMxC= 1.44D+03 IAcc=3 IRadAn=         5 AccDes= 0.00D+00
 HarFok:  IExCor=  205 AccDes= 0.00D+00 IRadAn=         5 IDoV=-2 UseB2=F ITyADJ=14
 ICtDFT= 12500011 ScaDFX=  1.000000  1.000000  1.000000  1.000000
 Defaulting to unpruned grid for atomic number  53.
 Defaulting to unpruned grid for atomic number  53.
 Defaulting to unpruned grid for atomic number  53.
 Defaulting to unpruned grid for atomic number  53.
 Defaulting to unpruned grid for atomic number  53.
 Defaulting to unpruned grid for atomic number  53.
 Defaulting to unpruned grid for atomic number  53.
 Defaulting to unpruned grid for atomic number  53.
 Defaulting to unpruned grid for atomic number  53.
 Defaulting to unpruned grid for atomic number  53.
 Defaulting to unpruned grid for atomic number  53.
 Defaulting to unpruned grid for atomic number  53.
 Largest valence mixing into a core orbital is  4.48D-04
 Largest core mixing into a valence orbital is  1.59D-04
 Range of M.O.s used for correlation:    11   174
 NBasis=   174 NAE=    26 NBE=    26 NFC=    10 NFV=     0
 NROrb=    164 NOA=    16 NOB=    16 NVA=   148 NVB=   148

 **** Warning!!: The largest alpha MO coefficient is  0.19675133D+02

 Leave Link  801 at Tue Oct 12 15:35:14 2021, MaxMem=  1048576000 cpu:         0.8
 (Enter /usr/local/gaussian/g09/l906.exe)
 Frozen-core derivative calculation, NFC=  10 NFV=   0.
 FulOut=F Deriv=T AODrv=F NAtomX=     4
   MMem=         239  MDisk=          16 MDiskD=          16
  W3Min=      922896 MinDsk=     1491158 NBas6D=         204
 NBas2D=       21411    NTT=       20910    LW2=    26219120
    MDV=  1048172203 MDiskM=       25641 NBas2p=       21407
 Fully in-core method, ICMem=   539113593.
 IMap=   1   2   3   4   5   6   7   8   9  10  11  12  13  14  15  16  17  18  19  20
 IMap=  21  22  23  24  25  26
 JobTyp=1 Pass  1 fully in-core, NPsUse= 12.
 Compute canonical integrals.
 FoFCou: FMM=F IPFlag=           0 FMFlag=           0 FMFlg1=           0
         NFxFlg=           0 DoJE=F BraDBF=F KetDBF=F FulRan=T
         wScrn=  0.000000 ICntrl=     600 IOpCl=  1 I1Cent=           0 NGrid=           0
         NMat0=    1 NMatS0=  21411 NMatT0=    0 NMatD0=    1 NMtDS0=    0 NMtDT0=    0
 Symmetry not used in FoFCou.
 Spin components of T(2) and E(2):
     alpha-alpha T2 =       0.3142437016D-01 E2=     -0.9168000691D-01
     alpha-beta  T2 =       0.1657990622D+00 E2=     -0.4989966437D+00
     beta-beta   T2 =       0.3142437016D-01 E2=     -0.9168000691D-01
 The integrals were generated   1 times.
 ANorm=    0.1108443865D+01
 E2 =    -0.6823566575D+00 EUMP2 =    -0.83036840718268D+03
 Leave Link  906 at Tue Oct 12 15:35:22 2021, MaxMem=  1048576000 cpu:       104.3
 (Enter /usr/local/gaussian/g09/l1002.exe)
 Minotr:  Closed shell wavefunction.
          Computing MP2/KS-MP2 derivatives.
          Using Z-Vector for PSCF gradient.
          Skipping F1 and S1 gradient terms here.
          Frozen-core window.
          Direct CPHF calculation.
          Differentiating once with respect to electric field.
                with respect to dipole field.
          Electric field/nuclear overlap derivatives assumed to be zero.
          Requested convergence is 1.0D-10 RMS, and 1.0D-09 maximum.
          NewPWx=F KeepS1=T KeepF1=T KeepIn=T MapXYZ=F SortEE=F KeepMc=T.
          MDV=    1048575800 using IRadAn=       0.
 Keep R1 ints in memory in canonical form, NReq=124351832.
 FoFCou: FMM=F IPFlag=           0 FMFlag=           0 FMFlg1=           0
         NFxFlg=           0 DoJE=F BraDBF=F KetDBF=F FulRan=T
         wScrn=  0.000000 ICntrl=     600 IOpCl=  0 I1Cent=           0 NGrid=           0
         NMat0=    1 NMatS0=  15225 NMatT0=    0 NMatD0=    1 NMtDS0=    0 NMtDT0=    0
 Symmetry not used in FoFCou.
          Solving linear equations separately, MaxMat=       0.
          There are     1 degrees of freedom in the 1st order CPHF.  IDoFFX=0 NUNeed=     1.
 LinEq1:  Iter=  0 NonCon=     1 RMS=2.89D-03 Max=4.54D-02 NDo=     1
 AX will form     1 AO Fock derivatives at one time.
 LinEq1:  Iter=  1 NonCon=     1 RMS=4.53D-04 Max=5.13D-03 NDo=     1
 LinEq1:  Iter=  2 NonCon=     1 RMS=2.00D-04 Max=3.65D-03 NDo=     1
 LinEq1:  Iter=  3 NonCon=     1 RMS=6.13D-05 Max=9.74D-04 NDo=     1
 LinEq1:  Iter=  4 NonCon=     1 RMS=2.86D-05 Max=8.12D-04 NDo=     1
 LinEq1:  Iter=  5 NonCon=     1 RMS=7.68D-06 Max=1.20D-04 NDo=     1
 LinEq1:  Iter=  6 NonCon=     1 RMS=1.88D-06 Max=2.21D-05 NDo=     1
 LinEq1:  Iter=  7 NonCon=     1 RMS=4.41D-07 Max=8.34D-06 NDo=     1
 LinEq1:  Iter=  8 NonCon=     1 RMS=1.07D-07 Max=2.25D-06 NDo=     1
 LinEq1:  Iter=  9 NonCon=     1 RMS=3.29D-08 Max=6.17D-07 NDo=     1
 LinEq1:  Iter= 10 NonCon=     1 RMS=9.62D-09 Max=1.66D-07 NDo=     1
 LinEq1:  Iter= 11 NonCon=     1 RMS=2.11D-09 Max=4.36D-08 NDo=     1
 LinEq1:  Iter= 12 NonCon=     1 RMS=4.91D-10 Max=8.88D-09 NDo=     1
 LinEq1:  Iter= 13 NonCon=     1 RMS=1.40D-10 Max=2.81D-09 NDo=     1
 LinEq1:  Iter= 14 NonCon=     0 RMS=2.68D-11 Max=3.61D-10 NDo=     1
 Linear equations converged to 1.000D-10 1.000D-09 after    14 iterations.
 End of Minotr F.D. properties file   721 does not exist.
 End of Minotr F.D. properties file   722 does not exist.
 End of Minotr F.D. properties file   788 does not exist.
 Leave Link 1002 at Tue Oct 12 15:35:26 2021, MaxMem=  1048576000 cpu:        16.5
 (Enter /usr/local/gaussian/g09/l601.exe)
 Copying SCF densities to generalized density rwf, IOpCl= 0 IROHF=0.

 **********************************************************************

            Population analysis using the MP2 density.

 **********************************************************************

 Alpha  occ. eigenvalues -- -104.74177 -20.47576 -10.46122  -7.92838  -7.92568
 Alpha  occ. eigenvalues --   -7.92558  -7.47833  -5.30416  -5.30351  -5.30349
 Alpha  occ. eigenvalues --   -2.03176  -2.03134  -2.03132  -2.03063  -2.03063
 Alpha  occ. eigenvalues --   -1.24362  -0.90723  -0.64472  -0.55136  -0.45423
 Alpha  occ. eigenvalues --   -0.44588  -0.31822  -0.29194  -0.16361  -0.15338
 Alpha  occ. eigenvalues --   -0.15329
 Alpha virt. eigenvalues --    0.15240   0.17644   0.21541   0.22631   0.24015
 Alpha virt. eigenvalues --    0.24969   0.25244   0.27574   0.29604   0.30601
 Alpha virt. eigenvalues --    0.30728   0.31248   0.34716   0.37404   0.37888
 Alpha virt. eigenvalues --    0.39041   0.41942   0.42500   0.45018   0.50274
 Alpha virt. eigenvalues --    0.52856   0.54367   0.55454   0.55769   0.56843
 Alpha virt. eigenvalues --    0.58794   0.64188   0.66101   0.73914   0.75457
 Alpha virt. eigenvalues --    0.75882   0.76877   0.77265   0.79098   0.79147
 Alpha virt. eigenvalues --    0.81192   0.82220   0.82770   0.83406   0.86260
 Alpha virt. eigenvalues --    0.86891   0.87424   0.88175   0.89516   0.89976
 Alpha virt. eigenvalues --    0.93063   0.95565   0.95975   0.99595   1.01096
 Alpha virt. eigenvalues --    1.04149   1.08255   1.09121   1.11294   1.12061
 Alpha virt. eigenvalues --    1.13383   1.19454   1.19621   1.21473   1.24204
 Alpha virt. eigenvalues --    1.25857   1.32724   1.33816   1.40454   1.44498
 Alpha virt. eigenvalues --    1.49784   1.53756   1.55244   1.59954   1.60136
 Alpha virt. eigenvalues --    1.66430   1.68406   1.70460   1.73274   1.74260
 Alpha virt. eigenvalues --    1.74396   1.76146   1.77459   1.80551   1.85329
 Alpha virt. eigenvalues --    1.87520   1.90183   1.90520   1.96739   2.05154
 Alpha virt. eigenvalues --    2.05164   2.10374   2.13787   2.16049   2.29686
 Alpha virt. eigenvalues --    2.37256   2.49866   2.52039   2.54498   2.56454
 Alpha virt. eigenvalues --    2.57716   2.59088   2.67131   2.68029   2.70078
 Alpha virt. eigenvalues --    2.70985   2.72929   2.76040   2.77856   2.90383
 Alpha virt. eigenvalues --    2.96998   3.01552   3.07950   3.18264   3.20616
 Alpha virt. eigenvalues --    3.20683   3.24869   3.28481   3.29504   3.29978
 Alpha virt. eigenvalues --    3.36545   3.52370   3.53529   3.53637   3.83664
 Alpha virt. eigenvalues --    3.93659   4.30112   4.42721   4.51732   4.56579
 Alpha virt. eigenvalues --    4.61132   4.76872   4.98774   5.14759   5.37154
 Alpha virt. eigenvalues --    5.39173   5.66842   6.39931   6.57669   6.82931
 Alpha virt. eigenvalues --    6.89202   6.90285   6.97565   7.29011   7.33611
 Alpha virt. eigenvalues --    7.35383   7.43566   7.51247   7.75494   7.79346
 Alpha virt. eigenvalues --    8.34597  14.82202  59.21244
          Condensed to atoms (all electrons):
               1          2          3          4
     1  O    8.687641  -0.115296  -0.089510   0.001901
     2  Cl  -0.115296  17.056556   0.009453  -0.005934
     3  I   -0.089510   0.009453  25.884138   0.035968
     4  H    0.001901  -0.005934   0.035968   0.698500
 Mulliken charges:
               1
     1  O   -0.484737
     2  Cl   0.055220
     3  I   -0.840049
     4  H    0.269565
 Sum of Mulliken charges =  -1.00000
 Mulliken charges with hydrogens summed into heavy atoms:
               1
     1  O   -0.215171
     2  Cl   0.055220
     3  I   -0.840049
 Electronic spatial extent (au):  <R**2>=           1306.2513
 Charge=             -1.0000 electrons
 Dipole moment (field-independent basis, Debye):
    X=              2.1917    Y=             11.6259    Z=              0.0000  Tot=             11.8307
 Quadrupole moment (field-independent basis, Debye-Ang):
   XX=            -55.5865   YY=            -93.5842   ZZ=            -53.2862
   XY=             -9.8994   XZ=             -0.0000   YZ=             -0.0000
 Traceless Quadrupole moment (field-independent basis, Debye-Ang):
   XX=             11.8991   YY=            -26.0985   ZZ=             14.1994
   XY=             -9.8994   XZ=             -0.0000   YZ=             -0.0000
 Octapole moment (field-independent basis, Debye-Ang**2):
  XXX=             13.7176  YYY=            452.3641  ZZZ=              0.0000  XYY=             33.7489
  XXY=            114.5561  XXZ=              0.0000  XZZ=              2.4788  YZZ=            107.4498
  YYZ=              0.0000  XYZ=              0.0000
 Hexadecapole moment (field-independent basis, Debye-Ang**3):
 XXXX=           -409.2014 YYYY=          -2558.8697 ZZZZ=            -87.3059 XXXY=           -250.5906
 XXXZ=             -0.0000 YYYX=           -340.9155 YYYZ=             -0.0000 ZZZX=             -0.0000
 ZZZY=             -0.0000 XXYY=           -454.9948 XXZZ=            -87.6389 YYZZ=           -374.2190
 XXYZ=             -0.0000 YYXZ=             -0.0000 ZZXY=            -81.6577
 N-N= 1.443427033804D+02 E-N=-2.196606103105D+03  KE= 6.460316451943D+02
 No NMR shielding tensors so no spin-rotation constants.
 Leave Link  601 at Tue Oct 12 15:35:26 2021, MaxMem=  1048576000 cpu:         2.1
 (Enter /usr/local/gaussian/g09/l607.exe)
 ******************************Gaussian NBO Version 3.1******************************
             N A T U R A L   A T O M I C   O R B I T A L   A N D
          N A T U R A L   B O N D   O R B I T A L   A N A L Y S I S
 ******************************Gaussian NBO Version 3.1******************************
       /RESON  / : Allow strongly delocalized NBO set

 Analyzing the MP2 density

 Job title: title                                                           

 Storage needed:     91686 in NPA,    121697 in NBO (1048575896 available)


 NATURAL POPULATIONS:  Natural atomic orbital occupancies 
                                                          
   NAO  Atom  No  lang   Type(AO)    Occupancy
 --------------------------------------------
     1    O    1  S      Cor( 1S)     1.99970
     2    O    1  S      Val( 2S)     1.78792
     3    O    1  S      Ryd( 3S)     0.00978
     4    O    1  S      Ryd( 4S)     0.00115
     5    O    1  S      Ryd( 5S)     0.00020
     6    O    1  px     Val( 2p)     1.21259
     7    O    1  px     Ryd( 3p)     0.00676
     8    O    1  px     Ryd( 4p)     0.00062
     9    O    1  px     Ryd( 5p)     0.00036
    10    O    1  py     Val( 2p)     1.70300
    11    O    1  py     Ryd( 3p)     0.01201
    12    O    1  py     Ryd( 4p)     0.00076
    13    O    1  py     Ryd( 5p)     0.00054
    14    O    1  pz     Val( 2p)     1.94780
    15    O    1  pz     Ryd( 3p)     0.02008
    16    O    1  pz     Ryd( 4p)     0.00067
    17    O    1  pz     Ryd( 5p)     0.00016
    18    O    1  dxy    Ryd( 3d)     0.00879
    19    O    1  dxy    Ryd( 4d)     0.00048
    20    O    1  dxy    Ryd( 5d)     0.00014
    21    O    1  dxz    Ryd( 3d)     0.00868
    22    O    1  dxz    Ryd( 4d)     0.00057
    23    O    1  dxz    Ryd( 5d)     0.00010
    24    O    1  dyz    Ryd( 3d)     0.00780
    25    O    1  dyz    Ryd( 4d)     0.00060
    26    O    1  dyz    Ryd( 5d)     0.00033
    27    O    1  dx2y2  Ryd( 3d)     0.01358
    28    O    1  dx2y2  Ryd( 4d)     0.00034
    29    O    1  dx2y2  Ryd( 5d)     0.00017
    30    O    1  dz2    Ryd( 3d)     0.00983
    31    O    1  dz2    Ryd( 4d)     0.00057
    32    O    1  dz2    Ryd( 5d)     0.00016
    33    O    1  f(0)   Ryd( 4f)     0.00073
    34    O    1  f(0)   Ryd( 5f)     0.00011
    35    O    1  f(C1)  Ryd( 4f)     0.00067
    36    O    1  f(C1)  Ryd( 5f)     0.00012
    37    O    1  f(S1)  Ryd( 4f)     0.00058
    38    O    1  f(S1)  Ryd( 5f)     0.00011
    39    O    1  f(C2)  Ryd( 4f)     0.00058
    40    O    1  f(C2)  Ryd( 5f)     0.00012
    41    O    1  f(S2)  Ryd( 4f)     0.00054
    42    O    1  f(S2)  Ryd( 5f)     0.00012
    43    O    1  f(C3)  Ryd( 4f)     0.00058
    44    O    1  f(C3)  Ryd( 5f)     0.00014
    45    O    1  f(S3)  Ryd( 4f)     0.00054
    46    O    1  f(S3)  Ryd( 5f)     0.00013

    47   Cl    2  S      Cor( 1S)     2.00000
    48   Cl    2  S      Cor( 2S)     1.99978
    49   Cl    2  S      Val( 3S)     1.88282
    50   Cl    2  S      Ryd( 4S)     0.00749
    51   Cl    2  S      Ryd( 5S)     0.00052
    52   Cl    2  S      Ryd( 6S)     0.00017
    53   Cl    2  px     Cor( 2p)     1.99996
    54   Cl    2  px     Val( 3p)     0.90151
    55   Cl    2  px     Ryd( 4p)     0.00637
    56   Cl    2  px     Ryd( 5p)     0.00052
    57   Cl    2  px     Ryd( 6p)     0.00022
    58   Cl    2  py     Cor( 2p)     2.00003
    59   Cl    2  py     Val( 3p)     1.95304
    60   Cl    2  py     Ryd( 4p)     0.00978
    61   Cl    2  py     Ryd( 5p)     0.00052
    62   Cl    2  py     Ryd( 6p)     0.00012
    63   Cl    2  pz     Cor( 2p)     2.00003
    64   Cl    2  pz     Val( 3p)     1.95468
    65   Cl    2  pz     Ryd( 4p)     0.01047
    66   Cl    2  pz     Ryd( 5p)     0.00067
    67   Cl    2  pz     Ryd( 6p)     0.00003
    68   Cl    2  dxy    Ryd( 3d)     0.01649
    69   Cl    2  dxy    Ryd( 4d)     0.00077
    70   Cl    2  dxy    Ryd( 5d)     0.00033
    71   Cl    2  dxz    Ryd( 3d)     0.02109
    72   Cl    2  dxz    Ryd( 4d)     0.00102
    73   Cl    2  dxz    Ryd( 5d)     0.00036
    74   Cl    2  dyz    Ryd( 3d)     0.01678
    75   Cl    2  dyz    Ryd( 4d)     0.00073
    76   Cl    2  dyz    Ryd( 5d)     0.00018
    77   Cl    2  dx2y2  Ryd( 3d)     0.01856
    78   Cl    2  dx2y2  Ryd( 4d)     0.00048
    79   Cl    2  dx2y2  Ryd( 5d)     0.00016
    80   Cl    2  dz2    Ryd( 3d)     0.01751
    81   Cl    2  dz2    Ryd( 4d)     0.00060
    82   Cl    2  dz2    Ryd( 5d)     0.00015
    83   Cl    2  f(0)   Ryd( 4f)     0.00131
    84   Cl    2  f(0)   Ryd( 5f)     0.00013
    85   Cl    2  f(C1)  Ryd( 4f)     0.00145
    86   Cl    2  f(C1)  Ryd( 5f)     0.00014
    87   Cl    2  f(S1)  Ryd( 4f)     0.00127
    88   Cl    2  f(S1)  Ryd( 5f)     0.00013
    89   Cl    2  f(C2)  Ryd( 4f)     0.00134
    90   Cl    2  f(C2)  Ryd( 5f)     0.00013
    91   Cl    2  f(S2)  Ryd( 4f)     0.00120
    92   Cl    2  f(S2)  Ryd( 5f)     0.00013
    93   Cl    2  f(C3)  Ryd( 4f)     0.00156
    94   Cl    2  f(C3)  Ryd( 5f)     0.00013
    95   Cl    2  f(S3)  Ryd( 4f)     0.00125
    96   Cl    2  f(S3)  Ryd( 5f)     0.00014

    97    I    3  S      Cor( 4S)     1.99984
    98    I    3  S      Val( 5S)     1.96834
    99    I    3  S      Ryd( 6S)     0.00194
   100    I    3  S      Ryd( 7S)     0.00054
   101    I    3  S      Ryd( 8S)     0.00013
   102    I    3  S      Ryd( 9S)     0.00001
   103    I    3  px     Cor( 4p)     2.00002
   104    I    3  px     Val( 5p)     1.94588
   105    I    3  px     Ryd( 6p)     0.01046
   106    I    3  px     Ryd( 7p)     0.00073
   107    I    3  px     Ryd( 8p)     0.00010
   108    I    3  py     Cor( 4p)     1.99984
   109    I    3  py     Val( 5p)     1.85965
   110    I    3  py     Ryd( 6p)     0.00921
   111    I    3  py     Ryd( 7p)     0.00063
   112    I    3  py     Ryd( 8p)     0.00015
   113    I    3  pz     Cor( 4p)     2.00003
   114    I    3  pz     Val( 5p)     1.95123
   115    I    3  pz     Ryd( 6p)     0.01058
   116    I    3  pz     Ryd( 7p)     0.00073
   117    I    3  pz     Ryd( 8p)     0.00011
   118    I    3  dxy    Cor( 4d)     1.99670
   119    I    3  dxy    Ryd( 5d)     0.02008
   120    I    3  dxy    Ryd( 6d)     0.00132
   121    I    3  dxy    Ryd( 7d)     0.00019
   122    I    3  dxz    Cor( 4d)     1.99678
   123    I    3  dxz    Ryd( 5d)     0.02008
   124    I    3  dxz    Ryd( 6d)     0.00164
   125    I    3  dxz    Ryd( 7d)     0.00020
   126    I    3  dyz    Cor( 4d)     1.99674
   127    I    3  dyz    Ryd( 5d)     0.02031
   128    I    3  dyz    Ryd( 6d)     0.00133
   129    I    3  dyz    Ryd( 7d)     0.00018
   130    I    3  dx2y2  Cor( 4d)     1.99661
   131    I    3  dx2y2  Ryd( 5d)     0.01968
   132    I    3  dx2y2  Ryd( 6d)     0.00152
   133    I    3  dx2y2  Ryd( 7d)     0.00022
   134    I    3  dz2    Cor( 4d)     1.99671
   135    I    3  dz2    Ryd( 5d)     0.01990
   136    I    3  dz2    Ryd( 6d)     0.00162
   137    I    3  dz2    Ryd( 7d)     0.00017
   138    I    3  f(0)   Ryd( 4f)     0.00271
   139    I    3  f(0)   Ryd( 5f)     0.00044
   140    I    3  f(C1)  Ryd( 4f)     0.00275
   141    I    3  f(C1)  Ryd( 5f)     0.00043
   142    I    3  f(S1)  Ryd( 4f)     0.00277
   143    I    3  f(S1)  Ryd( 5f)     0.00046
   144    I    3  f(C2)  Ryd( 4f)     0.00270
   145    I    3  f(C2)  Ryd( 5f)     0.00043
   146    I    3  f(S2)  Ryd( 4f)     0.00276
   147    I    3  f(S2)  Ryd( 5f)     0.00045
   148    I    3  f(C3)  Ryd( 4f)     0.00267
   149    I    3  f(C3)  Ryd( 5f)     0.00044
   150    I    3  f(S3)  Ryd( 4f)     0.00271
   151    I    3  f(S3)  Ryd( 5f)     0.00045

   152    H    4  S      Val( 1S)     0.50013
   153    H    4  S      Ryd( 2S)     0.00957
   154    H    4  S      Ryd( 3S)     0.00036
   155    H    4  S      Ryd( 4S)     0.00016
   156    H    4  px     Ryd( 2p)     0.00428
   157    H    4  px     Ryd( 3p)     0.00054
   158    H    4  px     Ryd( 4p)     0.00012
   159    H    4  py     Ryd( 2p)     0.00524
   160    H    4  py     Ryd( 3p)     0.00095
   161    H    4  py     Ryd( 4p)     0.00040
   162    H    4  pz     Ryd( 2p)     0.00568
   163    H    4  pz     Ryd( 3p)     0.00041
   164    H    4  pz     Ryd( 4p)     0.00021
   165    H    4  dxy    Ryd( 3d)     0.00036
   166    H    4  dxy    Ryd( 4d)     0.00011
   167    H    4  dxz    Ryd( 3d)     0.00025
   168    H    4  dxz    Ryd( 4d)     0.00007
   169    H    4  dyz    Ryd( 3d)     0.00048
   170    H    4  dyz    Ryd( 4d)     0.00012
   171    H    4  dx2y2  Ryd( 3d)     0.00026
   172    H    4  dx2y2  Ryd( 4d)     0.00012
   173    H    4  dz2    Ryd( 3d)     0.00027
   174    H    4  dz2    Ryd( 4d)     0.00009

 [ 28 electrons found in the effective core potential]

 WARNING:  5 low occupancy (<1.9990e) core orbitals found on  I    3


 Summary of Natural Population Analysis:                  
                                                          
                                       Natural Population 
                Natural  -----------------------------------------------
    Atom  No    Charge         Core      Valence    Rydberg      Total
 -----------------------------------------------------------------------
      O    1   -0.76129      1.99970     6.65130    0.11029     8.76129
     Cl    2    0.16572      9.99980     6.69205    0.14242    16.83428
      I    3   -0.87428     45.98327     7.72510    0.16590    53.87428
      H    4    0.46984      0.00000     0.50013    0.03003     0.53016
 =======================================================================
   * Total *   -1.00000     57.98277    21.56858    0.44865    80.00000

                                 Natural Population      
 --------------------------------------------------------
   Effective Core            28.00000
   Core                      29.98277 ( 99.9426% of  30)
   Valence                   21.56858 ( 98.0390% of  22)
   Natural Minimal Basis     79.55135 ( 99.4392% of  80)
   Natural Rydberg Basis      0.44865 (  0.5608% of  80)
 --------------------------------------------------------

    Atom  No          Natural Electron Configuration
 ----------------------------------------------------------------------------
      O    1      [core]2S( 1.79)2p( 4.86)3S( 0.01)3p( 0.04)3d( 0.05)
     Cl    2      [core]3S( 1.88)3p( 4.81)4S( 0.01)3d( 0.09)4p( 0.03)4f( 0.01)
      I    3      [core]5S( 1.97)5p( 5.76)4f( 0.02)5d( 0.10)6p( 0.03)6d( 0.01)
      H    4            1S( 0.50)2S( 0.01)2p( 0.02)


 NATURAL BOND ORBITAL ANALYSIS:

                       Occupancies       Lewis Structure    Low   High
           Occ.    -------------------  -----------------   occ   occ
  Cycle   Thresh.   Lewis   Non-Lewis     CR  BD  3C  LP    (L)   (NL)   Dev
 =============================================================================
   1(1)    1.90    79.41649   0.58351     15   2   0   9     1      1    0.15
   2(2)    1.90    79.41649   0.58351     15   2   0   9     1      1    0.15
   3(1)    1.80    79.41649   0.58351     15   2   0   9     0      1    0.15
   4(2)    1.80    79.41649   0.58351     15   2   0   9     0      1    0.15
   5(1)    1.70    79.41649   0.58351     15   2   0   9     0      1    0.15
   6(2)    1.70    79.41649   0.58351     15   2   0   9     0      1    0.15
   7(1)    1.60    79.41649   0.58351     15   2   0   9     0      1    0.15
   8(2)    1.60    79.41649   0.58351     15   2   0   9     0      1    0.15
   9(1)    1.50    79.03834   0.96166     15   1   0  10     0      1    0.57
  10(2)    1.50    79.03834   0.96166     15   1   0  10     0      1    0.57
  11(1)    1.90    79.41649   0.58351     15   2   0   9     1      1    0.15
 -----------------------------------------------------------------------------

 Structure accepted: RESONANCE keyword permits strongly delocalized structure

 WARNING:  5 low occupancy (<1.9990e) core orbitals found on  I    3

 --------------------------------------------------------
   Effective Core           28.00000
   Core                     29.98277 ( 99.943% of  30)
   Valence Lewis            21.43372 ( 97.426% of  22)
  ==================       ============================
   Total Lewis              79.41649 ( 99.271% of  80)
  -----------------------------------------------------
   Valence non-Lewis         0.17979 (  0.225% of  80)
   Rydberg non-Lewis         0.40373 (  0.505% of  80)
  ==================       ============================
   Total non-Lewis           0.58351 (  0.729% of  80)
 --------------------------------------------------------


       (Occupancy)   Bond orbital/ Coefficients/ Hybrids
 ---------------------------------------------------------------------------------
     1. (1.93919) BD ( 1) O   1 -Cl   2  
                ( 59.22%)   0.7695* O   1 s( 10.48%)p 8.50( 89.00%)d 0.05(  0.50%)
                                                  f 0.00(  0.02%)
                                            0.0003  0.3211 -0.0384 -0.0137 -0.0008
                                            0.9419 -0.0307 -0.0100 -0.0107 -0.0283
                                           -0.0288 -0.0049  0.0000  0.0000  0.0000
                                            0.0000  0.0000 -0.0229 -0.0021  0.0019
                                            0.0000  0.0000  0.0000  0.0000  0.0000
                                            0.0000  0.0520  0.0040  0.0021 -0.0420
                                           -0.0034  0.0009  0.0000  0.0000 -0.0114
                                            0.0013 -0.0001  0.0001  0.0000  0.0000
                                            0.0000  0.0000  0.0054  0.0011 -0.0003
                                            0.0019
                ( 40.78%)   0.6386*Cl   2 s(  8.36%)p10.81( 90.36%)d 0.14(  1.17%)
                                                  f 0.01(  0.11%)
                                           -0.0000  0.0005  0.2842 -0.0522 -0.0095
                                            0.0030 -0.0004 -0.9482  0.0644  0.0137
                                           -0.0038 -0.0000 -0.0120 -0.0022  0.0026
                                           -0.0009  0.0000  0.0000  0.0000  0.0000
                                            0.0000  0.0134  0.0001  0.0008  0.0000
                                            0.0000  0.0000  0.0000  0.0000  0.0000
                                            0.0900 -0.0101 -0.0004 -0.0573  0.0057
                                            0.0011  0.0000  0.0000  0.0212 -0.0032
                                            0.0006 -0.0003  0.0000  0.0000  0.0000
                                            0.0000 -0.0255  0.0026 -0.0015  0.0003
     2. (1.96458) BD ( 1) O   1 - H   4  
                ( 79.46%)   0.8914* O   1 s( 28.84%)p 2.45( 70.66%)d 0.02(  0.49%)
                                                  f 0.00(  0.01%)
                                           -0.0003 -0.5369  0.0099  0.0086 -0.0017
                                            0.2055 -0.0178 -0.0030 -0.0032  0.8148
                                           -0.0061 -0.0063 -0.0050  0.0000  0.0000
                                            0.0000  0.0000  0.0000  0.0027  0.0002
                                            0.0000  0.0000  0.0000  0.0000  0.0000
                                            0.0000  0.0589  0.0055  0.0020  0.0369
                                            0.0016 -0.0027  0.0000  0.0000 -0.0017
                                           -0.0006 -0.0088 -0.0002  0.0000  0.0000
                                            0.0000  0.0000 -0.0020 -0.0023  0.0003
                                           -0.0021
                ( 20.54%)   0.4532* H   4 s( 99.84%)p 0.00(  0.16%)d 0.00(  0.00%)
                                           -0.9981 -0.0470 -0.0030  0.0016 -0.0114
                                           -0.0085  0.0008  0.0166 -0.0311 -0.0122
                                            0.0000  0.0000  0.0000 -0.0003  0.0020
                                            0.0000  0.0000  0.0000  0.0000  0.0027
                                            0.0006  0.0006  0.0029
     3. (1.99970) CR ( 1) O   1           s(100.00%)p 0.00(  0.00%)
                                            1.0000 -0.0004  0.0000  0.0000 -0.0000
                                           -0.0002  0.0000  0.0000  0.0000  0.0001
                                            0.0000 -0.0000 -0.0000  0.0000  0.0000
                                            0.0000  0.0000  0.0000  0.0000  0.0000
                                            0.0000  0.0000  0.0000  0.0000  0.0000
                                            0.0000 -0.0000  0.0000  0.0000  0.0000
                                            0.0000 -0.0000  0.0000  0.0000  0.0000
                                           -0.0000 -0.0000 -0.0000  0.0000  0.0000
                                            0.0000  0.0000 -0.0000 -0.0000 -0.0000
                                           -0.0000
     4. (2.00000) CR ( 1)Cl   2           s(100.00%)
                                            1.0000  0.0000 -0.0000 -0.0000 -0.0000
                                            0.0000 -0.0000 -0.0000  0.0000  0.0000
                                           -0.0000 -0.0000 -0.0000 -0.0000  0.0000
                                           -0.0000  0.0000  0.0000  0.0000  0.0000
                                            0.0000  0.0000 -0.0000  0.0000  0.0000
                                            0.0000  0.0000  0.0000  0.0000  0.0000
                                            0.0000 -0.0000 -0.0000 -0.0000  0.0000
                                            0.0000  0.0000  0.0000  0.0000 -0.0000
                                            0.0000 -0.0000  0.0000  0.0000  0.0000
                                            0.0000 -0.0000  0.0000 -0.0000  0.0000
     5. (1.99979) CR ( 2)Cl   2           s(100.00%)p 0.00(  0.00%)
                                            0.0000  1.0000 -0.0004  0.0000  0.0000
                                           -0.0000  0.0000  0.0004 -0.0000 -0.0000
                                            0.0000 -0.0000  0.0000  0.0000 -0.0000
                                            0.0000  0.0000  0.0000  0.0000  0.0000
                                            0.0000 -0.0000  0.0000 -0.0000  0.0000
                                            0.0000  0.0000  0.0000  0.0000  0.0000
                                           -0.0000  0.0000  0.0000  0.0000 -0.0000
                                           -0.0000  0.0000  0.0000 -0.0000  0.0000
                                           -0.0000  0.0000  0.0000  0.0000  0.0000
                                            0.0000  0.0000 -0.0000  0.0000 -0.0000
     6. (1.99996) CR ( 3)Cl   2           s(  0.00%)p 1.00(100.00%)
                                           -0.0000  0.0000  0.0001 -0.0000 -0.0000
                                            0.0000  1.0000 -0.0004  0.0000  0.0000
                                           -0.0000  0.0000 -0.0000 -0.0000  0.0000
                                           -0.0000  0.0000  0.0000  0.0000  0.0000
                                            0.0000  0.0000 -0.0000  0.0000  0.0000
                                            0.0000  0.0000  0.0000  0.0000  0.0000
                                            0.0000 -0.0000 -0.0000 -0.0000  0.0000
                                            0.0000  0.0000  0.0000  0.0000 -0.0000
                                            0.0000 -0.0000  0.0000  0.0000  0.0000
                                            0.0000 -0.0000  0.0000 -0.0000  0.0000
     7. (2.00003) CR ( 4)Cl   2           s(  0.00%)p 1.00(100.00%)
                                           -0.0000 -0.0000  0.0000  0.0000  0.0000
                                            0.0000  0.0000 -0.0000  0.0000  0.0000
                                           -0.0000  1.0000  0.0002  0.0000  0.0000
                                            0.0000  0.0000  0.0000  0.0000  0.0000
                                            0.0000 -0.0000  0.0000  0.0000  0.0000
                                            0.0000  0.0000  0.0000  0.0000  0.0000
                                           -0.0000 -0.0000 -0.0000 -0.0000 -0.0000
                                           -0.0000  0.0000  0.0000  0.0000  0.0000
                                           -0.0000  0.0000  0.0000  0.0000  0.0000
                                            0.0000 -0.0000  0.0000  0.0000 -0.0000
     8. (2.00003) CR ( 5)Cl   2           s(  0.00%)p 1.00(100.00%)
                                            0.0000  0.0000  0.0000  0.0000  0.0000
                                            0.0000  0.0000  0.0000  0.0000  0.0000
                                            0.0000  0.0000  0.0000  0.0000  0.0000
                                            0.0000  1.0000  0.0002  0.0000  0.0000
                                           -0.0000  0.0000  0.0000  0.0000  0.0000
                                            0.0000  0.0000  0.0000  0.0000  0.0000
                                            0.0000  0.0000  0.0000  0.0000  0.0000
                                            0.0000 -0.0000  0.0000  0.0000  0.0000
                                            0.0000  0.0000  0.0000 -0.0000  0.0000
                                           -0.0000  0.0000  0.0000  0.0000  0.0000
     9. (1.99983) CR ( 1) I   3           s(100.00%)
                                            1.0000 -0.0002  0.0000 -0.0000  0.0000
                                            0.0000  0.0000  0.0000 -0.0000  0.0000
                                            0.0000  0.0000  0.0001 -0.0000  0.0000
                                            0.0000  0.0000  0.0000  0.0000  0.0000
                                            0.0000  0.0000  0.0000  0.0000 -0.0000
                                            0.0000  0.0000  0.0000  0.0000  0.0000
                                            0.0000  0.0000  0.0000 -0.0000 -0.0000
                                           -0.0000  0.0000 -0.0000 -0.0000 -0.0000
                                           -0.0000  0.0000  0.0000 -0.0000 -0.0000
                                            0.0000  0.0000  0.0000  0.0000  0.0000
                                            0.0000  0.0000  0.0000  0.0000  0.0000
    10. (2.00002) CR ( 2) I   3           s(  0.00%)p 1.00(100.00%)
                                            0.0000  0.0000  0.0000  0.0000 -0.0000
                                            0.0000  1.0000 -0.0003 -0.0000 -0.0000
                                            0.0000  0.0000  0.0001  0.0000  0.0000
                                           -0.0000  0.0000  0.0000  0.0000  0.0000
                                            0.0000  0.0000 -0.0000  0.0000  0.0000
                                            0.0000  0.0000  0.0000  0.0000  0.0000
                                            0.0000  0.0000  0.0000  0.0000 -0.0000
                                           -0.0000  0.0000  0.0000 -0.0000  0.0000
                                           -0.0000  0.0000  0.0000  0.0000  0.0000
                                           -0.0000 -0.0000  0.0000  0.0000  0.0000
                                            0.0000  0.0000  0.0000 -0.0000 -0.0000
    11. (1.99984) CR ( 3) I   3           s(  0.00%)p 1.00(100.00%)
                                            0.0000  0.0002 -0.0000  0.0000 -0.0000
                                           -0.0000  0.0000  0.0001  0.0000  0.0000
                                           -0.0000  1.0000 -0.0001  0.0000 -0.0000
                                            0.0000  0.0000  0.0000  0.0000  0.0000
                                            0.0000 -0.0000  0.0000 -0.0000 -0.0000
                                            0.0000  0.0000  0.0000  0.0000  0.0000
                                            0.0000  0.0000  0.0000  0.0000  0.0000
                                            0.0000 -0.0000  0.0000  0.0000  0.0000
                                            0.0000  0.0000  0.0000 -0.0000 -0.0000
                                           -0.0000 -0.0000  0.0000  0.0000  0.0000
                                            0.0000 -0.0000 -0.0000  0.0000  0.0000
    12. (2.00003) CR ( 4) I   3           s(  0.00%)p 1.00(100.00%)
                                            0.0000  0.0000  0.0000  0.0000  0.0000
                                            0.0000  0.0000  0.0000  0.0000  0.0000
                                            0.0000  0.0000  0.0000  0.0000  0.0000
                                            0.0000  1.0000 -0.0004 -0.0000 -0.0000
                                            0.0000  0.0000  0.0000  0.0000  0.0000
                                            0.0000 -0.0000  0.0000  0.0000  0.0000
                                           -0.0000  0.0000  0.0000  0.0000  0.0000
                                            0.0000  0.0000  0.0000  0.0000  0.0000
                                            0.0000  0.0000  0.0000  0.0000  0.0000
                                            0.0000  0.0000  0.0000  0.0000 -0.0000
                                           -0.0000  0.0000  0.0000  0.0000  0.0000
    13. (1.99670) CR ( 5) I   3           s(  0.00%)p 0.00(  0.00%)d 1.00(100.00%)
                                            0.0000  0.0000 -0.0000  0.0000  0.0000
                                           -0.0000  0.0000  0.0000  0.0000  0.0000
                                           -0.0000 -0.0000 -0.0000  0.0000 -0.0000
                                            0.0000  0.0000  0.0000  0.0000  0.0000
                                            0.0000  1.0000  0.0000 -0.0000 -0.0000
                                            0.0000  0.0000  0.0000  0.0000  0.0000
                                            0.0000  0.0000  0.0000  0.0000  0.0000
                                            0.0000 -0.0000  0.0000  0.0000  0.0000
                                            0.0000  0.0000  0.0000 -0.0000 -0.0000
                                            0.0000 -0.0000  0.0000  0.0000  0.0000
                                            0.0000 -0.0000 -0.0000  0.0000  0.0000
    14. (1.99678) CR ( 6) I   3           s(  0.00%)p 0.00(  0.00%)d 1.00(100.00%)
                                            0.0000  0.0000  0.0000  0.0000  0.0000
                                            0.0000  0.0000  0.0000  0.0000  0.0000
                                            0.0000  0.0000  0.0000  0.0000  0.0000
                                            0.0000  0.0000  0.0000  0.0000  0.0000
                                           -0.0000  0.0000  0.0000  0.0000  0.0000
                                            1.0000  0.0000 -0.0000 -0.0000 -0.0000
                                            0.0000 -0.0000 -0.0000  0.0000  0.0000
                                            0.0000  0.0000  0.0000  0.0000  0.0000
                                            0.0000 -0.0000 -0.0000  0.0000  0.0000
                                            0.0000  0.0000 -0.0000 -0.0000  0.0000
                                            0.0000  0.0000  0.0000  0.0000  0.0000
    15. (1.99674) CR ( 7) I   3           s(  0.00%)p 0.00(  0.00%)d 1.00(100.00%)
                                            0.0000  0.0000  0.0000  0.0000  0.0000
                                            0.0000  0.0000  0.0000  0.0000  0.0000
                                            0.0000  0.0000  0.0000  0.0000  0.0000
                                            0.0000  0.0000  0.0000  0.0000  0.0000
                                           -0.0000  0.0000  0.0000  0.0000  0.0000
                                           -0.0000  0.0000 -0.0000 -0.0000  1.0000
                                            0.0000 -0.0000 -0.0000  0.0000  0.0000
                                            0.0000  0.0000  0.0000  0.0000  0.0000
                                            0.0000 -0.0000 -0.0000  0.0000  0.0000
                                            0.0000  0.0000 -0.0000 -0.0000  0.0000
                                            0.0000  0.0000  0.0000  0.0000  0.0000
    16. (1.99661) CR ( 8) I   3           s(  0.00%)p 0.00(  0.00%)d 1.00(100.00%)
                                           -0.0000 -0.0001  0.0000 -0.0000  0.0000
                                            0.0000  0.0000  0.0000  0.0000  0.0000
                                            0.0000  0.0000  0.0000 -0.0000  0.0000
                                            0.0000  0.0000  0.0000  0.0000  0.0000
                                            0.0000  0.0000  0.0000 -0.0000 -0.0000
                                            0.0000  0.0000  0.0000  0.0000  0.0000
                                            0.0000  0.0000  0.0000  1.0000 -0.0000
                                           -0.0000 -0.0000 -0.0000 -0.0000 -0.0000
                                           -0.0000  0.0000  0.0000 -0.0000 -0.0000
                                            0.0000  0.0000  0.0000  0.0000  0.0000
                                            0.0000 -0.0000 -0.0000  0.0000  0.0000
    17. (1.99671) CR ( 9) I   3           s(  0.00%)p 0.00(  0.00%)d 1.00(100.00%)
                                           -0.0000 -0.0000  0.0000 -0.0000  0.0000
                                            0.0000  0.0000  0.0000 -0.0000  0.0000
                                            0.0000  0.0000  0.0000 -0.0000  0.0000
                                            0.0000  0.0000  0.0000  0.0000  0.0000
                                            0.0000  0.0000 -0.0000  0.0000  0.0000
                                            0.0000  0.0000  0.0000  0.0000  0.0000
                                            0.0000  0.0000  0.0000 -0.0000 -0.0000
                                           -0.0000  0.0000  1.0000 -0.0000 -0.0000
                                           -0.0000  0.0000  0.0000  0.0000  0.0000
                                            0.0000  0.0000  0.0000  0.0000  0.0000
                                            0.0000  0.0000  0.0000  0.0000  0.0000
    18. (1.96647) LP ( 1) O   1           s( 60.80%)p 0.64( 39.10%)d 0.00(  0.10%)
                                                  f 0.00(  0.00%)
                                            0.0002  0.7796  0.0128  0.0083 -0.0012
                                           -0.2476 -0.0031 -0.0041 -0.0023  0.5741
                                            0.0088  0.0056  0.0016  0.0000  0.0000
                                            0.0000  0.0000  0.0228  0.0024 -0.0032
                                            0.0000  0.0000  0.0000  0.0000  0.0000
                                            0.0000  0.0169  0.0007 -0.0036  0.0124
                                            0.0008  0.0008  0.0000  0.0000 -0.0000
                                            0.0005 -0.0028  0.0003  0.0000  0.0000
                                            0.0000  0.0000  0.0038 -0.0024  0.0036
                                           -0.0016
    19. (1.95259) LP ( 2) O   1           s(  0.00%)p 1.00( 99.80%)d 0.00(  0.19%)
                                                  f 0.00(  0.01%)
                                            0.0000  0.0000  0.0000  0.0000  0.0000
                                            0.0000  0.0000  0.0000  0.0000  0.0000
                                            0.0000  0.0000  0.0000  0.9988  0.0196
                                            0.0058  0.0073  0.0000  0.0000  0.0000
                                            0.0301  0.0050 -0.0006 -0.0281  0.0031
                                            0.0110  0.0000  0.0000  0.0000  0.0000
                                            0.0000  0.0000 -0.0108  0.0010  0.0000
                                            0.0000  0.0000  0.0000  0.0042 -0.0018
                                            0.0012  0.0010  0.0000  0.0000  0.0000
                                            0.0000
    20. (1.97342) LP ( 1)Cl   2           s( 91.66%)p 0.09(  8.31%)d 0.00(  0.02%)
                                                  f 0.00(  0.00%)
                                            0.0000  0.0002  0.9574  0.0059  0.0010
                                           -0.0004  0.0001  0.2850 -0.0062 -0.0031
                                            0.0012  0.0000 -0.0431  0.0010  0.0001
                                           -0.0006  0.0000  0.0000  0.0000  0.0000
                                            0.0000  0.0001 -0.0005 -0.0006  0.0000
                                            0.0000  0.0000  0.0000  0.0000  0.0000
                                           -0.0121  0.0003  0.0001  0.0076  0.0006
                                            0.0004  0.0000  0.0000 -0.0021 -0.0004
                                            0.0001 -0.0000  0.0000  0.0000  0.0000
                                            0.0000  0.0035  0.0000 -0.0006  0.0002
    21. (1.95613) LP ( 2)Cl   2           s(  0.00%)p 1.00( 99.95%)d 0.00(  0.04%)
                                                  f 0.00(  0.01%)
                                            0.0000  0.0000  0.0000  0.0000  0.0000
                                            0.0000  0.0000  0.0000  0.0000  0.0000
                                            0.0000  0.0000  0.0000  0.0000  0.0000
                                            0.0000 -0.0002  0.9996  0.0149  0.0051
                                           -0.0022  0.0000  0.0000  0.0000  0.0068
                                            0.0167  0.0086  0.0030  0.0026  0.0008
                                            0.0000  0.0000  0.0000  0.0000  0.0000
                                            0.0000 -0.0056  0.0010  0.0000  0.0000
                                            0.0000  0.0000  0.0065 -0.0008  0.0010
                                           -0.0008  0.0000  0.0000  0.0000  0.0000
    22. (1.95446) LP ( 3)Cl   2           s(  0.21%)p99.99( 99.75%)d 0.17(  0.04%)
                                                  f 0.04(  0.01%)
                                            0.0000 -0.0000  0.0449  0.0053  0.0040
                                            0.0018  0.0000 -0.0002 -0.0003 -0.0005
                                           -0.0006 -0.0002  0.9987  0.0129  0.0013
                                            0.0004  0.0000  0.0000  0.0000  0.0000
                                            0.0000 -0.0025  0.0140  0.0081  0.0000
                                            0.0000  0.0000  0.0000  0.0000  0.0000
                                           -0.0072 -0.0043 -0.0030 -0.0003 -0.0024
                                           -0.0004  0.0000  0.0000  0.0000  0.0004
                                           -0.0025  0.0003  0.0000  0.0000  0.0000
                                            0.0000 -0.0013  0.0002  0.0087 -0.0012
    23. (1.97779) LP ( 1) I   3           s( 92.86%)p 0.08(  7.14%)d 0.00(  0.00%)
                                                  f 0.00(  0.00%)
                                            0.0002  0.9636 -0.0000  0.0013 -0.0004
                                           -0.0002 -0.0000 -0.0679  0.0002 -0.0001
                                           -0.0002 -0.0002 -0.2585  0.0011 -0.0005
                                           -0.0001  0.0000  0.0000  0.0000  0.0000
                                            0.0000 -0.0000 -0.0002 -0.0000  0.0000
                                            0.0000  0.0000  0.0000  0.0000  0.0000
                                            0.0000  0.0000  0.0000  0.0001  0.0004
                                            0.0003 -0.0001  0.0000  0.0004  0.0001
                                            0.0000  0.0000  0.0000 -0.0000  0.0000
                                           -0.0001 -0.0001  0.0000  0.0000  0.0000
                                            0.0000 -0.0001 -0.0000 -0.0001 -0.0002
    24. (1.95143) LP ( 2) I   3           s(  0.00%)p 1.00( 99.99%)d 0.00(  0.01%)
                                                  f 0.00(  0.00%)
                                            0.0000  0.0000  0.0000  0.0000  0.0000
                                            0.0000  0.0000  0.0000  0.0000  0.0000
                                            0.0000  0.0000  0.0000  0.0000  0.0000
                                            0.0000  0.0004  0.9999  0.0036  0.0017
                                           -0.0002  0.0000  0.0000  0.0000  0.0000
                                           -0.0000  0.0016 -0.0001 -0.0006 -0.0000
                                            0.0077 -0.0010 -0.0021  0.0000  0.0000
                                            0.0000  0.0000  0.0000  0.0000  0.0000
                                            0.0000 -0.0024 -0.0013  0.0000  0.0000
                                            0.0000  0.0000 -0.0027 -0.0013  0.0013
                                            0.0008  0.0000  0.0000  0.0000  0.0000
    25. (1.95111) LP ( 3) I   3           s(  0.00%)p 1.00( 99.99%)d 0.00(  0.01%)
                                                  f 0.00(  0.00%)
                                           -0.0000  0.0068 -0.0003 -0.0004  0.0007
                                           -0.0002  0.0003  0.9730  0.0034  0.0016
                                           -0.0004 -0.0001 -0.2303 -0.0009 -0.0006
                                            0.0002  0.0000  0.0000  0.0000  0.0000
                                            0.0000 -0.0000  0.0079 -0.0007 -0.0020
                                            0.0000  0.0000  0.0000  0.0000  0.0000
                                            0.0000  0.0000  0.0000 -0.0000  0.0028
                                            0.0004 -0.0017  0.0000  0.0002 -0.0001
                                            0.0001  0.0000  0.0000 -0.0009 -0.0005
                                            0.0002  0.0000  0.0000  0.0000  0.0000
                                            0.0000 -0.0029 -0.0013  0.0021  0.0009
    26. (1.84654) LP ( 4) I   3           s(  7.14%)p13.00( 92.80%)d 0.01(  0.05%)
                                                  f 0.00(  0.01%)
                                           -0.0000  0.2671  0.0002 -0.0050  0.0014
                                            0.0006  0.0000  0.2200 -0.0017 -0.0007
                                            0.0005  0.0000  0.9378 -0.0072 -0.0038
                                            0.0006  0.0000  0.0000  0.0000  0.0000
                                            0.0000  0.0000  0.0086 -0.0011 -0.0008
                                            0.0000  0.0000  0.0000  0.0000  0.0000
                                            0.0000  0.0000  0.0000 -0.0000 -0.0174
                                            0.0018  0.0026 -0.0000 -0.0121  0.0018
                                            0.0007  0.0000  0.0000 -0.0013 -0.0008
                                           -0.0056 -0.0030  0.0000  0.0000  0.0000
                                            0.0000 -0.0044 -0.0020 -0.0054 -0.0021
    27. (0.01956) RY*( 1) O   1           s(  0.00%)p 1.00( 98.65%)d 0.01(  1.29%)
                                                  f 0.00(  0.05%)
                                            0.0000  0.0000  0.0000  0.0000  0.0000
                                            0.0000  0.0000  0.0000  0.0000  0.0000
                                            0.0000  0.0000  0.0000 -0.0242  0.9921
                                           -0.0400 -0.0104  0.0000  0.0000  0.0000
                                            0.0832  0.0272  0.0091 -0.0706 -0.0004
                                            0.0148  0.0000  0.0000  0.0000  0.0000
                                            0.0000  0.0000 -0.0131  0.0114  0.0000
                                            0.0000  0.0000  0.0000  0.0109 -0.0093
                                           -0.0026  0.0010  0.0000  0.0000  0.0000
                                            0.0000
    28. (0.01629) RY*( 2) O   1           s( 32.09%)p 2.05( 65.73%)d 0.06(  1.98%)
                                                  f 0.01(  0.20%)
                                           -0.0000  0.0029  0.5656 -0.0319 -0.0072
                                            0.0358 -0.3453 -0.0043  0.0187 -0.0210
                                            0.7290  0.0020 -0.0675  0.0000  0.0000
                                            0.0000  0.0000  0.1210  0.0270  0.0078
                                            0.0000  0.0000  0.0000  0.0000  0.0000
                                            0.0000  0.0316  0.0041  0.0052  0.0572
                                            0.0043 -0.0020  0.0000  0.0000 -0.0032
                                            0.0004  0.0050  0.0015  0.0000  0.0000
                                            0.0000  0.0000  0.0334 -0.0147  0.0231
                                           -0.0117
    29. (0.00807) RY*( 3) O   1           s( 17.53%)p 0.58( 10.11%)d 4.06( 71.14%)
                                                  f 0.07(  1.23%)
                                           -0.0000  0.0171  0.4119 -0.0701  0.0199
                                           -0.0203 -0.1299  0.0068  0.0324 -0.0115
                                           -0.2734  0.0275 -0.0843 -0.0000 -0.0000
                                           -0.0000 -0.0000 -0.8067 -0.0143 -0.0254
                                           -0.0000 -0.0000 -0.0000 -0.0000 -0.0000
                                           -0.0000  0.1300  0.0090  0.0322  0.2041
                                           -0.0084  0.0063 -0.0000 -0.0000 -0.0223
[...]
                                           -0.1642  0.1717 -0.1109
   158. (0.00039) RY*( 8) H   4           s( 13.85%)p 4.68( 64.76%)d 1.54( 21.39%)
                                           -0.0010 -0.0224  0.3701 -0.0325 -0.0355
                                            0.7298 -0.0708  0.0979 -0.1913  0.2502
                                            0.0000  0.0000  0.0000 -0.3932  0.2157
                                            0.0000  0.0000  0.0000  0.0000  0.0385
                                           -0.0576  0.0510 -0.0737
   159. (0.00033) RY*( 9) H   4           s(  0.00%)p 1.00( 92.24%)d 0.08(  7.76%)
                                            0.0000  0.0000  0.0000  0.0000  0.0000
                                            0.0000  0.0000  0.0000  0.0000  0.0000
                                           -0.1310  0.9506  0.0391  0.0000  0.0000
                                           -0.0734  0.0760 -0.1595  0.2025  0.0000
                                            0.0000  0.0000  0.0000
   160. (0.00028) RY*(10) H   4           s(  5.51%)p 7.07( 39.00%)d10.06( 55.48%)
                                            0.0173  0.0709 -0.0720  0.2112 -0.0892
                                           -0.1234 -0.1591 -0.0419 -0.3803 -0.4417
                                            0.0000  0.0000  0.0000 -0.4294 -0.0231
                                            0.0000  0.0000  0.0000  0.0000  0.4840
                                            0.0936 -0.3436  0.0941
   161. (0.00025) RY*(11) H   4           s( 13.05%)p 1.16( 15.19%)d 5.50( 71.76%)
                                            0.0099  0.0013  0.3200  0.1673  0.1154
                                            0.0389  0.1484 -0.0210 -0.3090 -0.1383
                                            0.0000  0.0000  0.0000  0.5171  0.0189
                                            0.0000  0.0000  0.0000  0.0000  0.4873
                                           -0.0414  0.4522 -0.0792
   162. (0.00024) RY*(12) H   4           s(  0.00%)p 1.00(  0.55%)d99.99( 99.45%)
                                            0.0000  0.0000  0.0000  0.0000  0.0000
                                            0.0000  0.0000  0.0000  0.0000  0.0000
                                           -0.0080  0.0673 -0.0301  0.0000  0.0000
                                            0.9880 -0.0855 -0.1051 -0.0078  0.0000
                                            0.0000  0.0000  0.0000
   163. (0.00021) RY*(13) H   4           s(  5.17%)p 3.32( 17.17%)d15.02( 77.65%)
                                           -0.0109 -0.0283  0.2173 -0.0597  0.0161
                                            0.0050  0.0929  0.0266  0.2688  0.2997
                                           -0.0000 -0.0000 -0.0000  0.2985  0.0744
                                           -0.0000 -0.0000 -0.0000 -0.0000  0.4028
                                           -0.1188 -0.7004 -0.1222
   164. (0.00014) RY*(14) H   4           s(  0.00%)p 1.00( 47.31%)d 1.11( 52.69%)
                                            0.0000  0.0000  0.0000  0.0000  0.0000
                                            0.0000  0.0000  0.0000  0.0000  0.0000
                                           -0.0296 -0.2315  0.6470  0.0000  0.0000
                                            0.0175  0.1577 -0.3414  0.6206  0.0000
                                            0.0000  0.0000  0.0000
   165. (0.00013) RY*(15) H   4           s( 64.35%)p 0.12(  7.89%)d 0.43( 27.76%)
                                           -0.0028 -0.0142  0.2284  0.7689  0.0211
                                            0.1799 -0.1766  0.0136  0.0742 -0.0957
                                            0.0000  0.0000  0.0000  0.1982 -0.2425
                                            0.0000  0.0000  0.0000  0.0000 -0.3493
                                            0.0736 -0.2012  0.1079
   166. (0.00011) RY*(16) H   4           s(  5.23%)p 7.27( 38.00%)d10.86( 56.78%)
                                            0.0020  0.0037  0.1429  0.1785 -0.0125
                                           -0.1146  0.5735 -0.0069  0.0753 -0.1789
                                            0.0000  0.0000  0.0000 -0.0808  0.6285
                                            0.0000  0.0000  0.0000  0.0000 -0.1655
                                            0.3662 -0.0684 -0.0032
   167. (0.00005) RY*(17) H   4           s(  0.00%)p 1.00( 32.04%)d 2.12( 67.96%)
   168. (0.00006) RY*(18) H   4           s(  0.00%)p 1.00(  5.53%)d17.09( 94.47%)
   169. (0.00006) RY*(19) H   4           s(  3.83%)p 3.76( 14.38%)d21.37( 81.79%)
   170. (0.00006) RY*(20) H   4           s( 42.59%)p 0.73( 31.26%)d 0.61( 26.14%)
   171. (0.00006) RY*(21) H   4           s(  1.48%)p 3.67(  5.44%)d62.77( 93.08%)
   172. (0.00004) RY*(22) H   4           s(  3.59%)p13.34( 47.94%)d13.49( 48.47%)
   173. (0.05898) BD*( 1) O   1 -Cl   2  
                ( 40.78%)   0.6386* O   1 s( 10.48%)p 8.50( 89.00%)d 0.05(  0.50%)
                                                  f 0.00(  0.02%)
                                           -0.0003 -0.3211  0.0384  0.0137  0.0008
                                           -0.9419  0.0307  0.0100  0.0107  0.0283
                                            0.0288  0.0049 -0.0000 -0.0000 -0.0000
                                           -0.0000 -0.0000  0.0229  0.0021 -0.0019
                                           -0.0000 -0.0000 -0.0000 -0.0000 -0.0000
                                           -0.0000 -0.0520 -0.0040 -0.0021  0.0420
                                            0.0034 -0.0009 -0.0000 -0.0000  0.0114
                                           -0.0013  0.0001 -0.0001 -0.0000 -0.0000
                                           -0.0000 -0.0000 -0.0054 -0.0011  0.0003
                                           -0.0019
                ( 59.22%)  -0.7695*Cl   2 s(  8.36%)p10.81( 90.36%)d 0.14(  1.17%)
                                                  f 0.01(  0.11%)
                                            0.0000 -0.0005 -0.2842  0.0522  0.0095
                                           -0.0030  0.0004  0.9482 -0.0644 -0.0137
                                            0.0038  0.0000  0.0120  0.0022 -0.0026
                                            0.0009 -0.0000 -0.0000 -0.0000 -0.0000
                                           -0.0000 -0.0134 -0.0001 -0.0008 -0.0000
                                           -0.0000 -0.0000 -0.0000 -0.0000 -0.0000
                                           -0.0900  0.0101  0.0004  0.0573 -0.0057
                                           -0.0011 -0.0000 -0.0000 -0.0212  0.0032
                                           -0.0006  0.0003 -0.0000 -0.0000 -0.0000
                                           -0.0000  0.0255 -0.0026  0.0015 -0.0003
   174. (0.12081) BD*( 1) O   1 - H   4  
                ( 20.54%)   0.4532* O   1 s( 28.84%)p 2.45( 70.66%)d 0.02(  0.49%)
                                                  f 0.00(  0.01%)
                                            0.0003  0.5369 -0.0099 -0.0086  0.0017
                                           -0.2055  0.0178  0.0030  0.0032 -0.8148
                                            0.0061  0.0063  0.0050 -0.0000 -0.0000
                                           -0.0000 -0.0000 -0.0000 -0.0027 -0.0002
                                           -0.0000 -0.0000 -0.0000 -0.0000 -0.0000
                                           -0.0000 -0.0589 -0.0055 -0.0020 -0.0369
                                           -0.0016  0.0027 -0.0000 -0.0000  0.0017
                                            0.0006  0.0088  0.0002 -0.0000 -0.0000
                                           -0.0000 -0.0000  0.0020  0.0023 -0.0003
                                            0.0021
                ( 79.46%)  -0.8914* H   4 s( 99.84%)p 0.00(  0.16%)d 0.00(  0.00%)
                                            0.9981  0.0470  0.0030 -0.0016  0.0114
                                            0.0085 -0.0008 -0.0166  0.0311  0.0122
                                           -0.0000 -0.0000 -0.0000  0.0003 -0.0020
                                           -0.0000 -0.0000 -0.0000 -0.0000 -0.0027
                                           -0.0006 -0.0006 -0.0029


 NHO Directionality and "Bond Bending" (deviations from line of nuclear centers)

         [Thresholds for printing:  angular deviation  >  1.0 degree]
                                    hybrid p-character > 25.0%
                                    orbital occupancy  >  0.10e

                                Line of Centers        Hybrid 1              Hybrid 2
                                ---------------  -------------------   ------------------
                NBO               Theta   Phi    Theta   Phi    Dev    Theta   Phi    Dev
 ========================================================================================
     1. BD (   1) O   1 -Cl   2    90.0    0.0    90.0  356.0   4.0      --     --    --
    18. LP (   1) O   1             --     --     90.0  113.5   --       --     --    --
    19. LP (   2) O   1             --     --      0.0    0.0   --       --     --    --
    21. LP (   2)Cl   2             --     --      0.0    0.0   --       --     --    --
    22. LP (   3)Cl   2             --     --     90.0   90.1   --       --     --    --
    24. LP (   2) I   3             --     --      0.0    0.0   --       --     --    --
    25. LP (   3) I   3             --     --     90.0  346.7   --       --     --    --
    26. LP (   4) I   3             --     --     90.0   76.8   --       --     --    --


 Natural Bond Orbitals (Summary):

           NBO                  Occupancy  
 -----------------------------------------------
 Molecular unit  1  (HOCl)
     1. BD (   1) O   1 -Cl   2          1.93919
     2. BD (   1) O   1 - H   4          1.96458
     3. CR (   1) O   1                  1.99970
     4. CR (   1)Cl   2                  2.00000
     5. CR (   2)Cl   2                  1.99979
     6. CR (   3)Cl   2                  1.99996
     7. CR (   4)Cl   2                  2.00003
     8. CR (   5)Cl   2                  2.00003
    18. LP (   1) O   1                  1.96647
    19. LP (   2) O   1                  1.95259
    20. LP (   1)Cl   2                  1.97342
    21. LP (   2)Cl   2                  1.95613
    22. LP (   3)Cl   2                  1.95446
    27. RY*(   1) O   1                  0.01956
    28. RY*(   2) O   1                  0.01629
    29. RY*(   3) O   1                  0.00807
    30. RY*(   4) O   1                  0.00708
    31. RY*(   5) O   1                  0.00629
    32. RY*(   6) O   1                  0.00618
    33. RY*(   7) O   1                  0.00576
    34. RY*(   8) O   1                  0.00339
    35. RY*(   9) O   1                  0.00253
    36. RY*(  10) O   1                  0.00089
    37. RY*(  11) O   1                  0.00065
    38. RY*(  12) O   1                  0.00062
    39. RY*(  13) O   1                  0.00059
    40. RY*(  14) O   1                  0.00051
    41. RY*(  15) O   1                  0.00050
    42. RY*(  16) O   1                  0.00048
    43. RY*(  17) O   1                  0.00048
    44. RY*(  18) O   1                  0.00048
    45. RY*(  19) O   1                  0.00044
    46. RY*(  20) O   1                  0.00045
    47. RY*(  21) O   1                  0.00045
    48. RY*(  22) O   1                  0.00042
    49. RY*(  23) O   1                  0.00036
    50. RY*(  24) O   1                  0.00031
    51. RY*(  25) O   1                  0.00025
    52. RY*(  26) O   1                  0.00020
    53. RY*(  27) O   1                  0.00014
    54. RY*(  28) O   1                  0.00013
    55. RY*(  29) O   1                  0.00012
    56. RY*(  30) O   1                  0.00009
    57. RY*(  31) O   1                  0.00008
    58. RY*(  32) O   1                  0.00008
    59. RY*(  33) O   1                  0.00009
    60. RY*(  34) O   1                  0.00008
    61. RY*(  35) O   1                  0.00006
    62. RY*(  36) O   1                  0.00007
    63. RY*(  37) O   1                  0.00007
    64. RY*(  38) O   1                  0.00005
    65. RY*(  39) O   1                  0.00004
    66. RY*(  40) O   1                  0.00003
    67. RY*(  41) O   1                  0.00001
    68. RY*(   1)Cl   2                  0.02225
    69. RY*(   2)Cl   2                  0.01734
    70. RY*(   3)Cl   2                  0.01675
    71. RY*(   4)Cl   2                  0.01656
    72. RY*(   5)Cl   2                  0.01161
    73. RY*(   6)Cl   2                  0.00920
    74. RY*(   7)Cl   2                  0.00901
    75. RY*(   8)Cl   2                  0.00624
    76. RY*(   9)Cl   2                  0.00167
    77. RY*(  10)Cl   2                  0.00127
    78. RY*(  11)Cl   2                  0.00127
    79. RY*(  12)Cl   2                  0.00119
    80. RY*(  13)Cl   2                  0.00120
    81. RY*(  14)Cl   2                  0.00116
    82. RY*(  15)Cl   2                  0.00111
    83. RY*(  16)Cl   2                  0.00094
    84. RY*(  17)Cl   2                  0.00076
    85. RY*(  18)Cl   2                  0.00077
    86. RY*(  19)Cl   2                  0.00062
    87. RY*(  20)Cl   2                  0.00056
    88. RY*(  21)Cl   2                  0.00045
    89. RY*(  22)Cl   2                  0.00037
    90. RY*(  23)Cl   2                  0.00036
    91. RY*(  24)Cl   2                  0.00032
    92. RY*(  25)Cl   2                  0.00018
    93. RY*(  26)Cl   2                  0.00016
    94. RY*(  27)Cl   2                  0.00015
    95. RY*(  28)Cl   2                  0.00013
    96. RY*(  29)Cl   2                  0.00013
    97. RY*(  30)Cl   2                  0.00012
    98. RY*(  31)Cl   2                  0.00010
    99. RY*(  32)Cl   2                  0.00011
   100. RY*(  33)Cl   2                  0.00010
   101. RY*(  34)Cl   2                  0.00010
   102. RY*(  35)Cl   2                  0.00010
   103. RY*(  36)Cl   2                  0.00008
   104. RY*(  37)Cl   2                  0.00009
   105. RY*(  38)Cl   2                  0.00006
   106. RY*(  39)Cl   2                  0.00004
   107. RY*(  40)Cl   2                  0.00003
   108. RY*(  41)Cl   2                  0.00000
   151. RY*(   1) H   4                  0.01167
   152. RY*(   2) H   4                  0.00582
   153. RY*(   3) H   4                  0.00497
   154. RY*(   4) H   4                  0.00395
   155. RY*(   5) H   4                  0.00069
   156. RY*(   6) H   4                  0.00058
   157. RY*(   7) H   4                  0.00050
   158. RY*(   8) H   4                  0.00039
   159. RY*(   9) H   4                  0.00033
   160. RY*(  10) H   4                  0.00028
   161. RY*(  11) H   4                  0.00025
   162. RY*(  12) H   4                  0.00024
   163. RY*(  13) H   4                  0.00021
   164. RY*(  14) H   4                  0.00014
   165. RY*(  15) H   4                  0.00013
   166. RY*(  16) H   4                  0.00011
   167. RY*(  17) H   4                  0.00005
   168. RY*(  18) H   4                  0.00006
   169. RY*(  19) H   4                  0.00006
   170. RY*(  20) H   4                  0.00006
   171. RY*(  21) H   4                  0.00006
   172. RY*(  22) H   4                  0.00004
   173. BD*(   1) O   1 -Cl   2          0.05898
   174. BD*(   1) O   1 - H   4          0.12081
       -------------------------------
              Total Lewis   25.70635  ( 98.3948%)
        Valence non-Lewis    0.17979  (  0.6882%)
        Rydberg non-Lewis    0.23959  (  0.9171%)
       -------------------------------
            Total unit  1   26.12572  (100.0000%)
           Charge unit  1   -0.12572

 Molecular unit  2  (I)
     9. CR (   1) I   3                  1.99983
    10. CR (   2) I   3                  2.00002
    11. CR (   3) I   3                  1.99984
    12. CR (   4) I   3                  2.00003
    13. CR (   5) I   3                  1.99670
    14. CR (   6) I   3                  1.99678
    15. CR (   7) I   3                  1.99674
    16. CR (   8) I   3                  1.99661
    17. CR (   9) I   3                  1.99671
    23. LP (   1) I   3                  1.97779
    24. LP (   2) I   3                  1.95143
    25. LP (   3) I   3                  1.95111
    26. LP (   4) I   3                  1.84654
   109. RY*(   1) I   3                  0.02021
   110. RY*(   2) I   3                  0.02012
   111. RY*(   3) I   3                  0.02008
   112. RY*(   4) I   3                  0.02007
   113. RY*(   5) I   3                  0.01881
   114. RY*(   6) I   3                  0.01055
   115. RY*(   7) I   3                  0.01049
   116. RY*(   8) I   3                  0.00884
   117. RY*(   9) I   3                  0.00279
   118. RY*(  10) I   3                  0.00278
   119. RY*(  11) I   3                  0.00277
   120. RY*(  12) I   3                  0.00276
   121. RY*(  13) I   3                  0.00276
   122. RY*(  14) I   3                  0.00268
   123. RY*(  15) I   3                  0.00268
   124. RY*(  16) I   3                  0.00237
   125. RY*(  17) I   3                  0.00165
   126. RY*(  18) I   3                  0.00166
   127. RY*(  19) I   3                  0.00132
   128. RY*(  20) I   3                  0.00128
   129. RY*(  21) I   3                  0.00109
   130. RY*(  22) I   3                  0.00072
   131. RY*(  23) I   3                  0.00072
   132. RY*(  24) I   3                  0.00059
   133. RY*(  25) I   3                  0.00046
   134. RY*(  26) I   3                  0.00045
   135. RY*(  27) I   3                  0.00044
   136. RY*(  28) I   3                  0.00042
   137. RY*(  29) I   3                  0.00042
   138. RY*(  30) I   3                  0.00040
   139. RY*(  31) I   3                  0.00038
   140. RY*(  32) I   3                  0.00031
   141. RY*(  33) I   3                  0.00020
   142. RY*(  34) I   3                  0.00019
   143. RY*(  35) I   3                  0.00014
   144. RY*(  36) I   3                  0.00012
   145. RY*(  37) I   3                  0.00012
   146. RY*(  38) I   3                  0.00010
   147. RY*(  39) I   3                  0.00010
   148. RY*(  40) I   3                  0.00007
   149. RY*(  41) I   3                  0.00006
   150. RY*(  42) I   3                  0.00000
       -------------------------------
              Total Lewis   53.71014  ( 99.6953%)
        Valence non-Lewis    0.00000  (  0.0000%)
        Rydberg non-Lewis    0.16414  (  0.3047%)
       -------------------------------
            Total unit  2   53.87428  (100.0000%)
           Charge unit  2   -0.87428
 Leave Link  607 at Tue Oct 12 15:35:27 2021, MaxMem=  1048576000 cpu:         8.7
 (Enter /usr/local/gaussian/g09/l9999.exe)
 1\1\GINC-KRYPTON\SP\RMP2-FC\Gen\Cl1H1I1O1(1-)\CGAVINH\12-Oct-2021\0\\#
 p pop=NBO SP NoSymm mp2/gen Pseudo=read density=current\\title\\-1,1\O
 \X,1,10.\Cl,1,1.68652173,2,90.\I,1,3.31229946,2,90.,3,103.24540347,0\H
 ,1,1.,2,90.,3,103.24540347,0\\Version=ES64L-G09RevE.01\HF=-829.6860505
 \MP2=-830.3684072\RMSD=8.306e-09\Dipole=1.2131109,1.551241,0.\Quadrupo
 le=8.8467018,-19.4036258,10.556924,-7.3599792,0.,0.\PG=CS [SG(Cl1H1I1O
 1)]\\@


 SLITHERY-DITHERY
 FRIEDRICH A. KEKULE
 DREAMT ON A BUS OF THINGS
 FREUD WOULD THINK KEEN.
 MOST OF THE TIME THEY WERE
 HERPETOLOGICAL
 BITING THEIR TAILS IN THE
 SHAPE OF BENZENE.
 Job cpu time:       0 days  0 hours  2 minutes 37.4 seconds.
 File lengths (MBytes):  RWF=     13 Int=      0 D2E=      0 Chk=      3 Scr=      1
 Normal termination of Gaussian 09 at Tue Oct 12 15:35:27 2021.
