 Entering Gaussian System, Link 0=g09
 Input=ihocl_rOH_095_sp.gjf
 Output=ihocl_rOH_095_sp.log
 Initial command:
 /usr/local/gaussian/g09/l1.exe "/scratch/Gau-25865.inp" -scrdir="/scratch/"
 Entering Link 1 = /usr/local/gaussian/g09/l1.exe PID=     25866.
  
 Copyright (c) 1988,1990,1992,1993,1995,1998,2003,2009,2015,
            Gaussian, Inc.  All Rights Reserved.
  
 This is part of the Gaussian(R) 09 program.  It is based on
 the Gaussian(R) 03 system (copyright 2003, Gaussian, Inc.),
 the Gaussian(R) 98 system (copyright 1998, Gaussian, Inc.),
 the Gaussian(R) 94 system (copyright 1995, Gaussian, Inc.),
 the Gaussian 92(TM) system (copyright 1992, Gaussian, Inc.),
 the Gaussian 90(TM) system (copyright 1990, Gaussian, Inc.),
 the Gaussian 88(TM) system (copyright 1988, Gaussian, Inc.),
 the Gaussian 86(TM) system (copyright 1986, Carnegie Mellon
 University), and the Gaussian 82(TM) system (copyright 1983,
 Carnegie Mellon University). Gaussian is a federally registered
 trademark of Gaussian, Inc.
  
 This software contains proprietary and confidential information,
 including trade secrets, belonging to Gaussian, Inc.
  
 This software is provided under written license and may be
 used, copied, transmitted, or stored only in accord with that
 written license.
  
 The following legend is applicable only to US Government
 contracts under FAR:
  
                    RESTRICTED RIGHTS LEGEND
  
 Use, reproduction and disclosure by the US Government is
 subject to restrictions as set forth in subparagraphs (a)
 and (c) of the Commercial Computer Software - Restricted
 Rights clause in FAR 52.227-19.
  
 Gaussian, Inc.
 340 Quinnipiac St., Bldg. 40, Wallingford CT 06492
  
  
 ---------------------------------------------------------------
 Warning -- This program may not be used in any manner that
 competes with the business of Gaussian, Inc. or will provide
 assistance to any competitor of Gaussian, Inc.  The licensee
 of this program is prohibited from giving any competitor of
 Gaussian, Inc. access to this program.  By using this program,
 the user acknowledges that Gaussian, Inc. is engaged in the
 business of creating and licensing software in the field of
 computational chemistry and represents and warrants to the
 licensee that it is not a competitor of Gaussian, Inc. and that
 it will not use this program in any manner prohibited above.
 ---------------------------------------------------------------
  

 Cite this work as:
 Gaussian 09, Revision E.01,
 M. J. Frisch, G. W. Trucks, H. B. Schlegel, G. E. Scuseria, 
 M. A. Robb, J. R. Cheeseman, G. Scalmani, V. Barone, B. Mennucci, 
 G. A. Petersson, H. Nakatsuji, M. Caricato, X. Li, H. P. Hratchian, 
 A. F. Izmaylov, J. Bloino, G. Zheng, J. L. Sonnenberg, M. Hada, 
 M. Ehara, K. Toyota, R. Fukuda, J. Hasegawa, M. Ishida, T. Nakajima, 
 Y. Honda, O. Kitao, H. Nakai, T. Vreven, J. A. Montgomery, Jr., 
 J. E. Peralta, F. Ogliaro, M. Bearpark, J. J. Heyd, E. Brothers, 
 K. N. Kudin, V. N. Staroverov, T. Keith, R. Kobayashi, J. Normand, 
 K. Raghavachari, A. Rendell, J. C. Burant, S. S. Iyengar, J. Tomasi, 
 M. Cossi, N. Rega, J. M. Millam, M. Klene, J. E. Knox, J. B. Cross, 
 V. Bakken, C. Adamo, J. Jaramillo, R. Gomperts, R. E. Stratmann, 
 O. Yazyev, A. J. Austin, R. Cammi, C. Pomelli, J. W. Ochterski, 
 R. L. Martin, K. Morokuma, V. G. Zakrzewski, G. A. Voth, 
 P. Salvador, J. J. Dannenberg, S. Dapprich, A. D. Daniels, 
 O. Farkas, J. B. Foresman, J. V. Ortiz, J. Cioslowski, 
 and D. J. Fox, Gaussian, Inc., Wallingford CT, 2013.
 
 ******************************************
 Gaussian 09:  ES64L-G09RevE.01 30-Nov-2015
                12-Oct-2021 
 ******************************************
 %nproc=12
 Will use up to   12 processors via shared memory.
 %mem=8000MB
 %chk=/home/netid.washington.edu/cgavinh/mccoy_hocl/rOH_s_oop_0/ihocl/ihocl_rOH_0
 95_sp.chk
 --------------------------------------------------------
 #p pop=NBO SP NoSymm mp2/gen Pseudo=read density=current
 --------------------------------------------------------
 1/30=1,38=1/1;
 2/12=2,15=1,17=6,18=5,40=1/2;
 3/5=7,11=9,16=1,17=8,25=1,30=1,71=1/1,2,3;
 4//1;
 5/5=2,38=5/2;
 8/6=4,10=1/1;
 9/15=1,16=-3/6;
 10/5=1,13=10,31=1/2;
 6/7=2,8=2,9=2,10=2,22=-1,40=1/1,7;
 99/5=1,9=1/99;
 Leave Link    1 at Tue Oct 12 15:34:53 2021, MaxMem=  1048576000 cpu:         0.2
 (Enter /usr/local/gaussian/g09/l101.exe)
 -----
 title
 -----
 Symbolic Z-matrix:
 Charge = -1 Multiplicity = 1
 O
 X                    1     10. 
 Cl                   1    r1       2     90. 
 I                    1    r2       2     90.      3    a1       0
 H                    1    r3       2    oop      3    a1       0
       Variables:
  r1                    1.68652                  
  r2                    3.3123                   
  r3                    0.95                     
  a1                  103.2454                   
  OOP                  90.                       
 
 NAtoms=      4 NQM=        4 NQMF=       0 NMMI=      0 NMMIF=      0
                NMic=       0 NMicF=      0.
                    Isotopes and Nuclear Properties:
 (Nuclear quadrupole moments (NQMom) in fm**2, nuclear magnetic moments (NMagM)
  in nuclear magnetons)

  Atom         1           2           3           4
 IAtWgt=          16          35         127           1
 AtmWgt=  15.9949146  34.9688527 126.9004000   1.0078250
 NucSpn=           0           3           5           1
 AtZEff=   0.0000000   0.0000000   0.0000000   0.0000000
 NQMom=    0.0000000  -8.1650000 -71.0000000   0.0000000
 NMagM=    0.0000000   0.8218740   2.8132800   2.7928460
 AtZNuc=   8.0000000  17.0000000  53.0000000   1.0000000
 Leave Link  101 at Tue Oct 12 15:34:53 2021, MaxMem=  1048576000 cpu:         0.4
 (Enter /usr/local/gaussian/g09/l202.exe)
                          Input orientation:                          
 ---------------------------------------------------------------------
 Center     Atomic      Atomic             Coordinates (Angstroms)
 Number     Number       Type             X           Y           Z
 ---------------------------------------------------------------------
      1          8           0        0.000000    0.000000    0.000000
      2         17           0        1.686522    0.000000    0.000000
      3         53           0       -0.758922   -3.224184    0.000000
      4          1           0       -0.217666   -0.924728    0.000000
 ---------------------------------------------------------------------
                    Distance matrix (angstroms):
                    1          2          3          4
     1  O    0.000000
     2  Cl   1.686522   0.000000
     3  I    3.312299   4.046673   0.000000
     4  H    0.950000   2.116850   2.362299   0.000000
 Symmetry turned off by external request.
 Stoichiometry    ClHIO(1-)
 Framework group  CS[SG(ClHIO)]
 Deg. of freedom     5
 Full point group                 CS      NOp   2
 Rotational constants (GHZ):     21.7456490      0.9693470      0.9279808
 Leave Link  202 at Tue Oct 12 15:34:53 2021, MaxMem=  1048576000 cpu:         0.0
 (Enter /usr/local/gaussian/g09/l301.exe)
 General basis read from cards:  (5D, 7F)
 Centers:       4      1      2
 aug-cc-pVTZ
 ****
 Centers:       3
 S 11 1.00
     Exponent=  5.5465000000D+03 Coefficients=  1.5600000000D-04
     Exponent=  8.3821400000D+02 Coefficients=  9.8600000000D-04
     Exponent=  1.8218700000D+02 Coefficients=  2.7920000000D-03
     Exponent=  3.1212300000D+01 Coefficients= -4.3251000000D-02
     Exponent=  1.9531400000D+01 Coefficients=  2.3413400000D-01
     Exponent=  8.2409900000D+00 Coefficients= -7.5094300000D-01
     Exponent=  2.1945500000D+00 Coefficients=  8.8296800000D-01
     Exponent=  1.1091100000D+00 Coefficients=  4.6206100000D-01
     Exponent=  3.7464100000D-01 Coefficients=  2.2286000000D-02
     Exponent=  1.7708000000D-01 Coefficients= -4.3530000000D-03
     Exponent=  8.1061000000D-02 Coefficients=  1.1020000000D-03
 S 11 1.00
     Exponent=  5.5465000000D+03 Coefficients= -7.3000000000D-05
     Exponent=  8.3821400000D+02 Coefficients= -5.0800000000D-04
     Exponent=  1.8218700000D+02 Coefficients= -1.1580000000D-03
     Exponent=  3.1212300000D+01 Coefficients=  1.2193000000D-02
     Exponent=  1.9531400000D+01 Coefficients= -8.7854000000D-02
     Exponent=  8.2409900000D+00 Coefficients=  3.3820000000D-01
     Exponent=  2.1945500000D+00 Coefficients= -5.7655000000D-01
     Exponent=  1.1091100000D+00 Coefficients= -4.0929800000D-01
     Exponent=  3.7464100000D-01 Coefficients=  5.6745900000D-01
     Exponent=  1.7708000000D-01 Coefficients=  6.1248900000D-01
     Exponent=  8.1061000000D-02 Coefficients=  1.4323100000D-01
 S 1 1.00
     Exponent=  3.7464100000D-01 Coefficients=  1.0000000000D+00
 S 1 1.00
     Exponent=  1.7708000000D-01 Coefficients=  1.0000000000D+00
 S 1 1.00
     Exponent=  1.0010000000D-01 Coefficients=  1.0000000000D+00
 S 1 1.00
     Exponent=  4.1200000000D-02 Coefficients=  1.0000000000D+00
 P 9 1.00
     Exponent=  1.8898800000D+02 Coefficients=  5.8500000000D-04
     Exponent=  2.1286800000D+01 Coefficients=  3.6923000000D-02
     Exponent=  1.0039600000D+01 Coefficients= -2.3532400000D-01
     Exponent=  3.4518000000D+00 Coefficients=  3.4148300000D-01
     Exponent=  1.9745600000D+00 Coefficients=  5.3478800000D-01
     Exponent=  1.0242000000D+00 Coefficients=  2.6514100000D-01
     Exponent=  4.4943700000D-01 Coefficients=  2.5787000000D-02
     Exponent=  1.8664800000D-01 Coefficients=  5.2200000000D-04
     Exponent=  7.3481000000D-02 Coefficients=  6.0600000000D-04
 P 9 1.00
     Exponent=  1.8898800000D+02 Coefficients= -2.5600000000D-04
     Exponent=  2.1286800000D+01 Coefficients= -1.1682000000D-02
     Exponent=  1.0039600000D+01 Coefficients=  8.3192000000D-02
     Exponent=  3.4518000000D+00 Coefficients= -1.5697000000D-01
     Exponent=  1.9745600000D+00 Coefficients= -2.2451800000D-01
     Exponent=  1.0242000000D+00 Coefficients= -1.1445100000D-01
     Exponent=  4.4943700000D-01 Coefficients=  3.7535600000D-01
     Exponent=  1.8664800000D-01 Coefficients=  5.7513600000D-01
     Exponent=  7.3481000000D-02 Coefficients=  2.4591700000D-01
 P 1 1.00
     Exponent=  5.9810000000D-01 Coefficients=  1.0000000000D+00
 P 1 1.00
     Exponent=  9.6180000000D-02 Coefficients=  1.0000000000D+00
 P 1 1.00
     Exponent=  3.5900000000D-02 Coefficients=  1.0000000000D+00
 D 9 1.00
     Exponent=  1.3266200000D+02 Coefficients=  5.7200000000D-04
     Exponent=  3.7605400000D+01 Coefficients=  4.4020000000D-03
     Exponent=  1.0389100000D+01 Coefficients= -4.0922000000D-02
     Exponent=  6.4901700000D+00 Coefficients=  9.9661000000D-02
     Exponent=  3.4545100000D+00 Coefficients=  3.2266300000D-01
     Exponent=  1.8441300000D+00 Coefficients=  4.0034300000D-01
     Exponent=  9.6247800000D-01 Coefficients=  2.6830600000D-01
     Exponent=  4.7285300000D-01 Coefficients=  8.4847000000D-02
     Exponent=  1.9320000000D-01 Coefficients=  7.6320000000D-03
 D 1 1.00
     Exponent=  4.7285300000D-01 Coefficients=  1.0000000000D+00
 D 1 1.00
     Exponent=  1.9320000000D-01 Coefficients=  1.0000000000D+00
 D 1 1.00
     Exponent=  7.8200000000D-02 Coefficients=  1.0000000000D+00
 F 1 1.00
     Exponent=  4.0640000000D-01 Coefficients=  1.0000000000D+00
 F 1 1.00
     Exponent=  1.8480000000D-01 Coefficients=  1.0000000000D+00
 ****
 ======================================================================================================
                                       Pseudopotential Parameters
 ======================================================================================================
  Center     Atomic      Valence      Angular      Power
  Number     Number     Electrons     Momentum     of R      Exponent        Coefficient   SO-Coeffient
 ======================================================================================================
    1          8
                                   No pseudopotential on this center.
    2         17
                                   No pseudopotential on this center.
    3         53           25
                                      G and up 
                                                     2        1.0000000        0.00000000    0.00000000
                                      S - G
                                                     2       40.0333760       49.98964900    0.00000000
                                                     2       17.3005760      281.00655600    0.00000000
                                                     2        8.8517200       61.41673900    0.00000000
                                      P - G
                                                     2       15.7201410       67.41623900    0.00000000
                                                     2       15.2082220      134.80769600    0.00000000
                                                     2        8.2941860       14.56654800    0.00000000
                                                     2        7.7539490       28.96842200    0.00000000
                                      D - G
                                                     2       13.8177510       35.53875600    0.00000000
                                                     2       13.5878050       53.33975900    0.00000000
                                                     2        6.9476300        9.71646600    0.00000000
                                                     2        6.9600990       14.97750000    0.00000000
                                      F - G
                                                     2       18.5229500      -20.17661800    0.00000000
                                                     2       18.2510350      -26.08807700    0.00000000
                                                     2        7.5579010       -0.22043400    0.00000000
                                                     2        7.5974040       -0.22164600    0.00000000
    4          1
                                   No pseudopotential on this center.
 ======================================================================================================
 Ernie: Thresh=  0.10000D-02 Tol=  0.10000D-05 Strict=F.
 Ernie:  23 primitive shells out of 166 were deleted.
   174 basis functions,   383 primitive gaussians,   204 cartesian basis functions
    26 alpha electrons       26 beta electrons
       nuclear repulsion energy       144.5075402578 Hartrees.
 IExCor=    0 DFT=F Ex=HF Corr=None ExCW=0 ScaHFX=  1.000000
 ScaDFX=  1.000000  1.000000  1.000000  1.000000 ScalE2=  1.000000  1.000000
 IRadAn=      0 IRanWt=     -1 IRanGd=            0 ICorTp=0 IEmpDi=  4
 NAtoms=    4 NActive=    4 NUniq=    4 SFac= 1.00D+00 NAtFMM=   60 NAOKFM=F Big=F
 Integral buffers will be    131072 words long.
 Raffenetti 1 integral format.
 Two-electron integral symmetry is turned off.
 Leave Link  301 at Tue Oct 12 15:34:53 2021, MaxMem=  1048576000 cpu:         0.6
 (Enter /usr/local/gaussian/g09/l302.exe)
 NPDir=0 NMtPBC=     1 NCelOv=     1 NCel=       1 NClECP=     1 NCelD=      1
         NCelK=      1 NCelE2=     1 NClLst=     1 CellRange=     0.0.
 One-electron integrals computed using PRISM.
   1 Symmetry operations used in ECPInt.
 ECPInt:  NShTT=    1596 NPrTT=   10643 LenC2=    1597 LenP2D=    8417.
 LDataN:  DoStor=T MaxTD1= 7 Len=  274
 NBasis=   174 RedAO= T EigKep=  2.05D-04  NBF=   174
 NBsUse=   174 1.00D-06 EigRej= -1.00D+00 NBFU=   174
 Leave Link  302 at Tue Oct 12 15:34:53 2021, MaxMem=  1048576000 cpu:         2.9
 (Enter /usr/local/gaussian/g09/l303.exe)
 DipDrv:  MaxL=1.
 Leave Link  303 at Tue Oct 12 15:34:53 2021, MaxMem=  1048576000 cpu:         0.2
 (Enter /usr/local/gaussian/g09/l401.exe)
 ExpMin= 2.53D-02 ExpMax= 4.56D+05 ExpMxC= 1.44D+03 IAcc=3 IRadAn=         5 AccDes= 0.00D+00
 Harris functional with IExCor=  205 and IRadAn=       5 diagonalized for initial guess.
 HarFok:  IExCor=  205 AccDes= 0.00D+00 IRadAn=         5 IDoV= 1 UseB2=F ITyADJ=14
 ICtDFT=  3500011 ScaDFX=  1.000000  1.000000  1.000000  1.000000
 Defaulting to unpruned grid for atomic number  53.
 Defaulting to unpruned grid for atomic number  53.
 Defaulting to unpruned grid for atomic number  53.
 Defaulting to unpruned grid for atomic number  53.
 Defaulting to unpruned grid for atomic number  53.
 Defaulting to unpruned grid for atomic number  53.
 Defaulting to unpruned grid for atomic number  53.
 Defaulting to unpruned grid for atomic number  53.
 Defaulting to unpruned grid for atomic number  53.
 Defaulting to unpruned grid for atomic number  53.
 Defaulting to unpruned grid for atomic number  53.
 Defaulting to unpruned grid for atomic number  53.
 FoFCou: FMM=F IPFlag=           0 FMFlag=      100000 FMFlg1=           0
         NFxFlg=           0 DoJE=T BraDBF=F KetDBF=T FulRan=T
         wScrn=  0.000000 ICntrl=     500 IOpCl=  0 I1Cent=   200000004 NGrid=           0
         NMat0=    1 NMatS0=      1 NMatT0=    0 NMatD0=    1 NMtDS0=    0 NMtDT0=    0
 Symmetry not used in FoFCou.
 Harris En= -831.057680907054    
 JPrj=0 DoOrth=F DoCkMO=F.
 Leave Link  401 at Tue Oct 12 15:34:54 2021, MaxMem=  1048576000 cpu:         3.2
 (Enter /usr/local/gaussian/g09/l502.exe)
 Closed shell SCF:
 Using DIIS extrapolation, IDIIS=  1040.
 Two-electron integral symmetry not used.
 Keep R1 ints in memory in canonical form, NReq=124441379.
 IVT=      147078 IEndB=      147078 NGot=  1048576000 MDV=   932520998
 LenX=   932520998 LenY=   932478941
 Requested convergence on RMS density matrix=1.00D-08 within 128 cycles.
 Requested convergence on MAX density matrix=1.00D-06.
 Requested convergence on             energy=1.00D-06.
 No special actions if energy rises.
 FoFCou: FMM=F IPFlag=           0 FMFlag=           0 FMFlg1=           0
         NFxFlg=           0 DoJE=F BraDBF=F KetDBF=F FulRan=T
         wScrn=  0.000000 ICntrl=     600 IOpCl=  0 I1Cent=           0 NGrid=           0
         NMat0=    1 NMatS0=  15225 NMatT0=    0 NMatD0=    1 NMtDS0=    0 NMtDT0=    0
 Symmetry not used in FoFCou.

 Cycle   1  Pass 1  IDiag  1:
 E= -829.529815119138    
 DIIS: error= 2.83D-02 at cycle   1 NSaved=   1.
 NSaved= 1 IEnMin= 1 EnMin= -829.529815119138     IErMin= 1 ErrMin= 2.83D-02
 ErrMax= 2.83D-02  0.00D+00 EMaxC= 1.00D-01 BMatC= 4.59D-01 BMatP= 4.59D-01
 IDIUse=3 WtCom= 7.17D-01 WtEn= 2.83D-01
 Coeff-Com:  0.100D+01
 Coeff-En:   0.100D+01
 Coeff:      0.100D+01
 Gap=     0.398 Goal=   None    Shift=    0.000
 GapD=    0.398 DampG=1.000 DampE=0.500 DampFc=0.5000 IDamp=-1.
 Damping current iteration by 5.00D-01
 RMSDP=3.60D-03 MaxDP=1.04D-01              OVMax= 1.19D-01

 Cycle   2  Pass 1  IDiag  1:
 E= -829.608605053612     Delta-E=       -0.078789934473 Rises=F Damp=T
 DIIS: error= 1.25D-02 at cycle   2 NSaved=   2.
 NSaved= 2 IEnMin= 2 EnMin= -829.608605053612     IErMin= 2 ErrMin= 1.25D-02
 ErrMax= 1.25D-02  0.00D+00 EMaxC= 1.00D-01 BMatC= 8.92D-02 BMatP= 4.59D-01
 IDIUse=3 WtCom= 8.75D-01 WtEn= 1.25D-01
 Coeff-Com: -0.593D+00 0.159D+01
 Coeff-En:   0.000D+00 0.100D+01
 Coeff:     -0.518D+00 0.152D+01
 Gap=     0.299 Goal=   None    Shift=    0.000
 RMSDP=1.57D-03 MaxDP=8.71D-02 DE=-7.88D-02 OVMax= 7.12D-02

 Cycle   3  Pass 1  IDiag  1:
 E= -829.681741755460     Delta-E=       -0.073136701848 Rises=F Damp=F
 DIIS: error= 7.24D-03 at cycle   3 NSaved=   3.
 NSaved= 3 IEnMin= 3 EnMin= -829.681741755460     IErMin= 3 ErrMin= 7.24D-03
 ErrMax= 7.24D-03  0.00D+00 EMaxC= 1.00D-01 BMatC= 6.79D-03 BMatP= 8.92D-02
 IDIUse=3 WtCom= 9.28D-01 WtEn= 7.24D-02
 Coeff-Com: -0.243D+00 0.488D+00 0.755D+00
 Coeff-En:   0.000D+00 0.000D+00 0.100D+01
 Coeff:     -0.225D+00 0.452D+00 0.773D+00
 Gap=     0.300 Goal=   None    Shift=    0.000
 RMSDP=3.67D-04 MaxDP=1.56D-02 DE=-7.31D-02 OVMax= 2.77D-02

 Cycle   4  Pass 1  IDiag  1:
 E= -829.686594919004     Delta-E=       -0.004853163544 Rises=F Damp=F
 DIIS: error= 1.84D-03 at cycle   4 NSaved=   4.
 NSaved= 4 IEnMin= 4 EnMin= -829.686594919004     IErMin= 4 ErrMin= 1.84D-03
 ErrMax= 1.84D-03  0.00D+00 EMaxC= 1.00D-01 BMatC= 2.16D-04 BMatP= 6.79D-03
 IDIUse=3 WtCom= 9.82D-01 WtEn= 1.84D-02
 Coeff-Com: -0.958D-03-0.146D-01 0.129D+00 0.887D+00
 Coeff-En:   0.000D+00 0.000D+00 0.000D+00 0.100D+01
 Coeff:     -0.941D-03-0.143D-01 0.126D+00 0.889D+00
 Gap=     0.303 Goal=   None    Shift=    0.000
 RMSDP=9.37D-05 MaxDP=5.49D-03 DE=-4.85D-03 OVMax= 3.42D-03

 Cycle   5  Pass 1  IDiag  1:
 E= -829.686801554056     Delta-E=       -0.000206635052 Rises=F Damp=F
 DIIS: error= 2.86D-04 at cycle   5 NSaved=   5.
 NSaved= 5 IEnMin= 5 EnMin= -829.686801554056     IErMin= 5 ErrMin= 2.86D-04
 ErrMax= 2.86D-04  0.00D+00 EMaxC= 1.00D-01 BMatC= 1.36D-05 BMatP= 2.16D-04
 IDIUse=3 WtCom= 9.97D-01 WtEn= 2.86D-03
 Coeff-Com:  0.244D-01-0.454D-01-0.756D-01-0.805D-01 0.118D+01
 Coeff-En:   0.000D+00 0.000D+00 0.000D+00 0.000D+00 0.100D+01
 Coeff:      0.243D-01-0.453D-01-0.754D-01-0.803D-01 0.118D+01
 Gap=     0.302 Goal=   None    Shift=    0.000
 RMSDP=5.07D-05 MaxDP=2.18D-03 DE=-2.07D-04 OVMax= 2.82D-03

 Cycle   6  Pass 1  IDiag  1:
 E= -829.686835590570     Delta-E=       -0.000034036514 Rises=F Damp=F
 DIIS: error= 1.18D-04 at cycle   6 NSaved=   6.
 NSaved= 6 IEnMin= 6 EnMin= -829.686835590570     IErMin= 6 ErrMin= 1.18D-04
 ErrMax= 1.18D-04  0.00D+00 EMaxC= 1.00D-01 BMatC= 1.58D-06 BMatP= 1.36D-05
 IDIUse=3 WtCom= 9.99D-01 WtEn= 1.18D-03
 Coeff-Com: -0.764D-02 0.155D-01 0.136D-01-0.806D-01-0.268D+00 0.133D+01
 Coeff-En:   0.000D+00 0.000D+00 0.000D+00 0.000D+00 0.000D+00 0.100D+01
 Coeff:     -0.763D-02 0.155D-01 0.136D-01-0.805D-01-0.268D+00 0.133D+01
 Gap=     0.302 Goal=   None    Shift=    0.000
 RMSDP=1.56D-05 MaxDP=4.87D-04 DE=-3.40D-05 OVMax= 1.31D-03

 Cycle   7  Pass 1  IDiag  1:
 E= -829.686841015375     Delta-E=       -0.000005424805 Rises=F Damp=F
 DIIS: error= 3.62D-05 at cycle   7 NSaved=   7.
 NSaved= 7 IEnMin= 7 EnMin= -829.686841015375     IErMin= 7 ErrMin= 3.62D-05
 ErrMax= 3.62D-05  0.00D+00 EMaxC= 1.00D-01 BMatC= 1.59D-07 BMatP= 1.58D-06
 IDIUse=1 WtCom= 1.00D+00 WtEn= 0.00D+00
 Coeff-Com: -0.231D-03 0.170D-03 0.456D-02 0.202D-01-0.715D-01-0.214D+00
 Coeff-Com:  0.126D+01
 Coeff:     -0.231D-03 0.170D-03 0.456D-02 0.202D-01-0.715D-01-0.214D+00
 Coeff:      0.126D+01
 Gap=     0.302 Goal=   None    Shift=    0.000
 RMSDP=5.36D-06 MaxDP=1.62D-04 DE=-5.42D-06 OVMax= 4.65D-04

 Cycle   8  Pass 1  IDiag  1:
 E= -829.686841643389     Delta-E=       -0.000000628013 Rises=F Damp=F
 DIIS: error= 1.09D-05 at cycle   8 NSaved=   8.
 NSaved= 8 IEnMin= 8 EnMin= -829.686841643389     IErMin= 8 ErrMin= 1.09D-05
 ErrMax= 1.09D-05  0.00D+00 EMaxC= 1.00D-01 BMatC= 1.98D-08 BMatP= 1.59D-07
 IDIUse=1 WtCom= 1.00D+00 WtEn= 0.00D+00
 Coeff-Com:  0.116D-02-0.235D-02-0.152D-02 0.117D-01 0.299D-01-0.186D+00
 Coeff-Com:  0.750D-01 0.107D+01
 Coeff:      0.116D-02-0.235D-02-0.152D-02 0.117D-01 0.299D-01-0.186D+00
 Coeff:      0.750D-01 0.107D+01
 Gap=     0.302 Goal=   None    Shift=    0.000
 RMSDP=1.78D-06 MaxDP=4.06D-05 DE=-6.28D-07 OVMax= 1.83D-04

 Cycle   9  Pass 1  IDiag  1:
 E= -829.686841710142     Delta-E=       -0.000000066753 Rises=F Damp=F
 DIIS: error= 4.18D-06 at cycle   9 NSaved=   9.
 NSaved= 9 IEnMin= 9 EnMin= -829.686841710142     IErMin= 9 ErrMin= 4.18D-06
 ErrMax= 4.18D-06  0.00D+00 EMaxC= 1.00D-01 BMatC= 2.04D-09 BMatP= 1.98D-08
 IDIUse=1 WtCom= 1.00D+00 WtEn= 0.00D+00
 Coeff-Com: -0.335D-03 0.702D-03-0.206D-04-0.606D-02 0.334D-03 0.798D-01
 Coeff-Com: -0.138D+00-0.449D+00 0.151D+01
 Coeff:     -0.335D-03 0.702D-03-0.206D-04-0.606D-02 0.334D-03 0.798D-01
 Coeff:     -0.138D+00-0.449D+00 0.151D+01
 Gap=     0.302 Goal=   None    Shift=    0.000
 RMSDP=8.36D-07 MaxDP=2.68D-05 DE=-6.68D-08 OVMax= 9.26D-05

 Cycle  10  Pass 1  IDiag  1:
 E= -829.686841720687     Delta-E=       -0.000000010546 Rises=F Damp=F
 DIIS: error= 1.45D-06 at cycle  10 NSaved=  10.
 NSaved=10 IEnMin=10 EnMin= -829.686841720687     IErMin=10 ErrMin= 1.45D-06
 ErrMax= 1.45D-06  0.00D+00 EMaxC= 1.00D-01 BMatC= 1.96D-10 BMatP= 2.04D-09
 IDIUse=1 WtCom= 1.00D+00 WtEn= 0.00D+00
 Coeff-Com: -0.103D-04 0.145D-04 0.125D-03 0.775D-03-0.336D-02-0.464D-02
 Coeff-Com:  0.354D-01 0.210D-01-0.428D+00 0.138D+01
 Coeff:     -0.103D-04 0.145D-04 0.125D-03 0.775D-03-0.336D-02-0.464D-02
 Coeff:      0.354D-01 0.210D-01-0.428D+00 0.138D+01
 Gap=     0.302 Goal=   None    Shift=    0.000
 RMSDP=2.47D-07 MaxDP=7.26D-06 DE=-1.05D-08 OVMax= 2.94D-05

 Cycle  11  Pass 1  IDiag  1:
 E= -829.686841721720     Delta-E=       -0.000000001033 Rises=F Damp=F
 DIIS: error= 5.71D-07 at cycle  11 NSaved=  11.
 NSaved=11 IEnMin=11 EnMin= -829.686841721720     IErMin=11 ErrMin= 5.71D-07
 ErrMax= 5.71D-07  0.00D+00 EMaxC= 1.00D-01 BMatC= 2.07D-11 BMatP= 1.96D-10
 IDIUse=1 WtCom= 1.00D+00 WtEn= 0.00D+00
 Coeff-Com:  0.416D-04-0.874D-04-0.324D-05 0.738D-03 0.383D-04-0.986D-02
 Coeff-Com:  0.159D-01 0.521D-01-0.164D+00-0.106D+00 0.121D+01
 Coeff:      0.416D-04-0.874D-04-0.324D-05 0.738D-03 0.383D-04-0.986D-02
 Coeff:      0.159D-01 0.521D-01-0.164D+00-0.106D+00 0.121D+01
 Gap=     0.302 Goal=   None    Shift=    0.000
 RMSDP=8.68D-08 MaxDP=2.54D-06 DE=-1.03D-09 OVMax= 9.62D-06

 Cycle  12  Pass 1  IDiag  1:
 E= -829.686841721819     Delta-E=       -0.000000000099 Rises=F Damp=F
 DIIS: error= 1.43D-07 at cycle  12 NSaved=  12.
 NSaved=12 IEnMin=12 EnMin= -829.686841721819     IErMin=12 ErrMin= 1.43D-07
 ErrMax= 1.43D-07  0.00D+00 EMaxC= 1.00D-01 BMatC= 1.19D-12 BMatP= 2.07D-11
 IDIUse=1 WtCom= 1.00D+00 WtEn= 0.00D+00
 Coeff-Com: -0.241D-05 0.563D-05-0.112D-04-0.105D-03 0.322D-03 0.977D-03
 Coeff-Com: -0.380D-02-0.635D-02 0.453D-01-0.783D-01-0.157D+00 0.120D+01
 Coeff:     -0.241D-05 0.563D-05-0.112D-04-0.105D-03 0.322D-03 0.977D-03
 Coeff:     -0.380D-02-0.635D-02 0.453D-01-0.783D-01-0.157D+00 0.120D+01
 Gap=     0.302 Goal=   None    Shift=    0.000
 RMSDP=2.39D-08 MaxDP=1.15D-06 DE=-9.87D-11 OVMax= 1.68D-06

 Cycle  13  Pass 1  IDiag  1:
 E= -829.686841721823     Delta-E=       -0.000000000004 Rises=F Damp=F
 DIIS: error= 3.46D-08 at cycle  13 NSaved=  13.
 NSaved=13 IEnMin=13 EnMin= -829.686841721823     IErMin=13 ErrMin= 3.46D-08
 ErrMax= 3.46D-08  0.00D+00 EMaxC= 1.00D-01 BMatC= 1.07D-13 BMatP= 1.19D-12
 IDIUse=1 WtCom= 1.00D+00 WtEn= 0.00D+00
 Coeff-Com: -0.305D-05 0.644D-05-0.376D-06-0.510D-04-0.139D-04 0.710D-03
 Coeff-Com: -0.107D-02-0.354D-02 0.104D-01 0.141D-01-0.100D+00-0.304D-01
 Coeff-Com:  0.111D+01
 Coeff:     -0.305D-05 0.644D-05-0.376D-06-0.510D-04-0.139D-04 0.710D-03
 Coeff:     -0.107D-02-0.354D-02 0.104D-01 0.141D-01-0.100D+00-0.304D-01
 Coeff:      0.111D+01
 Gap=     0.302 Goal=   None    Shift=    0.000
 RMSDP=6.82D-09 MaxDP=4.17D-07 DE=-4.32D-12 OVMax= 4.79D-07

 SCF Done:  E(RHF) =  -829.686841722     A.U. after   13 cycles
            NFock= 13  Conv=0.68D-08     -V/T= 2.2849
 KE= 6.457364289464D+02 PE=-2.197376404682D+03 EE= 5.774455937558D+02
 Leave Link  502 at Tue Oct 12 15:34:57 2021, MaxMem=  1048576000 cpu:        17.3
 (Enter /usr/local/gaussian/g09/l801.exe)
 ExpMin= 2.53D-02 ExpMax= 4.56D+05 ExpMxC= 1.44D+03 IAcc=3 IRadAn=         5 AccDes= 0.00D+00
 HarFok:  IExCor=  205 AccDes= 0.00D+00 IRadAn=         5 IDoV=-2 UseB2=F ITyADJ=14
 ICtDFT= 12500011 ScaDFX=  1.000000  1.000000  1.000000  1.000000
 Defaulting to unpruned grid for atomic number  53.
 Defaulting to unpruned grid for atomic number  53.
 Defaulting to unpruned grid for atomic number  53.
 Defaulting to unpruned grid for atomic number  53.
 Defaulting to unpruned grid for atomic number  53.
 Defaulting to unpruned grid for atomic number  53.
 Defaulting to unpruned grid for atomic number  53.
 Defaulting to unpruned grid for atomic number  53.
 Defaulting to unpruned grid for atomic number  53.
 Defaulting to unpruned grid for atomic number  53.
 Defaulting to unpruned grid for atomic number  53.
 Defaulting to unpruned grid for atomic number  53.
 Largest valence mixing into a core orbital is  4.48D-04
 Largest core mixing into a valence orbital is  1.59D-04
 Range of M.O.s used for correlation:    11   174
 NBasis=   174 NAE=    26 NBE=    26 NFC=    10 NFV=     0
 NROrb=    164 NOA=    16 NOB=    16 NVA=   148 NVB=   148

 **** Warning!!: The largest alpha MO coefficient is  0.20412115D+02

 Leave Link  801 at Tue Oct 12 15:34:57 2021, MaxMem=  1048576000 cpu:         0.8
 (Enter /usr/local/gaussian/g09/l906.exe)
 Frozen-core derivative calculation, NFC=  10 NFV=   0.
 FulOut=F Deriv=T AODrv=F NAtomX=     4
   MMem=         239  MDisk=          16 MDiskD=          16
  W3Min=      922896 MinDsk=     1491158 NBas6D=         204
 NBas2D=       21411    NTT=       20910    LW2=    26219120
    MDV=  1048172203 MDiskM=       25641 NBas2p=       21407
 Fully in-core method, ICMem=   539113593.
 IMap=   1   2   3   4   5   6   7   8   9  10  11  12  13  14  15  16  17  18  19  20
 IMap=  21  22  23  24  25  26
 JobTyp=1 Pass  1 fully in-core, NPsUse= 12.
 Compute canonical integrals.
 FoFCou: FMM=F IPFlag=           0 FMFlag=           0 FMFlg1=           0
         NFxFlg=           0 DoJE=F BraDBF=F KetDBF=F FulRan=T
         wScrn=  0.000000 ICntrl=     600 IOpCl=  1 I1Cent=           0 NGrid=           0
         NMat0=    1 NMatS0=  21411 NMatT0=    0 NMatD0=    1 NMtDS0=    0 NMtDT0=    0
 Symmetry not used in FoFCou.
 Spin components of T(2) and E(2):
     alpha-alpha T2 =       0.3107186528D-01 E2=     -0.9113697623D-01
     alpha-beta  T2 =       0.1643015672D+00 E2=     -0.4969776659D+00
     beta-beta   T2 =       0.3107186528D-01 E2=     -0.9113697623D-01
 The integrals were generated   1 times.
 ANorm=    0.1107449908D+01
 E2 =    -0.6792516183D+00 EUMP2 =    -0.83036609334016D+03
 Leave Link  906 at Tue Oct 12 15:35:05 2021, MaxMem=  1048576000 cpu:       104.4
 (Enter /usr/local/gaussian/g09/l1002.exe)
 Minotr:  Closed shell wavefunction.
          Computing MP2/KS-MP2 derivatives.
          Using Z-Vector for PSCF gradient.
          Skipping F1 and S1 gradient terms here.
          Frozen-core window.
          Direct CPHF calculation.
          Differentiating once with respect to electric field.
                with respect to dipole field.
          Electric field/nuclear overlap derivatives assumed to be zero.
          Requested convergence is 1.0D-10 RMS, and 1.0D-09 maximum.
          NewPWx=F KeepS1=T KeepF1=T KeepIn=T MapXYZ=F SortEE=F KeepMc=T.
          MDV=    1048575800 using IRadAn=       0.
 Keep R1 ints in memory in canonical form, NReq=124351813.
 FoFCou: FMM=F IPFlag=           0 FMFlag=           0 FMFlg1=           0
         NFxFlg=           0 DoJE=F BraDBF=F KetDBF=F FulRan=T
         wScrn=  0.000000 ICntrl=     600 IOpCl=  0 I1Cent=           0 NGrid=           0
         NMat0=    1 NMatS0=  15225 NMatT0=    0 NMatD0=    1 NMtDS0=    0 NMtDT0=    0
 Symmetry not used in FoFCou.
          Solving linear equations separately, MaxMat=       0.
          There are     1 degrees of freedom in the 1st order CPHF.  IDoFFX=0 NUNeed=     1.
 LinEq1:  Iter=  0 NonCon=     1 RMS=2.81D-03 Max=4.35D-02 NDo=     1
 AX will form     1 AO Fock derivatives at one time.
 LinEq1:  Iter=  1 NonCon=     1 RMS=4.38D-04 Max=5.01D-03 NDo=     1
 LinEq1:  Iter=  2 NonCon=     1 RMS=1.91D-04 Max=3.38D-03 NDo=     1
 LinEq1:  Iter=  3 NonCon=     1 RMS=5.62D-05 Max=8.66D-04 NDo=     1
 LinEq1:  Iter=  4 NonCon=     1 RMS=2.58D-05 Max=7.59D-04 NDo=     1
 LinEq1:  Iter=  5 NonCon=     1 RMS=7.14D-06 Max=1.06D-04 NDo=     1
 LinEq1:  Iter=  6 NonCon=     1 RMS=1.77D-06 Max=2.16D-05 NDo=     1
 LinEq1:  Iter=  7 NonCon=     1 RMS=4.00D-07 Max=7.14D-06 NDo=     1
 LinEq1:  Iter=  8 NonCon=     1 RMS=9.82D-08 Max=2.01D-06 NDo=     1
 LinEq1:  Iter=  9 NonCon=     1 RMS=3.05D-08 Max=6.21D-07 NDo=     1
 LinEq1:  Iter= 10 NonCon=     1 RMS=8.69D-09 Max=1.65D-07 NDo=     1
 LinEq1:  Iter= 11 NonCon=     1 RMS=1.92D-09 Max=3.20D-08 NDo=     1
 LinEq1:  Iter= 12 NonCon=     1 RMS=4.43D-10 Max=7.11D-09 NDo=     1
 LinEq1:  Iter= 13 NonCon=     1 RMS=1.26D-10 Max=1.77D-09 NDo=     1
 LinEq1:  Iter= 14 NonCon=     0 RMS=2.59D-11 Max=4.61D-10 NDo=     1
 Linear equations converged to 1.000D-10 1.000D-09 after    14 iterations.
 End of Minotr F.D. properties file   721 does not exist.
 End of Minotr F.D. properties file   722 does not exist.
 End of Minotr F.D. properties file   788 does not exist.
 Leave Link 1002 at Tue Oct 12 15:35:09 2021, MaxMem=  1048576000 cpu:        16.5
 (Enter /usr/local/gaussian/g09/l601.exe)
 Copying SCF densities to generalized density rwf, IOpCl= 0 IROHF=0.

 **********************************************************************

            Population analysis using the MP2 density.

 **********************************************************************

 Alpha  occ. eigenvalues -- -104.74595 -20.47759 -10.46535  -7.93253  -7.92979
 Alpha  occ. eigenvalues --   -7.92968  -7.47544  -5.30117  -5.30067  -5.30064
 Alpha  occ. eigenvalues --   -2.02874  -2.02840  -2.02837  -2.02784  -2.02784
 Alpha  occ. eigenvalues --   -1.25824  -0.91528  -0.64168  -0.56635  -0.45977
 Alpha  occ. eigenvalues --   -0.45154  -0.32320  -0.29652  -0.16034  -0.15078
 Alpha  occ. eigenvalues --   -0.15071
 Alpha virt. eigenvalues --    0.15156   0.17506   0.21566   0.22552   0.24013
 Alpha virt. eigenvalues --    0.25033   0.25300   0.27294   0.29515   0.30465
 Alpha virt. eigenvalues --    0.30514   0.31228   0.34633   0.37507   0.37966
 Alpha virt. eigenvalues --    0.39081   0.42096   0.42830   0.44709   0.50173
 Alpha virt. eigenvalues --    0.52740   0.54369   0.55532   0.56462   0.56705
 Alpha virt. eigenvalues --    0.58477   0.63954   0.66124   0.74058   0.75321
 Alpha virt. eigenvalues --    0.75788   0.77038   0.77425   0.79324   0.79328
 Alpha virt. eigenvalues --    0.81174   0.82155   0.83228   0.83800   0.86141
 Alpha virt. eigenvalues --    0.87004   0.87623   0.88320   0.89069   0.89705
 Alpha virt. eigenvalues --    0.93008   0.95541   0.95861   0.99425   1.01890
 Alpha virt. eigenvalues --    1.03561   1.07918   1.09050   1.11114   1.11371
 Alpha virt. eigenvalues --    1.13258   1.19265   1.19461   1.21302   1.24039
 Alpha virt. eigenvalues --    1.25403   1.33398   1.33507   1.40365   1.44464
 Alpha virt. eigenvalues --    1.49474   1.53778   1.54790   1.60248   1.60828
 Alpha virt. eigenvalues --    1.66101   1.67717   1.72096   1.73255   1.74519
 Alpha virt. eigenvalues --    1.74649   1.76432   1.77695   1.80772   1.85885
 Alpha virt. eigenvalues --    1.87891   1.89818   1.90582   1.96187   2.05365
 Alpha virt. eigenvalues --    2.05381   2.10750   2.13890   2.15228   2.26927
 Alpha virt. eigenvalues --    2.36846   2.49505   2.52452   2.54428   2.56742
 Alpha virt. eigenvalues --    2.57343   2.59385   2.66990   2.68802   2.70642
 Alpha virt. eigenvalues --    2.70684   2.72512   2.75818   2.78121   2.89882
 Alpha virt. eigenvalues --    2.96648   3.02979   3.07750   3.17778   3.20268
 Alpha virt. eigenvalues --    3.20383   3.24043   3.27896   3.28113   3.29547
 Alpha virt. eigenvalues --    3.35608   3.51818   3.53263   3.54193   3.88709
 Alpha virt. eigenvalues --    3.94981   4.34175   4.44396   4.56509   4.58089
 Alpha virt. eigenvalues --    4.59393   4.77737   5.01628   5.19426   5.53238
 Alpha virt. eigenvalues --    5.53339   5.76704   6.36601   6.57391   6.83613
 Alpha virt. eigenvalues --    6.89235   6.89894   6.98002   7.31839   7.39273
 Alpha virt. eigenvalues --    7.43695   7.46058   7.51594   7.81746   7.85549
 Alpha virt. eigenvalues --    8.42532  15.91132  59.21657
          Condensed to atoms (all electrons):
               1          2          3          4
     1  O    8.662826  -0.112269  -0.080912  -0.014810
     2  Cl  -0.112269  17.047261   0.007607  -0.005157
     3  I   -0.080912   0.007607  25.897113   0.040208
     4  H   -0.014810  -0.005157   0.040208   0.723466
 Mulliken charges:
               1
     1  O   -0.454835
     2  Cl   0.062558
     3  I   -0.864015
     4  H    0.256293
 Sum of Mulliken charges =  -1.00000
 Mulliken charges with hydrogens summed into heavy atoms:
               1
     1  O   -0.198543
     2  Cl   0.062558
     3  I   -0.864015
 Electronic spatial extent (au):  <R**2>=           1306.6636
 Charge=             -1.0000 electrons
 Dipole moment (field-independent basis, Debye):
    X=              2.3403    Y=             11.9268    Z=              0.0000  Tot=             12.1543
 Quadrupole moment (field-independent basis, Debye-Ang):
   XX=            -55.5095   YY=            -94.6484   ZZ=            -53.3219
   XY=            -10.1374   XZ=             -0.0000   YZ=             -0.0000
 Traceless Quadrupole moment (field-independent basis, Debye-Ang):
   XX=             12.3171   YY=            -26.8218   ZZ=             14.5047
   XY=            -10.1374   XZ=             -0.0000   YZ=             -0.0000
 Octapole moment (field-independent basis, Debye-Ang**2):
  XXX=             14.6264  YYY=            457.0332  ZZZ=              0.0000  XYY=             34.7006
  XXY=            115.1056  XXZ=             -0.0000  XZZ=              2.6408  YZZ=            107.8487
  YYZ=              0.0000  XYZ=              0.0000
 Hexadecapole moment (field-independent basis, Debye-Ang**3):
 XXXX=           -408.5906 YYYY=          -2580.5103 ZZZZ=            -87.8391 XXXY=           -251.7272
 XXXZ=             -0.0000 YYYX=           -344.8122 YYYZ=             -0.0000 ZZZX=              0.0000
 ZZZY=             -0.0000 XXYY=           -457.1155 XXZZ=            -87.7280 YYZZ=           -375.7610
 XXYZ=              0.0000 YYXZ=             -0.0000 ZZXY=            -81.9725
 N-N= 1.445075402578D+02 E-N=-2.196929503781D+03  KE= 6.461053236198D+02
 No NMR shielding tensors so no spin-rotation constants.
 Leave Link  601 at Tue Oct 12 15:35:09 2021, MaxMem=  1048576000 cpu:         2.1
 (Enter /usr/local/gaussian/g09/l607.exe)
 ******************************Gaussian NBO Version 3.1******************************
             N A T U R A L   A T O M I C   O R B I T A L   A N D
          N A T U R A L   B O N D   O R B I T A L   A N A L Y S I S
 ******************************Gaussian NBO Version 3.1******************************
       /RESON  / : Allow strongly delocalized NBO set

 Analyzing the MP2 density

 Job title: title                                                           

 Storage needed:     91686 in NPA,    121697 in NBO (1048575896 available)


 NATURAL POPULATIONS:  Natural atomic orbital occupancies 
                                                          
   NAO  Atom  No  lang   Type(AO)    Occupancy
 --------------------------------------------
     1    O    1  S      Cor( 1S)     1.99966
     2    O    1  S      Val( 2S)     1.77307
     3    O    1  S      Ryd( 3S)     0.00935
     4    O    1  S      Ryd( 4S)     0.00113
     5    O    1  S      Ryd( 5S)     0.00021
     6    O    1  px     Val( 2p)     1.21590
     7    O    1  px     Ryd( 3p)     0.00648
     8    O    1  px     Ryd( 4p)     0.00061
     9    O    1  px     Ryd( 5p)     0.00033
    10    O    1  py     Val( 2p)     1.69457
    11    O    1  py     Ryd( 3p)     0.01181
    12    O    1  py     Ryd( 4p)     0.00077
    13    O    1  py     Ryd( 5p)     0.00046
    14    O    1  pz     Val( 2p)     1.94805
    15    O    1  pz     Ryd( 3p)     0.01971
    16    O    1  pz     Ryd( 4p)     0.00068
    17    O    1  pz     Ryd( 5p)     0.00015
    18    O    1  dxy    Ryd( 3d)     0.00882
    19    O    1  dxy    Ryd( 4d)     0.00047
    20    O    1  dxy    Ryd( 5d)     0.00015
    21    O    1  dxz    Ryd( 3d)     0.00859
    22    O    1  dxz    Ryd( 4d)     0.00056
    23    O    1  dxz    Ryd( 5d)     0.00010
    24    O    1  dyz    Ryd( 3d)     0.00795
    25    O    1  dyz    Ryd( 4d)     0.00058
    26    O    1  dyz    Ryd( 5d)     0.00034
    27    O    1  dx2y2  Ryd( 3d)     0.01345
    28    O    1  dx2y2  Ryd( 4d)     0.00032
    29    O    1  dx2y2  Ryd( 5d)     0.00018
    30    O    1  dz2    Ryd( 3d)     0.00988
    31    O    1  dz2    Ryd( 4d)     0.00054
    32    O    1  dz2    Ryd( 5d)     0.00015
    33    O    1  f(0)   Ryd( 4f)     0.00074
    34    O    1  f(0)   Ryd( 5f)     0.00010
    35    O    1  f(C1)  Ryd( 4f)     0.00067
    36    O    1  f(C1)  Ryd( 5f)     0.00011
    37    O    1  f(S1)  Ryd( 4f)     0.00056
    38    O    1  f(S1)  Ryd( 5f)     0.00011
    39    O    1  f(C2)  Ryd( 4f)     0.00057
    40    O    1  f(C2)  Ryd( 5f)     0.00012
    41    O    1  f(S2)  Ryd( 4f)     0.00053
    42    O    1  f(S2)  Ryd( 5f)     0.00012
    43    O    1  f(C3)  Ryd( 4f)     0.00057
    44    O    1  f(C3)  Ryd( 5f)     0.00014
    45    O    1  f(S3)  Ryd( 4f)     0.00053
    46    O    1  f(S3)  Ryd( 5f)     0.00014

    47   Cl    2  S      Cor( 1S)     2.00000
    48   Cl    2  S      Cor( 2S)     1.99980
    49   Cl    2  S      Val( 3S)     1.88429
    50   Cl    2  S      Ryd( 4S)     0.00752
    51   Cl    2  S      Ryd( 5S)     0.00052
    52   Cl    2  S      Ryd( 6S)     0.00017
    53   Cl    2  px     Cor( 2p)     1.99996
    54   Cl    2  px     Val( 3p)     0.89700
    55   Cl    2  px     Ryd( 4p)     0.00638
    56   Cl    2  px     Ryd( 5p)     0.00052
    57   Cl    2  px     Ryd( 6p)     0.00021
    58   Cl    2  py     Cor( 2p)     2.00003
    59   Cl    2  py     Val( 3p)     1.95318
    60   Cl    2  py     Ryd( 4p)     0.00966
    61   Cl    2  py     Ryd( 5p)     0.00052
    62   Cl    2  py     Ryd( 6p)     0.00012
    63   Cl    2  pz     Cor( 2p)     2.00003
    64   Cl    2  pz     Val( 3p)     1.95480
    65   Cl    2  pz     Ryd( 4p)     0.01035
    66   Cl    2  pz     Ryd( 5p)     0.00067
    67   Cl    2  pz     Ryd( 6p)     0.00003
    68   Cl    2  dxy    Ryd( 3d)     0.01631
    69   Cl    2  dxy    Ryd( 4d)     0.00072
    70   Cl    2  dxy    Ryd( 5d)     0.00031
    71   Cl    2  dxz    Ryd( 3d)     0.02105
    72   Cl    2  dxz    Ryd( 4d)     0.00099
    73   Cl    2  dxz    Ryd( 5d)     0.00036
    74   Cl    2  dyz    Ryd( 3d)     0.01676
    75   Cl    2  dyz    Ryd( 4d)     0.00074
    76   Cl    2  dyz    Ryd( 5d)     0.00018
    77   Cl    2  dx2y2  Ryd( 3d)     0.01858
    78   Cl    2  dx2y2  Ryd( 4d)     0.00048
    79   Cl    2  dx2y2  Ryd( 5d)     0.00016
    80   Cl    2  dz2    Ryd( 3d)     0.01749
    81   Cl    2  dz2    Ryd( 4d)     0.00060
    82   Cl    2  dz2    Ryd( 5d)     0.00014
    83   Cl    2  f(0)   Ryd( 4f)     0.00131
    84   Cl    2  f(0)   Ryd( 5f)     0.00013
    85   Cl    2  f(C1)  Ryd( 4f)     0.00144
    86   Cl    2  f(C1)  Ryd( 5f)     0.00014
    87   Cl    2  f(S1)  Ryd( 4f)     0.00127
    88   Cl    2  f(S1)  Ryd( 5f)     0.00013
    89   Cl    2  f(C2)  Ryd( 4f)     0.00134
    90   Cl    2  f(C2)  Ryd( 5f)     0.00013
    91   Cl    2  f(S2)  Ryd( 4f)     0.00119
    92   Cl    2  f(S2)  Ryd( 5f)     0.00013
    93   Cl    2  f(C3)  Ryd( 4f)     0.00154
    94   Cl    2  f(C3)  Ryd( 5f)     0.00013
    95   Cl    2  f(S3)  Ryd( 4f)     0.00125
    96   Cl    2  f(S3)  Ryd( 5f)     0.00013

    97    I    3  S      Cor( 4S)     1.99990
    98    I    3  S      Val( 5S)     1.97193
    99    I    3  S      Ryd( 6S)     0.00207
   100    I    3  S      Ryd( 7S)     0.00052
   101    I    3  S      Ryd( 8S)     0.00012
   102    I    3  S      Ryd( 9S)     0.00000
   103    I    3  px     Cor( 4p)     2.00004
   104    I    3  px     Val( 5p)     1.94707
   105    I    3  px     Ryd( 6p)     0.01054
   106    I    3  px     Ryd( 7p)     0.00073
   107    I    3  px     Ryd( 8p)     0.00010
   108    I    3  py     Cor( 4p)     1.99990
   109    I    3  py     Val( 5p)     1.88094
   110    I    3  py     Ryd( 6p)     0.00937
   111    I    3  py     Ryd( 7p)     0.00063
   112    I    3  py     Ryd( 8p)     0.00015
   113    I    3  pz     Cor( 4p)     2.00005
   114    I    3  pz     Val( 5p)     1.95122
   115    I    3  pz     Ryd( 6p)     0.01066
   116    I    3  pz     Ryd( 7p)     0.00073
   117    I    3  pz     Ryd( 8p)     0.00011
   118    I    3  dxy    Cor( 4d)     1.99671
   119    I    3  dxy    Ryd( 5d)     0.02017
   120    I    3  dxy    Ryd( 6d)     0.00135
   121    I    3  dxy    Ryd( 7d)     0.00019
   122    I    3  dxz    Cor( 4d)     1.99678
   123    I    3  dxz    Ryd( 5d)     0.02013
   124    I    3  dxz    Ryd( 6d)     0.00165
   125    I    3  dxz    Ryd( 7d)     0.00020
   126    I    3  dyz    Cor( 4d)     1.99674
   127    I    3  dyz    Ryd( 5d)     0.02039
   128    I    3  dyz    Ryd( 6d)     0.00135
   129    I    3  dyz    Ryd( 7d)     0.00017
   130    I    3  dx2y2  Cor( 4d)     1.99664
   131    I    3  dx2y2  Ryd( 5d)     0.01982
   132    I    3  dx2y2  Ryd( 6d)     0.00155
   133    I    3  dx2y2  Ryd( 7d)     0.00021
   134    I    3  dz2    Cor( 4d)     1.99673
   135    I    3  dz2    Ryd( 5d)     0.01997
   136    I    3  dz2    Ryd( 6d)     0.00163
   137    I    3  dz2    Ryd( 7d)     0.00017
   138    I    3  f(0)   Ryd( 4f)     0.00272
   139    I    3  f(0)   Ryd( 5f)     0.00044
   140    I    3  f(C1)  Ryd( 4f)     0.00275
   141    I    3  f(C1)  Ryd( 5f)     0.00043
   142    I    3  f(S1)  Ryd( 4f)     0.00276
   143    I    3  f(S1)  Ryd( 5f)     0.00045
   144    I    3  f(C2)  Ryd( 4f)     0.00271
   145    I    3  f(C2)  Ryd( 5f)     0.00043
   146    I    3  f(S2)  Ryd( 4f)     0.00277
   147    I    3  f(S2)  Ryd( 5f)     0.00045
   148    I    3  f(C3)  Ryd( 4f)     0.00268
   149    I    3  f(C3)  Ryd( 5f)     0.00044
   150    I    3  f(S3)  Ryd( 4f)     0.00271
   151    I    3  f(S3)  Ryd( 5f)     0.00045

   152    H    4  S      Val( 1S)     0.49775
   153    H    4  S      Ryd( 2S)     0.00966
   154    H    4  S      Ryd( 3S)     0.00034
   155    H    4  S      Ryd( 4S)     0.00012
   156    H    4  px     Ryd( 2p)     0.00414
   157    H    4  px     Ryd( 3p)     0.00052
   158    H    4  px     Ryd( 4p)     0.00012
   159    H    4  py     Ryd( 2p)     0.00540
   160    H    4  py     Ryd( 3p)     0.00081
   161    H    4  py     Ryd( 4p)     0.00042
   162    H    4  pz     Ryd( 2p)     0.00562
   163    H    4  pz     Ryd( 3p)     0.00043
   164    H    4  pz     Ryd( 4p)     0.00019
   165    H    4  dxy    Ryd( 3d)     0.00034
   166    H    4  dxy    Ryd( 4d)     0.00012
   167    H    4  dxz    Ryd( 3d)     0.00024
   168    H    4  dxz    Ryd( 4d)     0.00007
   169    H    4  dyz    Ryd( 3d)     0.00047
   170    H    4  dyz    Ryd( 4d)     0.00012
   171    H    4  dx2y2  Ryd( 3d)     0.00024
   172    H    4  dx2y2  Ryd( 4d)     0.00012
   173    H    4  dz2    Ryd( 3d)     0.00025
   174    H    4  dz2    Ryd( 4d)     0.00010

 [ 28 electrons found in the effective core potential]

 WARNING:  5 low occupancy (<1.9990e) core orbitals found on  I    3


 Summary of Natural Population Analysis:                  
                                                          
                                       Natural Population 
                Natural  -----------------------------------------------
    Atom  No    Charge         Core      Valence    Rydberg      Total
 -----------------------------------------------------------------------
      O    1   -0.73999      1.99966     6.63159    0.10874     8.73999
     Cl    2    0.16912      9.99982     6.68927    0.14179    16.83088
      I    3   -0.90154     45.98349     7.75117    0.16688    53.90154
      H    4    0.47241      0.00000     0.49775    0.02984     0.52759
 =======================================================================
   * Total *   -1.00000     57.98297    21.56978    0.44725    80.00000

                                 Natural Population      
 --------------------------------------------------------
   Effective Core            28.00000
   Core                      29.98297 ( 99.9432% of  30)
   Valence                   21.56978 ( 98.0445% of  22)
   Natural Minimal Basis     79.55275 ( 99.4409% of  80)
   Natural Rydberg Basis      0.44725 (  0.5591% of  80)
 --------------------------------------------------------

    Atom  No          Natural Electron Configuration
 ----------------------------------------------------------------------------
      O    1      [core]2S( 1.77)2p( 4.86)3S( 0.01)3p( 0.04)3d( 0.05)
     Cl    2      [core]3S( 1.88)3p( 4.80)4S( 0.01)3d( 0.09)4p( 0.03)4f( 0.01)
      I    3      [core]5S( 1.97)5p( 5.78)4f( 0.02)5d( 0.10)6p( 0.03)6d( 0.01)
      H    4            1S( 0.50)2S( 0.01)2p( 0.02)


 NATURAL BOND ORBITAL ANALYSIS:

                       Occupancies       Lewis Structure    Low   High
           Occ.    -------------------  -----------------   occ   occ
  Cycle   Thresh.   Lewis   Non-Lewis     CR  BD  3C  LP    (L)   (NL)   Dev
 =============================================================================
   1(1)    1.90    79.44697   0.55303     15   2   0   9     1      0    0.11
   2(2)    1.90    79.44697   0.55303     15   2   0   9     1      0    0.11
   3(1)    1.80    79.44697   0.55303     15   2   0   9     0      0    0.11
   4(2)    1.80    79.44697   0.55303     15   2   0   9     0      0    0.11
   5(1)    1.70    79.44697   0.55303     15   2   0   9     0      0    0.11
   6(2)    1.70    79.44697   0.55303     15   2   0   9     0      0    0.11
   7(1)    1.60    79.44697   0.55303     15   2   0   9     0      0    0.11
   8(2)    1.60    79.44697   0.55303     15   2   0   9     0      0    0.11
   9(1)    1.50    79.04255   0.95745     15   1   0  10     0      1    0.61
  10(2)    1.50    79.04255   0.95745     15   1   0  10     0      1    0.61
  11(1)    1.90    79.44697   0.55303     15   2   0   9     1      0    0.11
 -----------------------------------------------------------------------------

 Structure accepted: RESONANCE keyword permits strongly delocalized structure

 WARNING:  5 low occupancy (<1.9990e) core orbitals found on  I    3

 --------------------------------------------------------
   Effective Core           28.00000
   Core                     29.98297 ( 99.943% of  30)
   Valence Lewis            21.46400 ( 97.564% of  22)
  ==================       ============================
   Total Lewis              79.44697 ( 99.309% of  80)
  -----------------------------------------------------
   Valence non-Lewis         0.15134 (  0.189% of  80)
   Rydberg non-Lewis         0.40168 (  0.502% of  80)
  ==================       ============================
   Total non-Lewis           0.55303 (  0.691% of  80)
 --------------------------------------------------------


       (Occupancy)   Bond orbital/ Coefficients/ Hybrids
 ---------------------------------------------------------------------------------
     1. (1.93981) BD ( 1) O   1 -Cl   2  
                ( 59.39%)   0.7707* O   1 s( 10.58%)p 8.40( 88.90%)d 0.05(  0.50%)
                                                  f 0.00(  0.02%)
                                            0.0003  0.3228 -0.0372 -0.0133 -0.0008
                                            0.9416 -0.0277 -0.0100 -0.0100 -0.0225
                                           -0.0298 -0.0048 -0.0000  0.0000  0.0000
                                            0.0000  0.0000 -0.0240 -0.0020  0.0021
                                            0.0000  0.0000  0.0000  0.0000  0.0000
                                            0.0000  0.0511  0.0042  0.0022 -0.0423
                                           -0.0036  0.0007  0.0000  0.0000 -0.0116
                                            0.0012 -0.0002  0.0001  0.0000  0.0000
                                            0.0000  0.0000  0.0051  0.0009 -0.0002
                                            0.0021
                ( 40.61%)   0.6373*Cl   2 s(  8.25%)p10.96( 90.46%)d 0.14(  1.18%)
                                                  f 0.01(  0.11%)
                                           -0.0000  0.0005  0.2821 -0.0530 -0.0096
                                            0.0029 -0.0004 -0.9487  0.0650  0.0138
                                           -0.0038 -0.0000 -0.0111 -0.0018  0.0025
                                           -0.0007  0.0000  0.0000  0.0000  0.0000
                                            0.0000  0.0133  0.0000  0.0009  0.0000
                                            0.0000  0.0000  0.0000  0.0000  0.0000
                                            0.0906 -0.0099 -0.0001 -0.0576  0.0055
                                            0.0009  0.0000  0.0000  0.0210 -0.0033
                                            0.0005 -0.0003  0.0000  0.0000  0.0000
                                            0.0000 -0.0253  0.0026 -0.0013  0.0002
     2. (1.96709) BD ( 1) O   1 - H   4  
                ( 78.40%)   0.8855* O   1 s( 30.67%)p 2.24( 68.83%)d 0.02(  0.49%)
                                                  f 0.00(  0.01%)
                                           -0.0003 -0.5536  0.0110  0.0079 -0.0014
                                            0.2069 -0.0187 -0.0028 -0.0027  0.8031
                                           -0.0117 -0.0067 -0.0044  0.0000  0.0000
                                            0.0000  0.0000 -0.0014  0.0030  0.0001
                                            0.0000  0.0000  0.0000  0.0000  0.0000
                                            0.0000  0.0591  0.0046  0.0026  0.0373
                                            0.0009 -0.0025  0.0000  0.0000 -0.0017
                                           -0.0007 -0.0085 -0.0005  0.0000  0.0000
                                            0.0000  0.0000 -0.0018 -0.0026  0.0004
                                           -0.0026
                ( 21.60%)   0.4647* H   4 s( 99.86%)p 0.00(  0.14%)d 0.00(  0.00%)
                                           -0.9984 -0.0411 -0.0018  0.0006 -0.0117
                                           -0.0076  0.0010  0.0154 -0.0293 -0.0111
                                            0.0000  0.0000  0.0000  0.0000  0.0022
                                            0.0000  0.0000  0.0000  0.0000  0.0015
                                            0.0006 -0.0003  0.0029
     3. (1.99966) CR ( 1) O   1           s(100.00%)p 0.00(  0.00%)
                                            1.0000 -0.0004  0.0000  0.0000  0.0000
                                           -0.0002  0.0000  0.0000  0.0000  0.0001
                                            0.0000 -0.0000 -0.0000  0.0000  0.0000
                                            0.0000  0.0000  0.0000  0.0000  0.0000
                                            0.0000  0.0000  0.0000  0.0000  0.0000
                                            0.0000 -0.0000 -0.0000  0.0000  0.0000
                                            0.0000 -0.0000  0.0000  0.0000  0.0000
                                           -0.0000 -0.0000 -0.0000  0.0000  0.0000
                                            0.0000  0.0000 -0.0000 -0.0000 -0.0000
                                           -0.0000
     4. (2.00000) CR ( 1)Cl   2           s(100.00%)
                                            1.0000  0.0000  0.0000 -0.0000 -0.0000
                                            0.0000 -0.0000 -0.0000  0.0000  0.0000
                                           -0.0000 -0.0000 -0.0000 -0.0000  0.0000
                                           -0.0000  0.0000  0.0000  0.0000  0.0000
                                            0.0000  0.0000 -0.0000  0.0000  0.0000
                                            0.0000  0.0000  0.0000  0.0000  0.0000
                                            0.0000 -0.0000  0.0000 -0.0000  0.0000
                                            0.0000  0.0000  0.0000  0.0000 -0.0000
                                            0.0000 -0.0000  0.0000  0.0000  0.0000
                                            0.0000 -0.0000  0.0000 -0.0000  0.0000
     5. (1.99980) CR ( 2)Cl   2           s(100.00%)p 0.00(  0.00%)
                                            0.0000  1.0000 -0.0004  0.0000  0.0000
                                           -0.0000  0.0000  0.0004 -0.0000 -0.0000
                                            0.0000  0.0000  0.0000  0.0000 -0.0000
                                            0.0000  0.0000  0.0000  0.0000  0.0000
                                            0.0000 -0.0000  0.0000 -0.0000  0.0000
                                            0.0000  0.0000  0.0000  0.0000  0.0000
                                           -0.0000  0.0000 -0.0000  0.0000 -0.0000
                                           -0.0000  0.0000  0.0000 -0.0000  0.0000
                                           -0.0000  0.0000  0.0000  0.0000  0.0000
                                            0.0000  0.0000 -0.0000  0.0000 -0.0000
     6. (1.99996) CR ( 3)Cl   2           s(  0.00%)p 1.00(100.00%)
                                           -0.0000  0.0000  0.0001 -0.0000 -0.0000
                                            0.0000  1.0000 -0.0004  0.0000  0.0000
                                           -0.0000  0.0000 -0.0000 -0.0000  0.0000
                                           -0.0000  0.0000  0.0000  0.0000  0.0000
                                            0.0000  0.0000 -0.0000  0.0000  0.0000
                                            0.0000  0.0000  0.0000  0.0000  0.0000
                                            0.0000 -0.0000  0.0000 -0.0000  0.0000
                                            0.0000  0.0000  0.0000  0.0000 -0.0000
                                            0.0000 -0.0000  0.0000  0.0000  0.0000
                                            0.0000 -0.0000  0.0000 -0.0000  0.0000
     7. (2.00003) CR ( 4)Cl   2           s(  0.00%)p 1.00(100.00%)
                                           -0.0000  0.0000  0.0000  0.0000  0.0000
                                            0.0000  0.0000 -0.0000  0.0000  0.0000
                                           -0.0000  1.0000  0.0002  0.0000  0.0000
                                            0.0000  0.0000  0.0000  0.0000  0.0000
                                            0.0000 -0.0000  0.0000  0.0000  0.0000
                                            0.0000  0.0000  0.0000  0.0000  0.0000
                                           -0.0000 -0.0000 -0.0000 -0.0000 -0.0000
                                           -0.0000  0.0000  0.0000  0.0000  0.0000
                                           -0.0000  0.0000  0.0000  0.0000  0.0000
                                            0.0000 -0.0000  0.0000  0.0000 -0.0000
     8. (2.00003) CR ( 5)Cl   2           s(  0.00%)p 1.00(100.00%)
                                            0.0000  0.0000  0.0000  0.0000  0.0000
                                            0.0000  0.0000  0.0000  0.0000  0.0000
                                            0.0000  0.0000  0.0000  0.0000  0.0000
                                            0.0000  1.0000  0.0002  0.0000  0.0000
                                           -0.0000  0.0000  0.0000  0.0000  0.0000
                                            0.0000  0.0000  0.0000  0.0000  0.0000
                                            0.0000  0.0000  0.0000  0.0000  0.0000
                                            0.0000 -0.0000  0.0000  0.0000  0.0000
                                            0.0000  0.0000  0.0000 -0.0000  0.0000
                                           -0.0000  0.0000  0.0000  0.0000  0.0000
     9. (1.99990) CR ( 1) I   3           s(100.00%)
                                            1.0000 -0.0001 -0.0000 -0.0000  0.0000
                                            0.0000  0.0000  0.0000 -0.0000  0.0000
                                            0.0000  0.0000  0.0000 -0.0000  0.0000
                                           -0.0000  0.0000  0.0000  0.0000  0.0000
                                            0.0000  0.0000  0.0000  0.0000 -0.0000
                                            0.0000  0.0000  0.0000  0.0000  0.0000
                                            0.0000  0.0000  0.0000 -0.0000  0.0000
                                           -0.0000 -0.0000 -0.0000 -0.0000 -0.0000
                                           -0.0000  0.0000  0.0000  0.0000 -0.0000
                                            0.0000  0.0000  0.0000  0.0000  0.0000
                                            0.0000  0.0000  0.0000  0.0000  0.0000
    10. (2.00004) CR ( 2) I   3           s(  0.00%)p 1.00(100.00%)
                                            0.0000  0.0000  0.0000  0.0000 -0.0000
                                            0.0000  1.0000 -0.0003 -0.0000 -0.0000
                                            0.0000  0.0000  0.0001  0.0000  0.0000
                                           -0.0000  0.0000  0.0000  0.0000  0.0000
                                            0.0000  0.0000 -0.0000  0.0000  0.0000
                                            0.0000  0.0000  0.0000  0.0000  0.0000
                                            0.0000  0.0000  0.0000  0.0000 -0.0000
                                           -0.0000  0.0000  0.0000 -0.0000  0.0000
                                           -0.0000  0.0000  0.0000  0.0000  0.0000
                                           -0.0000 -0.0000  0.0000  0.0000  0.0000
                                            0.0000  0.0000  0.0000 -0.0000 -0.0000
    11. (1.99990) CR ( 3) I   3           s(  0.00%)p 1.00(100.00%)
                                            0.0000  0.0002 -0.0000  0.0000 -0.0000
                                           -0.0000  0.0000  0.0001  0.0000  0.0000
                                           -0.0000  1.0000 -0.0001  0.0000 -0.0000
                                            0.0000  0.0000  0.0000  0.0000  0.0000
                                            0.0000 -0.0000  0.0000 -0.0000 -0.0000
                                            0.0000  0.0000  0.0000  0.0000  0.0000
                                            0.0000  0.0000  0.0000  0.0000  0.0000
                                            0.0000 -0.0000  0.0000  0.0000  0.0000
                                            0.0000  0.0000  0.0000 -0.0000 -0.0000
                                           -0.0000 -0.0000  0.0000  0.0000  0.0000
                                            0.0000 -0.0000 -0.0000  0.0000  0.0000
    12. (2.00004) CR ( 4) I   3           s(  0.00%)p 1.00(100.00%)
                                            0.0000  0.0000  0.0000  0.0000  0.0000
                                            0.0000  0.0000  0.0000  0.0000  0.0000
                                            0.0000  0.0000  0.0000  0.0000  0.0000
                                            0.0000  1.0000 -0.0003 -0.0000 -0.0000
                                            0.0000  0.0000  0.0000  0.0000  0.0000
                                            0.0000 -0.0000  0.0000  0.0000  0.0000
                                           -0.0000  0.0000  0.0000  0.0000  0.0000
                                            0.0000  0.0000  0.0000  0.0000  0.0000
                                            0.0000  0.0000  0.0000  0.0000  0.0000
                                            0.0000  0.0000  0.0000  0.0000 -0.0000
                                           -0.0000  0.0000  0.0000  0.0000  0.0000
    13. (1.99671) CR ( 5) I   3           s(  0.00%)p 0.00(  0.00%)d 1.00(100.00%)
                                            0.0000  0.0000 -0.0000  0.0000  0.0000
                                           -0.0000  0.0000  0.0000  0.0000  0.0000
                                           -0.0000 -0.0000 -0.0000  0.0000 -0.0000
                                            0.0000  0.0000  0.0000  0.0000  0.0000
                                            0.0000  1.0000  0.0000 -0.0000 -0.0000
                                            0.0000  0.0000  0.0000  0.0000  0.0000
                                            0.0000  0.0000  0.0000  0.0000  0.0000
                                            0.0000 -0.0000  0.0000  0.0000  0.0000
                                            0.0000  0.0000  0.0000 -0.0000 -0.0000
                                           -0.0000 -0.0000  0.0000  0.0000  0.0000
                                            0.0000 -0.0000 -0.0000  0.0000  0.0000
    14. (1.99678) CR ( 6) I   3           s(  0.00%)p 0.00(  0.00%)d 1.00(100.00%)
                                            0.0000  0.0000  0.0000  0.0000  0.0000
                                            0.0000  0.0000  0.0000  0.0000  0.0000
                                            0.0000  0.0000  0.0000  0.0000  0.0000
                                            0.0000  0.0000  0.0000  0.0000  0.0000
                                           -0.0000  0.0000  0.0000  0.0000  0.0000
                                            1.0000  0.0000 -0.0000 -0.0000 -0.0000
                                            0.0000 -0.0000 -0.0000  0.0000  0.0000
                                            0.0000  0.0000  0.0000  0.0000  0.0000
                                            0.0000 -0.0000 -0.0000  0.0000  0.0000
                                            0.0000  0.0000 -0.0000 -0.0000  0.0000
                                            0.0000  0.0000  0.0000  0.0000  0.0000
    15. (1.99674) CR ( 7) I   3           s(  0.00%)p 0.00(  0.00%)d 1.00(100.00%)
                                            0.0000  0.0000  0.0000  0.0000  0.0000
                                            0.0000  0.0000  0.0000  0.0000  0.0000
                                            0.0000  0.0000  0.0000  0.0000  0.0000
                                            0.0000  0.0000  0.0000  0.0000  0.0000
                                           -0.0000  0.0000  0.0000  0.0000  0.0000
                                           -0.0000  0.0000 -0.0000 -0.0000  1.0000
                                            0.0000 -0.0000 -0.0000  0.0000  0.0000
                                            0.0000  0.0000  0.0000  0.0000  0.0000
                                            0.0000 -0.0000 -0.0000  0.0000  0.0000
                                            0.0000  0.0000 -0.0000 -0.0000  0.0000
                                            0.0000  0.0000  0.0000  0.0000  0.0000
    16. (1.99664) CR ( 8) I   3           s(  0.00%)p 0.00(  0.00%)d 1.00(100.00%)
                                           -0.0000 -0.0001 -0.0000 -0.0000  0.0000
                                            0.0000  0.0000  0.0000  0.0000  0.0000
                                            0.0000  0.0000  0.0000 -0.0000  0.0000
                                            0.0000  0.0000  0.0000  0.0000  0.0000
                                            0.0000  0.0000  0.0000 -0.0000 -0.0000
                                            0.0000  0.0000  0.0000  0.0000  0.0000
                                            0.0000  0.0000  0.0000  1.0000  0.0000
                                           -0.0000 -0.0000 -0.0000 -0.0000 -0.0000
                                           -0.0000  0.0000  0.0000 -0.0000 -0.0000
                                            0.0000  0.0000  0.0000  0.0000  0.0000
                                            0.0000 -0.0000 -0.0000  0.0000  0.0000
    17. (1.99673) CR ( 9) I   3           s(  0.00%)p 0.00(  0.00%)d 1.00(100.00%)
                                           -0.0000 -0.0000 -0.0000 -0.0000  0.0000
                                            0.0000  0.0000  0.0000 -0.0000  0.0000
                                            0.0000  0.0000  0.0000 -0.0000  0.0000
                                           -0.0000  0.0000  0.0000  0.0000  0.0000
                                            0.0000  0.0000 -0.0000  0.0000  0.0000
                                            0.0000  0.0000  0.0000  0.0000  0.0000
                                            0.0000  0.0000  0.0000 -0.0000 -0.0000
                                           -0.0000  0.0000  1.0000 -0.0000 -0.0000
                                           -0.0000  0.0000  0.0000  0.0000  0.0000
                                            0.0000  0.0000  0.0000  0.0000  0.0000
                                            0.0000  0.0000  0.0000  0.0000  0.0000
    18. (1.96666) LP ( 1) O   1           s( 58.86%)p 0.70( 41.03%)d 0.00(  0.11%)
                                                  f 0.00(  0.00%)
                                            0.0002  0.7670  0.0139  0.0081 -0.0010
                                           -0.2479 -0.0040 -0.0039 -0.0023  0.5905
                                            0.0092  0.0056  0.0016  0.0000  0.0000
                                            0.0000  0.0000  0.0233  0.0025 -0.0032
                                            0.0000  0.0000  0.0000  0.0000  0.0000
                                            0.0000  0.0179  0.0004 -0.0040  0.0131
                                            0.0006  0.0005  0.0000  0.0000  0.0000
                                            0.0005 -0.0031  0.0003  0.0000  0.0000
                                            0.0000  0.0000  0.0038 -0.0023  0.0035
                                           -0.0018
    19. (1.95308) LP ( 2) O   1           s(  0.00%)p 1.00( 99.79%)d 0.00(  0.19%)
                                                  f 0.00(  0.01%)
                                            0.0000  0.0000  0.0000  0.0000  0.0000
                                            0.0000  0.0000  0.0000  0.0000  0.0000
                                            0.0000  0.0000  0.0000  0.9987  0.0212
                                            0.0059  0.0065  0.0000  0.0000  0.0000
                                            0.0294  0.0051 -0.0004 -0.0299  0.0032
                                            0.0113  0.0000  0.0000  0.0000  0.0000
                                            0.0000  0.0000 -0.0109  0.0009  0.0000
                                            0.0000  0.0000  0.0000  0.0038 -0.0020
                                            0.0013  0.0011  0.0000  0.0000  0.0000
                                            0.0000
    20. (1.97384) LP ( 1)Cl   2           s( 91.83%)p 0.09(  8.15%)d 0.00(  0.02%)
                                                  f 0.00(  0.00%)
                                            0.0000  0.0003  0.9583  0.0060  0.0010
                                           -0.0004  0.0000  0.2829 -0.0062 -0.0030
                                            0.0011  0.0000 -0.0376  0.0011  0.0002
                                           -0.0005  0.0000  0.0000  0.0000  0.0000
                                            0.0000  0.0001 -0.0004 -0.0006  0.0000
                                            0.0000  0.0000  0.0000  0.0000  0.0000
                                           -0.0119  0.0004  0.0000  0.0075  0.0006
                                            0.0005  0.0000  0.0000 -0.0020 -0.0004
                                            0.0001 -0.0000  0.0000  0.0000  0.0000
                                            0.0000  0.0034  0.0000 -0.0006  0.0002
    21. (1.95623) LP ( 2)Cl   2           s(  0.00%)p 1.00( 99.95%)d 0.00(  0.04%)
                                                  f 0.00(  0.01%)
                                            0.0000  0.0000  0.0000  0.0000  0.0000
                                            0.0000  0.0000  0.0000  0.0000  0.0000
                                            0.0000  0.0000  0.0000  0.0000  0.0000
                                            0.0000 -0.0002  0.9996  0.0150  0.0051
                                           -0.0022  0.0000  0.0000  0.0000  0.0064
                                            0.0163  0.0088  0.0031  0.0028  0.0009
                                            0.0000  0.0000  0.0000  0.0000  0.0000
                                            0.0000 -0.0056  0.0009  0.0000  0.0000
                                            0.0000  0.0000  0.0066 -0.0008  0.0010
                                           -0.0008  0.0000  0.0000  0.0000  0.0000
    22. (1.95457) LP ( 3)Cl   2           s(  0.16%)p99.99( 99.80%)d 0.22(  0.03%)
                                                  f 0.05(  0.01%)
                                            0.0000 -0.0000  0.0393  0.0055  0.0040
                                            0.0018  0.0000 -0.0010 -0.0003 -0.0005
                                           -0.0007 -0.0002  0.9989  0.0129  0.0014
                                            0.0004  0.0000  0.0000  0.0000  0.0000
                                            0.0000 -0.0030  0.0134  0.0081  0.0000
                                            0.0000  0.0000  0.0000  0.0000  0.0000
                                           -0.0074 -0.0045 -0.0031 -0.0004 -0.0024
                                           -0.0005  0.0000  0.0000  0.0000  0.0003
                                           -0.0025  0.0002  0.0000  0.0000  0.0000
                                            0.0000 -0.0014  0.0003  0.0087 -0.0012
    23. (1.97820) LP ( 1) I   3           s( 94.16%)p 0.06(  5.84%)d 0.00(  0.00%)
                                                  f 0.00(  0.00%)
                                            0.0001  0.9704  0.0000  0.0009 -0.0004
                                           -0.0001 -0.0000 -0.0616  0.0002 -0.0001
                                           -0.0002 -0.0002 -0.2337  0.0008 -0.0006
                                            0.0000  0.0000  0.0000  0.0000  0.0000
                                            0.0000 -0.0000  0.0000 -0.0001  0.0000
                                            0.0000  0.0000  0.0000  0.0000  0.0000
                                            0.0000  0.0000  0.0000  0.0001 -0.0001
                                            0.0003 -0.0000  0.0000  0.0001  0.0001
                                            0.0000  0.0000  0.0000 -0.0000 -0.0000
                                           -0.0002 -0.0002  0.0000  0.0000  0.0000
                                            0.0000 -0.0002 -0.0001 -0.0002 -0.0002
    24. (1.95141) LP ( 2) I   3           s(  0.00%)p 1.00( 99.99%)d 0.00(  0.01%)
                                                  f 0.00(  0.00%)
                                            0.0000  0.0000  0.0000  0.0000  0.0000
                                            0.0000  0.0000  0.0000  0.0000  0.0000
                                            0.0000  0.0000  0.0000  0.0000  0.0000
                                            0.0000  0.0003  1.0000  0.0029  0.0016
                                           -0.0003  0.0000  0.0000  0.0000  0.0000
                                           -0.0000  0.0017 -0.0002 -0.0004 -0.0000
                                            0.0077 -0.0013 -0.0017  0.0000  0.0000
                                            0.0000  0.0000  0.0000  0.0000  0.0000
                                            0.0000 -0.0023 -0.0013  0.0000  0.0000
                                            0.0000  0.0000 -0.0025 -0.0013  0.0013
                                            0.0008  0.0000  0.0000  0.0000  0.0000
    25. (1.95109) LP ( 3) I   3           s(  0.00%)p 1.00( 99.99%)d 0.00(  0.01%)
                                                  f 0.00(  0.00%)
                                           -0.0000  0.0066 -0.0003 -0.0003  0.0007
                                           -0.0002  0.0003  0.9733  0.0027  0.0014
                                           -0.0004 -0.0001 -0.2294 -0.0007 -0.0005
                                            0.0002  0.0000  0.0000  0.0000  0.0000
                                            0.0000 -0.0000  0.0079 -0.0009 -0.0017
                                            0.0000  0.0000  0.0000  0.0000  0.0000
                                            0.0000  0.0000  0.0000 -0.0000  0.0029
                                            0.0003 -0.0015  0.0000  0.0001 -0.0000
                                            0.0001  0.0000  0.0000 -0.0009 -0.0005
                                            0.0001  0.0000  0.0000  0.0000  0.0000
                                            0.0000 -0.0027 -0.0013  0.0019  0.0008
    26. (1.87202) LP ( 4) I   3           s(  5.83%)p16.13( 94.11%)d 0.01(  0.05%)
                                                  f 0.00(  0.01%)
                                           -0.0000  0.2415 -0.0002 -0.0040  0.0015
                                            0.0005  0.0000  0.2209 -0.0015 -0.0008
                                            0.0006  0.0000  0.9446 -0.0057 -0.0034
                                            0.0006  0.0000  0.0000  0.0000  0.0000
                                            0.0000  0.0000  0.0081 -0.0012 -0.0007
                                            0.0000  0.0000  0.0000  0.0000  0.0000
                                            0.0000  0.0000  0.0000 -0.0000 -0.0165
                                            0.0018  0.0020 -0.0000 -0.0115  0.0017
                                            0.0005  0.0000  0.0000 -0.0012 -0.0007
                                           -0.0049 -0.0026  0.0000  0.0000  0.0000
                                            0.0000 -0.0039 -0.0018 -0.0047 -0.0017
    27. (0.01906) RY*( 1) O   1           s(  0.00%)p 1.00( 98.65%)d 0.01(  1.30%)
                                                  f 0.00(  0.05%)
                                            0.0000  0.0000  0.0000  0.0000  0.0000
                                            0.0000  0.0000  0.0000  0.0000  0.0000
                                            0.0000  0.0000  0.0000 -0.0258  0.9919
                                           -0.0419 -0.0115  0.0000  0.0000  0.0000
                                            0.0847  0.0275  0.0096 -0.0685  0.0011
                                            0.0173  0.0000  0.0000  0.0000  0.0000
                                            0.0000  0.0000 -0.0117  0.0109  0.0000
                                            0.0000  0.0000  0.0000  0.0122 -0.0101
                                           -0.0034  0.0013  0.0000  0.0000  0.0000
                                            0.0000
    28. (0.01580) RY*( 2) O   1           s( 31.45%)p 2.11( 66.31%)d 0.06(  2.02%)
                                                  f 0.01(  0.22%)
                                           -0.0000  0.0007  0.5594 -0.0388 -0.0062
                                            0.0380 -0.3447 -0.0007  0.0180 -0.0186
                                            0.7341  0.0015 -0.0573  0.0000  0.0000
                                            0.0000  0.0000  0.1259  0.0257  0.0059
                                            0.0000  0.0000  0.0000  0.0000  0.0000
                                            0.0000  0.0282  0.0030  0.0013  0.0528
                                            0.0015 -0.0058  0.0000  0.0000 -0.0039
                                            0.0008  0.0059  0.0006  0.0000  0.0000
                                            0.0000  0.0000  0.0344 -0.0154  0.0243
                                           -0.0122
    29. (0.00785) RY*( 3) O   1           s( 15.71%)p 0.46(  7.27%)d 4.82( 75.69%)
                                                  f 0.08(  1.33%)
                                           -0.0000  0.0177  0.3904 -0.0640  0.0176
                                           -0.0217 -0.1185  0.0072  0.0250 -0.0101
                                           -0.2263  0.0279 -0.0733 -0.0000 -0.0000
                                           -0.0000 -0.0000 -0.8451 -0.0154 -0.0269
                                           -0.0000 -0.0000 -0.0000 -0.0000 -0.0000
                                           -0.0000  0.1041  0.0124  0.0315  0.1724
[...]
                                           -0.0795  0.1979 -0.0539
   158. (0.00038) RY*( 8) H   4           s( 17.21%)p 3.42( 58.86%)d 1.39( 23.93%)
                                            0.0000 -0.0363  0.4068 -0.0728 -0.0296
                                            0.7248 -0.1330  0.1034 -0.1360  0.1243
                                            0.0000  0.0000  0.0000 -0.4260  0.1807
                                            0.0000  0.0000  0.0000  0.0000  0.1331
                                           -0.0261  0.0675 -0.0470
   159. (0.00033) RY*( 9) H   4           s(  0.00%)p 1.00( 88.97%)d 0.12( 11.03%)
                                            0.0000  0.0000  0.0000  0.0000  0.0000
                                            0.0000  0.0000  0.0000  0.0000  0.0000
                                           -0.1287  0.9343 -0.0168  0.0000  0.0000
                                           -0.0814  0.0706 -0.2508  0.1892  0.0000
                                            0.0000  0.0000  0.0000
   160. (0.00026) RY*(10) H   4           s(  5.84%)p 7.09( 41.43%)d 9.02( 52.73%)
                                            0.0172  0.0775 -0.1429  0.1781 -0.0981
                                           -0.2207 -0.1269 -0.0658 -0.4629 -0.3482
                                           -0.0000 -0.0000 -0.0000 -0.4144 -0.0082
                                           -0.0000 -0.0000 -0.0000 -0.0000  0.4264
                                            0.0550 -0.4122  0.0280
   161. (0.00023) RY*(11) H   4           s(  0.00%)p 1.00(  0.67%)d99.99( 99.33%)
                                            0.0000  0.0000  0.0000  0.0000  0.0000
                                            0.0000  0.0000  0.0000  0.0000  0.0000
                                           -0.0117  0.0644 -0.0492  0.0000  0.0000
                                            0.9897 -0.0426 -0.1059 -0.0290  0.0000
                                            0.0000  0.0000  0.0000
   162. (0.00024) RY*(12) H   4           s(  7.55%)p 3.04( 22.92%)d 9.21( 69.53%)
                                            0.0122  0.0049  0.2622  0.0808  0.0979
                                           -0.0258  0.1203 -0.0425 -0.4140 -0.1769
                                            0.0000  0.0000  0.0000  0.4579  0.0064
                                            0.0000  0.0000  0.0000  0.0000  0.4558
                                           -0.0683  0.5167 -0.0783
   163. (0.00020) RY*(13) H   4           s(  7.06%)p 2.18( 15.40%)d10.98( 77.54%)
                                           -0.0097 -0.0329  0.2509 -0.0806  0.0328
                                            0.0354  0.0939  0.0332  0.2813  0.2502
                                            0.0000  0.0000  0.0000  0.3682  0.0381
                                            0.0000  0.0000  0.0000  0.0000  0.4803
                                           -0.0783 -0.6122 -0.1633
   164. (0.00014) RY*(14) H   4           s(  0.00%)p 1.00( 51.59%)d 0.94( 48.41%)
                                            0.0000  0.0000  0.0000  0.0000  0.0000
                                            0.0000  0.0000  0.0000  0.0000  0.0000
                                           -0.0201 -0.2055  0.6879  0.0000  0.0000
                                            0.0376  0.1589 -0.3184  0.5967  0.0000
                                            0.0000  0.0000  0.0000
   165. (0.00012) RY*(15) H   4           s(  0.78%)p58.24( 45.70%)d68.20( 53.51%)
                                           -0.0024 -0.0035 -0.0544  0.0698  0.0196
                                            0.1053 -0.6493  0.0137 -0.0586  0.1425
                                           -0.0000 -0.0000 -0.0000  0.1326 -0.6420
                                           -0.0000 -0.0000 -0.0000 -0.0000  0.0299
                                           -0.3203  0.0008  0.0437
   166. (0.00012) RY*(16) H   4           s( 65.29%)p 0.06(  4.15%)d 0.47( 30.56%)
                                            0.0017  0.0125  0.3914  0.7067  0.0367
                                            0.1126  0.0197 -0.0010 -0.0743 -0.1469
                                            0.0000  0.0000  0.0000  0.2123 -0.0517
                                            0.0000  0.0000  0.0000  0.0000 -0.3614
                                            0.2129 -0.2428  0.1517
   167. (0.00007) RY*(17) H   4           s(  0.00%)p 1.00(  0.11%)d99.99( 99.89%)
   168. (0.00005) RY*(18) H   4           s( 47.56%)p 0.59( 28.24%)d 0.51( 24.20%)
   169. (0.00005) RY*(19) H   4           s(  5.27%)p 2.97( 15.63%)d15.02( 79.10%)
   170. (0.00006) RY*(20) H   4           s(  1.84%)p 2.82(  5.20%)d50.46( 92.96%)
   171. (0.00005) RY*(21) H   4           s(  0.00%)p 1.00( 34.90%)d 1.87( 65.10%)
   172. (0.00003) RY*(22) H   4           s(  3.90%)p11.16( 43.49%)d13.50( 52.62%)
   173. (0.05861) BD*( 1) O   1 -Cl   2  
                ( 40.61%)   0.6373* O   1 s( 10.58%)p 8.40( 88.90%)d 0.05(  0.50%)
                                                  f 0.00(  0.02%)
                                           -0.0003 -0.3228  0.0372  0.0133  0.0008
                                           -0.9416  0.0277  0.0100  0.0100  0.0225
                                            0.0298  0.0048  0.0000 -0.0000 -0.0000
                                           -0.0000 -0.0000  0.0240  0.0020 -0.0021
                                           -0.0000 -0.0000 -0.0000 -0.0000 -0.0000
                                           -0.0000 -0.0511 -0.0042 -0.0022  0.0423
                                            0.0036 -0.0007 -0.0000 -0.0000  0.0116
                                           -0.0012  0.0002 -0.0001 -0.0000 -0.0000
                                           -0.0000 -0.0000 -0.0051 -0.0009  0.0002
                                           -0.0021
                ( 59.39%)  -0.7707*Cl   2 s(  8.25%)p10.96( 90.46%)d 0.14(  1.18%)
                                                  f 0.01(  0.11%)
                                            0.0000 -0.0005 -0.2821  0.0530  0.0096
                                           -0.0029  0.0004  0.9487 -0.0650 -0.0138
                                            0.0038  0.0000  0.0111  0.0018 -0.0025
                                            0.0007 -0.0000 -0.0000 -0.0000 -0.0000
                                           -0.0000 -0.0133 -0.0000 -0.0009 -0.0000
                                           -0.0000 -0.0000 -0.0000 -0.0000 -0.0000
                                           -0.0906  0.0099  0.0001  0.0576 -0.0055
                                           -0.0009 -0.0000 -0.0000 -0.0210  0.0033
                                           -0.0005  0.0003 -0.0000 -0.0000 -0.0000
                                           -0.0000  0.0253 -0.0026  0.0013 -0.0002
   174. (0.09273) BD*( 1) O   1 - H   4  
                ( 21.60%)   0.4647* O   1 s( 30.67%)p 2.24( 68.83%)d 0.02(  0.49%)
                                                  f 0.00(  0.01%)
                                            0.0003  0.5536 -0.0110 -0.0079  0.0014
                                           -0.2069  0.0187  0.0028  0.0027 -0.8031
                                            0.0117  0.0067  0.0044 -0.0000 -0.0000
                                           -0.0000 -0.0000  0.0014 -0.0030 -0.0001
                                           -0.0000 -0.0000 -0.0000 -0.0000 -0.0000
                                           -0.0000 -0.0591 -0.0046 -0.0026 -0.0373
                                           -0.0009  0.0025 -0.0000 -0.0000  0.0017
                                            0.0007  0.0085  0.0005 -0.0000 -0.0000
                                           -0.0000 -0.0000  0.0018  0.0026 -0.0004
                                            0.0026
                ( 78.40%)  -0.8855* H   4 s( 99.86%)p 0.00(  0.14%)d 0.00(  0.00%)
                                            0.9984  0.0411  0.0018 -0.0006  0.0117
                                            0.0076 -0.0010 -0.0154  0.0293  0.0111
                                           -0.0000 -0.0000 -0.0000 -0.0000 -0.0022
                                           -0.0000 -0.0000 -0.0000 -0.0000 -0.0015
                                           -0.0006  0.0003 -0.0029


 NHO Directionality and "Bond Bending" (deviations from line of nuclear centers)

         [Thresholds for printing:  angular deviation  >  1.0 degree]
                                    hybrid p-character > 25.0%
                                    orbital occupancy  >  0.10e

                                Line of Centers        Hybrid 1              Hybrid 2
                                ---------------  -------------------   ------------------
                NBO               Theta   Phi    Theta   Phi    Dev    Theta   Phi    Dev
 ========================================================================================
     1. BD (   1) O   1 -Cl   2    90.0    0.0    90.0  356.3   3.7      --     --    --
    18. LP (   1) O   1             --     --     90.0  113.0   --       --     --    --
    19. LP (   2) O   1             --     --      0.0    0.0   --       --     --    --
    21. LP (   2)Cl   2             --     --      0.0    0.0   --       --     --    --
    22. LP (   3)Cl   2             --     --     90.0   90.1   --       --     --    --
    24. LP (   2) I   3             --     --      0.0    0.0   --       --     --    --
    25. LP (   3) I   3             --     --     90.0  346.7   --       --     --    --
    26. LP (   4) I   3             --     --     90.0   76.8   --       --     --    --


 Natural Bond Orbitals (Summary):

           NBO                  Occupancy  
 -----------------------------------------------
 Molecular unit  1  (HOCl)
     1. BD (   1) O   1 -Cl   2          1.93981
     2. BD (   1) O   1 - H   4          1.96709
     3. CR (   1) O   1                  1.99966
     4. CR (   1)Cl   2                  2.00000
     5. CR (   2)Cl   2                  1.99980
     6. CR (   3)Cl   2                  1.99996
     7. CR (   4)Cl   2                  2.00003
     8. CR (   5)Cl   2                  2.00003
    18. LP (   1) O   1                  1.96666
    19. LP (   2) O   1                  1.95308
    20. LP (   1)Cl   2                  1.97384
    21. LP (   2)Cl   2                  1.95623
    22. LP (   3)Cl   2                  1.95457
    27. RY*(   1) O   1                  0.01906
    28. RY*(   2) O   1                  0.01580
    29. RY*(   3) O   1                  0.00785
    30. RY*(   4) O   1                  0.00706
    31. RY*(   5) O   1                  0.00615
    32. RY*(   6) O   1                  0.00613
    33. RY*(   7) O   1                  0.00574
    34. RY*(   8) O   1                  0.00298
    35. RY*(   9) O   1                  0.00251
    36. RY*(  10) O   1                  0.00090
    37. RY*(  11) O   1                  0.00065
    38. RY*(  12) O   1                  0.00060
    39. RY*(  13) O   1                  0.00058
    40. RY*(  14) O   1                  0.00050
    41. RY*(  15) O   1                  0.00049
    42. RY*(  16) O   1                  0.00047
    43. RY*(  17) O   1                  0.00048
    44. RY*(  18) O   1                  0.00047
    45. RY*(  19) O   1                  0.00043
    46. RY*(  20) O   1                  0.00044
    47. RY*(  21) O   1                  0.00044
    48. RY*(  22) O   1                  0.00041
    49. RY*(  23) O   1                  0.00034
    50. RY*(  24) O   1                  0.00029
    51. RY*(  25) O   1                  0.00024
    52. RY*(  26) O   1                  0.00022
    53. RY*(  27) O   1                  0.00014
    54. RY*(  28) O   1                  0.00013
    55. RY*(  29) O   1                  0.00012
    56. RY*(  30) O   1                  0.00009
    57. RY*(  31) O   1                  0.00008
    58. RY*(  32) O   1                  0.00008
    59. RY*(  33) O   1                  0.00009
    60. RY*(  34) O   1                  0.00007
    61. RY*(  35) O   1                  0.00008
    62. RY*(  36) O   1                  0.00006
    63. RY*(  37) O   1                  0.00006
    64. RY*(  38) O   1                  0.00006
    65. RY*(  39) O   1                  0.00003
    66. RY*(  40) O   1                  0.00003
    67. RY*(  41) O   1                  0.00003
    68. RY*(   1)Cl   2                  0.02214
    69. RY*(   2)Cl   2                  0.01724
    70. RY*(   3)Cl   2                  0.01672
    71. RY*(   4)Cl   2                  0.01641
    72. RY*(   5)Cl   2                  0.01152
    73. RY*(   6)Cl   2                  0.00914
    74. RY*(   7)Cl   2                  0.00894
    75. RY*(   8)Cl   2                  0.00620
    76. RY*(   9)Cl   2                  0.00164
    77. RY*(  10)Cl   2                  0.00126
    78. RY*(  11)Cl   2                  0.00126
    79. RY*(  12)Cl   2                  0.00119
    80. RY*(  13)Cl   2                  0.00119
    81. RY*(  14)Cl   2                  0.00116
    82. RY*(  15)Cl   2                  0.00110
    83. RY*(  16)Cl   2                  0.00093
    84. RY*(  17)Cl   2                  0.00076
    85. RY*(  18)Cl   2                  0.00076
    86. RY*(  19)Cl   2                  0.00062
    87. RY*(  20)Cl   2                  0.00055
    88. RY*(  21)Cl   2                  0.00044
    89. RY*(  22)Cl   2                  0.00035
    90. RY*(  23)Cl   2                  0.00036
    91. RY*(  24)Cl   2                  0.00032
    92. RY*(  25)Cl   2                  0.00018
    93. RY*(  26)Cl   2                  0.00015
    94. RY*(  27)Cl   2                  0.00015
    95. RY*(  28)Cl   2                  0.00013
    96. RY*(  29)Cl   2                  0.00012
    97. RY*(  30)Cl   2                  0.00013
    98. RY*(  31)Cl   2                  0.00010
    99. RY*(  32)Cl   2                  0.00010
   100. RY*(  33)Cl   2                  0.00010
   101. RY*(  34)Cl   2                  0.00011
   102. RY*(  35)Cl   2                  0.00010
   103. RY*(  36)Cl   2                  0.00008
   104. RY*(  37)Cl   2                  0.00008
   105. RY*(  38)Cl   2                  0.00006
   106. RY*(  39)Cl   2                  0.00004
   107. RY*(  40)Cl   2                  0.00003
   108. RY*(  41)Cl   2                  0.00000
   151. RY*(   1) H   4                  0.01141
   152. RY*(   2) H   4                  0.00578
   153. RY*(   3) H   4                  0.00506
   154. RY*(   4) H   4                  0.00385
   155. RY*(   5) H   4                  0.00060
   156. RY*(   6) H   4                  0.00055
   157. RY*(   7) H   4                  0.00051
   158. RY*(   8) H   4                  0.00038
   159. RY*(   9) H   4                  0.00033
   160. RY*(  10) H   4                  0.00026
   161. RY*(  11) H   4                  0.00023
   162. RY*(  12) H   4                  0.00024
   163. RY*(  13) H   4                  0.00020
   164. RY*(  14) H   4                  0.00014
   165. RY*(  15) H   4                  0.00012
   166. RY*(  16) H   4                  0.00012
   167. RY*(  17) H   4                  0.00007
   168. RY*(  18) H   4                  0.00005
   169. RY*(  19) H   4                  0.00005
   170. RY*(  20) H   4                  0.00006
   171. RY*(  21) H   4                  0.00005
   172. RY*(  22) H   4                  0.00003
   173. BD*(   1) O   1 -Cl   2          0.05861
   174. BD*(   1) O   1 - H   4          0.09273
       -------------------------------
              Total Lewis   25.71077  ( 98.5145%)
        Valence non-Lewis    0.15134  (  0.5799%)
        Rydberg non-Lewis    0.23635  (  0.9056%)
       -------------------------------
            Total unit  1   26.09846  (100.0000%)
           Charge unit  1   -0.09846

 Molecular unit  2  (I)
     9. CR (   1) I   3                  1.99990
    10. CR (   2) I   3                  2.00004
    11. CR (   3) I   3                  1.99990
    12. CR (   4) I   3                  2.00004
    13. CR (   5) I   3                  1.99671
    14. CR (   6) I   3                  1.99678
    15. CR (   7) I   3                  1.99674
    16. CR (   8) I   3                  1.99664
    17. CR (   9) I   3                  1.99673
    23. LP (   1) I   3                  1.97820
    24. LP (   2) I   3                  1.95141
    25. LP (   3) I   3                  1.95109
    26. LP (   4) I   3                  1.87202
   109. RY*(   1) I   3                  0.02029
   110. RY*(   2) I   3                  0.02019
   111. RY*(   3) I   3                  0.02013
   112. RY*(   4) I   3                  0.02012
   113. RY*(   5) I   3                  0.01900
   114. RY*(   6) I   3                  0.01065
   115. RY*(   7) I   3                  0.01059
   116. RY*(   8) I   3                  0.00908
   117. RY*(   9) I   3                  0.00281
   118. RY*(  10) I   3                  0.00279
   119. RY*(  11) I   3                  0.00278
   120. RY*(  12) I   3                  0.00276
   121. RY*(  13) I   3                  0.00276
   122. RY*(  14) I   3                  0.00269
   123. RY*(  15) I   3                  0.00269
   124. RY*(  16) I   3                  0.00249
   125. RY*(  17) I   3                  0.00166
   126. RY*(  18) I   3                  0.00166
   127. RY*(  19) I   3                  0.00134
   128. RY*(  20) I   3                  0.00130
   129. RY*(  21) I   3                  0.00112
   130. RY*(  22) I   3                  0.00072
   131. RY*(  23) I   3                  0.00072
   132. RY*(  24) I   3                  0.00060
   133. RY*(  25) I   3                  0.00045
   134. RY*(  26) I   3                  0.00045
   135. RY*(  27) I   3                  0.00044
   136. RY*(  28) I   3                  0.00042
   137. RY*(  29) I   3                  0.00042
   138. RY*(  30) I   3                  0.00041
   139. RY*(  31) I   3                  0.00038
   140. RY*(  32) I   3                  0.00032
   141. RY*(  33) I   3                  0.00020
   142. RY*(  34) I   3                  0.00019
   143. RY*(  35) I   3                  0.00014
   144. RY*(  36) I   3                  0.00012
   145. RY*(  37) I   3                  0.00012
   146. RY*(  38) I   3                  0.00010
   147. RY*(  39) I   3                  0.00010
   148. RY*(  40) I   3                  0.00007
   149. RY*(  41) I   3                  0.00006
   150. RY*(  42) I   3                  0.00000
       -------------------------------
              Total Lewis   53.73620  ( 99.6933%)
        Valence non-Lewis    0.00000  (  0.0000%)
        Rydberg non-Lewis    0.16534  (  0.3067%)
       -------------------------------
            Total unit  2   53.90154  (100.0000%)
           Charge unit  2   -0.90154
 Leave Link  607 at Tue Oct 12 15:35:10 2021, MaxMem=  1048576000 cpu:         8.8
 (Enter /usr/local/gaussian/g09/l9999.exe)
 1\1\GINC-KRYPTON\SP\RMP2-FC\Gen\Cl1H1I1O1(1-)\CGAVINH\12-Oct-2021\0\\#
 p pop=NBO SP NoSymm mp2/gen Pseudo=read density=current\\title\\-1,1\O
 \X,1,10.\Cl,1,1.68652173,2,90.\I,1,3.31229946,2,90.,3,103.24540347,0\H
 ,1,0.95,2,90.,3,103.24540347,0\\Version=ES64L-G09RevE.01\HF=-829.68684
 17\MP2=-830.3660933\RMSD=6.816e-09\Dipole=1.2720204,1.6714253,0.\Quadr
 upole=9.1574758,-19.9413474,10.7838717,-7.5368799,0.,0.\PG=CS [SG(Cl1H
 1I1O1)]\\@


 A true friend is someone who is there for
 you when he'd rather be anywhere else.
                               -- Len Wein
 Job cpu time:       0 days  0 hours  2 minutes 37.6 seconds.
 File lengths (MBytes):  RWF=     13 Int=      0 D2E=      0 Chk=      3 Scr=      1
 Normal termination of Gaussian 09 at Tue Oct 12 15:35:10 2021.
