 Entering Gaussian System, Link 0=g09
 Input=ihocl_rOH_090_sp.gjf
 Output=ihocl_rOH_090_sp.log
 Initial command:
 /usr/local/gaussian/g09/l1.exe "/scratch/Gau-25688.inp" -scrdir="/scratch/"
 Entering Link 1 = /usr/local/gaussian/g09/l1.exe PID=     25689.
  
 Copyright (c) 1988,1990,1992,1993,1995,1998,2003,2009,2015,
            Gaussian, Inc.  All Rights Reserved.
  
 This is part of the Gaussian(R) 09 program.  It is based on
 the Gaussian(R) 03 system (copyright 2003, Gaussian, Inc.),
 the Gaussian(R) 98 system (copyright 1998, Gaussian, Inc.),
 the Gaussian(R) 94 system (copyright 1995, Gaussian, Inc.),
 the Gaussian 92(TM) system (copyright 1992, Gaussian, Inc.),
 the Gaussian 90(TM) system (copyright 1990, Gaussian, Inc.),
 the Gaussian 88(TM) system (copyright 1988, Gaussian, Inc.),
 the Gaussian 86(TM) system (copyright 1986, Carnegie Mellon
 University), and the Gaussian 82(TM) system (copyright 1983,
 Carnegie Mellon University). Gaussian is a federally registered
 trademark of Gaussian, Inc.
  
 This software contains proprietary and confidential information,
 including trade secrets, belonging to Gaussian, Inc.
  
 This software is provided under written license and may be
 used, copied, transmitted, or stored only in accord with that
 written license.
  
 The following legend is applicable only to US Government
 contracts under FAR:
  
                    RESTRICTED RIGHTS LEGEND
  
 Use, reproduction and disclosure by the US Government is
 subject to restrictions as set forth in subparagraphs (a)
 and (c) of the Commercial Computer Software - Restricted
 Rights clause in FAR 52.227-19.
  
 Gaussian, Inc.
 340 Quinnipiac St., Bldg. 40, Wallingford CT 06492
  
  
 ---------------------------------------------------------------
 Warning -- This program may not be used in any manner that
 competes with the business of Gaussian, Inc. or will provide
 assistance to any competitor of Gaussian, Inc.  The licensee
 of this program is prohibited from giving any competitor of
 Gaussian, Inc. access to this program.  By using this program,
 the user acknowledges that Gaussian, Inc. is engaged in the
 business of creating and licensing software in the field of
 computational chemistry and represents and warrants to the
 licensee that it is not a competitor of Gaussian, Inc. and that
 it will not use this program in any manner prohibited above.
 ---------------------------------------------------------------
  

 Cite this work as:
 Gaussian 09, Revision E.01,
 M. J. Frisch, G. W. Trucks, H. B. Schlegel, G. E. Scuseria, 
 M. A. Robb, J. R. Cheeseman, G. Scalmani, V. Barone, B. Mennucci, 
 G. A. Petersson, H. Nakatsuji, M. Caricato, X. Li, H. P. Hratchian, 
 A. F. Izmaylov, J. Bloino, G. Zheng, J. L. Sonnenberg, M. Hada, 
 M. Ehara, K. Toyota, R. Fukuda, J. Hasegawa, M. Ishida, T. Nakajima, 
 Y. Honda, O. Kitao, H. Nakai, T. Vreven, J. A. Montgomery, Jr., 
 J. E. Peralta, F. Ogliaro, M. Bearpark, J. J. Heyd, E. Brothers, 
 K. N. Kudin, V. N. Staroverov, T. Keith, R. Kobayashi, J. Normand, 
 K. Raghavachari, A. Rendell, J. C. Burant, S. S. Iyengar, J. Tomasi, 
 M. Cossi, N. Rega, J. M. Millam, M. Klene, J. E. Knox, J. B. Cross, 
 V. Bakken, C. Adamo, J. Jaramillo, R. Gomperts, R. E. Stratmann, 
 O. Yazyev, A. J. Austin, R. Cammi, C. Pomelli, J. W. Ochterski, 
 R. L. Martin, K. Morokuma, V. G. Zakrzewski, G. A. Voth, 
 P. Salvador, J. J. Dannenberg, S. Dapprich, A. D. Daniels, 
 O. Farkas, J. B. Foresman, J. V. Ortiz, J. Cioslowski, 
 and D. J. Fox, Gaussian, Inc., Wallingford CT, 2013.
 
 ******************************************
 Gaussian 09:  ES64L-G09RevE.01 30-Nov-2015
                12-Oct-2021 
 ******************************************
 %nproc=12
 Will use up to   12 processors via shared memory.
 %mem=8000MB
 %chk=/home/netid.washington.edu/cgavinh/mccoy_hocl/rOH_s_oop_0/ihocl/ihocl_rOH_0
 90_sp.chk
 --------------------------------------------------------
 #p pop=NBO SP NoSymm mp2/gen Pseudo=read density=current
 --------------------------------------------------------
 1/30=1,38=1/1;
 2/12=2,15=1,17=6,18=5,40=1/2;
 3/5=7,11=9,16=1,17=8,25=1,30=1,71=1/1,2,3;
 4//1;
 5/5=2,38=5/2;
 8/6=4,10=1/1;
 9/15=1,16=-3/6;
 10/5=1,13=10,31=1/2;
 6/7=2,8=2,9=2,10=2,22=-1,40=1/1,7;
 99/5=1,9=1/99;
 Leave Link    1 at Tue Oct 12 15:34:36 2021, MaxMem=  1048576000 cpu:         0.3
 (Enter /usr/local/gaussian/g09/l101.exe)
 -----
 title
 -----
 Symbolic Z-matrix:
 Charge = -1 Multiplicity = 1
 O
 X                    1     10. 
 Cl                   1    r1       2     90. 
 I                    1    r2       2     90.      3    a1       0
 H                    1    r3       2    oop      3    a1       0
       Variables:
  r1                    1.68652                  
  r2                    3.3123                   
  r3                    0.9                      
  a1                  103.2454                   
  OOP                  90.                       
 
 NAtoms=      4 NQM=        4 NQMF=       0 NMMI=      0 NMMIF=      0
                NMic=       0 NMicF=      0.
                    Isotopes and Nuclear Properties:
 (Nuclear quadrupole moments (NQMom) in fm**2, nuclear magnetic moments (NMagM)
  in nuclear magnetons)

  Atom         1           2           3           4
 IAtWgt=          16          35         127           1
 AtmWgt=  15.9949146  34.9688527 126.9004000   1.0078250
 NucSpn=           0           3           5           1
 AtZEff=   0.0000000   0.0000000   0.0000000   0.0000000
 NQMom=    0.0000000  -8.1650000 -71.0000000   0.0000000
 NMagM=    0.0000000   0.8218740   2.8132800   2.7928460
 AtZNuc=   8.0000000  17.0000000  53.0000000   1.0000000
 Leave Link  101 at Tue Oct 12 15:34:36 2021, MaxMem=  1048576000 cpu:         0.4
 (Enter /usr/local/gaussian/g09/l202.exe)
                          Input orientation:                          
 ---------------------------------------------------------------------
 Center     Atomic      Atomic             Coordinates (Angstroms)
 Number     Number       Type             X           Y           Z
 ---------------------------------------------------------------------
      1          8           0        0.000000    0.000000    0.000000
      2         17           0        1.686522    0.000000    0.000000
      3         53           0       -0.758922   -3.224184    0.000000
      4          1           0       -0.206210   -0.876058    0.000000
 ---------------------------------------------------------------------
                    Distance matrix (angstroms):
                    1          2          3          4
     1  O    0.000000
     2  Cl   1.686522   0.000000
     3  I    3.312299   4.046673   0.000000
     4  H    0.900000   2.085644   2.412299   0.000000
 Symmetry turned off by external request.
 Stoichiometry    ClHIO(1-)
 Framework group  CS[SG(ClHIO)]
 Deg. of freedom     5
 Full point group                 CS      NOp   2
 Rotational constants (GHZ):     21.7228964      0.9691385      0.9277482
 Leave Link  202 at Tue Oct 12 15:34:36 2021, MaxMem=  1048576000 cpu:         0.0
 (Enter /usr/local/gaussian/g09/l301.exe)
 General basis read from cards:  (5D, 7F)
 Centers:       4      1      2
 aug-cc-pVTZ
 ****
 Centers:       3
 S 11 1.00
     Exponent=  5.5465000000D+03 Coefficients=  1.5600000000D-04
     Exponent=  8.3821400000D+02 Coefficients=  9.8600000000D-04
     Exponent=  1.8218700000D+02 Coefficients=  2.7920000000D-03
     Exponent=  3.1212300000D+01 Coefficients= -4.3251000000D-02
     Exponent=  1.9531400000D+01 Coefficients=  2.3413400000D-01
     Exponent=  8.2409900000D+00 Coefficients= -7.5094300000D-01
     Exponent=  2.1945500000D+00 Coefficients=  8.8296800000D-01
     Exponent=  1.1091100000D+00 Coefficients=  4.6206100000D-01
     Exponent=  3.7464100000D-01 Coefficients=  2.2286000000D-02
     Exponent=  1.7708000000D-01 Coefficients= -4.3530000000D-03
     Exponent=  8.1061000000D-02 Coefficients=  1.1020000000D-03
 S 11 1.00
     Exponent=  5.5465000000D+03 Coefficients= -7.3000000000D-05
     Exponent=  8.3821400000D+02 Coefficients= -5.0800000000D-04
     Exponent=  1.8218700000D+02 Coefficients= -1.1580000000D-03
     Exponent=  3.1212300000D+01 Coefficients=  1.2193000000D-02
     Exponent=  1.9531400000D+01 Coefficients= -8.7854000000D-02
     Exponent=  8.2409900000D+00 Coefficients=  3.3820000000D-01
     Exponent=  2.1945500000D+00 Coefficients= -5.7655000000D-01
     Exponent=  1.1091100000D+00 Coefficients= -4.0929800000D-01
     Exponent=  3.7464100000D-01 Coefficients=  5.6745900000D-01
     Exponent=  1.7708000000D-01 Coefficients=  6.1248900000D-01
     Exponent=  8.1061000000D-02 Coefficients=  1.4323100000D-01
 S 1 1.00
     Exponent=  3.7464100000D-01 Coefficients=  1.0000000000D+00
 S 1 1.00
     Exponent=  1.7708000000D-01 Coefficients=  1.0000000000D+00
 S 1 1.00
     Exponent=  1.0010000000D-01 Coefficients=  1.0000000000D+00
 S 1 1.00
     Exponent=  4.1200000000D-02 Coefficients=  1.0000000000D+00
 P 9 1.00
     Exponent=  1.8898800000D+02 Coefficients=  5.8500000000D-04
     Exponent=  2.1286800000D+01 Coefficients=  3.6923000000D-02
     Exponent=  1.0039600000D+01 Coefficients= -2.3532400000D-01
     Exponent=  3.4518000000D+00 Coefficients=  3.4148300000D-01
     Exponent=  1.9745600000D+00 Coefficients=  5.3478800000D-01
     Exponent=  1.0242000000D+00 Coefficients=  2.6514100000D-01
     Exponent=  4.4943700000D-01 Coefficients=  2.5787000000D-02
     Exponent=  1.8664800000D-01 Coefficients=  5.2200000000D-04
     Exponent=  7.3481000000D-02 Coefficients=  6.0600000000D-04
 P 9 1.00
     Exponent=  1.8898800000D+02 Coefficients= -2.5600000000D-04
     Exponent=  2.1286800000D+01 Coefficients= -1.1682000000D-02
     Exponent=  1.0039600000D+01 Coefficients=  8.3192000000D-02
     Exponent=  3.4518000000D+00 Coefficients= -1.5697000000D-01
     Exponent=  1.9745600000D+00 Coefficients= -2.2451800000D-01
     Exponent=  1.0242000000D+00 Coefficients= -1.1445100000D-01
     Exponent=  4.4943700000D-01 Coefficients=  3.7535600000D-01
     Exponent=  1.8664800000D-01 Coefficients=  5.7513600000D-01
     Exponent=  7.3481000000D-02 Coefficients=  2.4591700000D-01
 P 1 1.00
     Exponent=  5.9810000000D-01 Coefficients=  1.0000000000D+00
 P 1 1.00
     Exponent=  9.6180000000D-02 Coefficients=  1.0000000000D+00
 P 1 1.00
     Exponent=  3.5900000000D-02 Coefficients=  1.0000000000D+00
 D 9 1.00
     Exponent=  1.3266200000D+02 Coefficients=  5.7200000000D-04
     Exponent=  3.7605400000D+01 Coefficients=  4.4020000000D-03
     Exponent=  1.0389100000D+01 Coefficients= -4.0922000000D-02
     Exponent=  6.4901700000D+00 Coefficients=  9.9661000000D-02
     Exponent=  3.4545100000D+00 Coefficients=  3.2266300000D-01
     Exponent=  1.8441300000D+00 Coefficients=  4.0034300000D-01
     Exponent=  9.6247800000D-01 Coefficients=  2.6830600000D-01
     Exponent=  4.7285300000D-01 Coefficients=  8.4847000000D-02
     Exponent=  1.9320000000D-01 Coefficients=  7.6320000000D-03
 D 1 1.00
     Exponent=  4.7285300000D-01 Coefficients=  1.0000000000D+00
 D 1 1.00
     Exponent=  1.9320000000D-01 Coefficients=  1.0000000000D+00
 D 1 1.00
     Exponent=  7.8200000000D-02 Coefficients=  1.0000000000D+00
 F 1 1.00
     Exponent=  4.0640000000D-01 Coefficients=  1.0000000000D+00
 F 1 1.00
     Exponent=  1.8480000000D-01 Coefficients=  1.0000000000D+00
 ****
 ======================================================================================================
                                       Pseudopotential Parameters
 ======================================================================================================
  Center     Atomic      Valence      Angular      Power
  Number     Number     Electrons     Momentum     of R      Exponent        Coefficient   SO-Coeffient
 ======================================================================================================
    1          8
                                   No pseudopotential on this center.
    2         17
                                   No pseudopotential on this center.
    3         53           25
                                      G and up 
                                                     2        1.0000000        0.00000000    0.00000000
                                      S - G
                                                     2       40.0333760       49.98964900    0.00000000
                                                     2       17.3005760      281.00655600    0.00000000
                                                     2        8.8517200       61.41673900    0.00000000
                                      P - G
                                                     2       15.7201410       67.41623900    0.00000000
                                                     2       15.2082220      134.80769600    0.00000000
                                                     2        8.2941860       14.56654800    0.00000000
                                                     2        7.7539490       28.96842200    0.00000000
                                      D - G
                                                     2       13.8177510       35.53875600    0.00000000
                                                     2       13.5878050       53.33975900    0.00000000
                                                     2        6.9476300        9.71646600    0.00000000
                                                     2        6.9600990       14.97750000    0.00000000
                                      F - G
                                                     2       18.5229500      -20.17661800    0.00000000
                                                     2       18.2510350      -26.08807700    0.00000000
                                                     2        7.5579010       -0.22043400    0.00000000
                                                     2        7.5974040       -0.22164600    0.00000000
    4          1
                                   No pseudopotential on this center.
 ======================================================================================================
 Ernie: Thresh=  0.10000D-02 Tol=  0.10000D-05 Strict=F.
 Ernie:  23 primitive shells out of 166 were deleted.
   174 basis functions,   383 primitive gaussians,   204 cartesian basis functions
    26 alpha electrons       26 beta electrons
       nuclear repulsion energy       144.7026168308 Hartrees.
 IExCor=    0 DFT=F Ex=HF Corr=None ExCW=0 ScaHFX=  1.000000
 ScaDFX=  1.000000  1.000000  1.000000  1.000000 ScalE2=  1.000000  1.000000
 IRadAn=      0 IRanWt=     -1 IRanGd=            0 ICorTp=0 IEmpDi=  4
 NAtoms=    4 NActive=    4 NUniq=    4 SFac= 1.00D+00 NAtFMM=   60 NAOKFM=F Big=F
 Integral buffers will be    131072 words long.
 Raffenetti 1 integral format.
 Two-electron integral symmetry is turned off.
 Leave Link  301 at Tue Oct 12 15:34:36 2021, MaxMem=  1048576000 cpu:         0.6
 (Enter /usr/local/gaussian/g09/l302.exe)
 NPDir=0 NMtPBC=     1 NCelOv=     1 NCel=       1 NClECP=     1 NCelD=      1
         NCelK=      1 NCelE2=     1 NClLst=     1 CellRange=     0.0.
 One-electron integrals computed using PRISM.
   1 Symmetry operations used in ECPInt.
 ECPInt:  NShTT=    1596 NPrTT=   10643 LenC2=    1597 LenP2D=    8416.
 LDataN:  DoStor=T MaxTD1= 7 Len=  274
 NBasis=   174 RedAO= T EigKep=  1.92D-04  NBF=   174
 NBsUse=   174 1.00D-06 EigRej= -1.00D+00 NBFU=   174
 Leave Link  302 at Tue Oct 12 15:34:37 2021, MaxMem=  1048576000 cpu:         2.7
 (Enter /usr/local/gaussian/g09/l303.exe)
 DipDrv:  MaxL=1.
 Leave Link  303 at Tue Oct 12 15:34:37 2021, MaxMem=  1048576000 cpu:         0.2
 (Enter /usr/local/gaussian/g09/l401.exe)
 ExpMin= 2.53D-02 ExpMax= 4.56D+05 ExpMxC= 1.44D+03 IAcc=3 IRadAn=         5 AccDes= 0.00D+00
 Harris functional with IExCor=  205 and IRadAn=       5 diagonalized for initial guess.
 HarFok:  IExCor=  205 AccDes= 0.00D+00 IRadAn=         5 IDoV= 1 UseB2=F ITyADJ=14
 ICtDFT=  3500011 ScaDFX=  1.000000  1.000000  1.000000  1.000000
 Defaulting to unpruned grid for atomic number  53.
 Defaulting to unpruned grid for atomic number  53.
 Defaulting to unpruned grid for atomic number  53.
 Defaulting to unpruned grid for atomic number  53.
 Defaulting to unpruned grid for atomic number  53.
 Defaulting to unpruned grid for atomic number  53.
 Defaulting to unpruned grid for atomic number  53.
 Defaulting to unpruned grid for atomic number  53.
 Defaulting to unpruned grid for atomic number  53.
 Defaulting to unpruned grid for atomic number  53.
 Defaulting to unpruned grid for atomic number  53.
 Defaulting to unpruned grid for atomic number  53.
 FoFCou: FMM=F IPFlag=           0 FMFlag=      100000 FMFlg1=           0
         NFxFlg=           0 DoJE=T BraDBF=F KetDBF=T FulRan=T
         wScrn=  0.000000 ICntrl=     500 IOpCl=  0 I1Cent=   200000004 NGrid=           0
         NMat0=    1 NMatS0=      1 NMatT0=    0 NMatD0=    1 NMtDS0=    0 NMtDT0=    0
 Symmetry not used in FoFCou.
 Harris En= -831.053811493968    
 JPrj=0 DoOrth=F DoCkMO=F.
 Leave Link  401 at Tue Oct 12 15:34:37 2021, MaxMem=  1048576000 cpu:         3.1
 (Enter /usr/local/gaussian/g09/l502.exe)
 Closed shell SCF:
 Using DIIS extrapolation, IDIIS=  1040.
 Two-electron integral symmetry not used.
 Keep R1 ints in memory in canonical form, NReq=124441393.
 IVT=      147078 IEndB=      147078 NGot=  1048576000 MDV=   932520998
 LenX=   932520998 LenY=   932478941
 Requested convergence on RMS density matrix=1.00D-08 within 128 cycles.
 Requested convergence on MAX density matrix=1.00D-06.
 Requested convergence on             energy=1.00D-06.
 No special actions if energy rises.
 FoFCou: FMM=F IPFlag=           0 FMFlag=           0 FMFlg1=           0
         NFxFlg=           0 DoJE=F BraDBF=F KetDBF=F FulRan=T
         wScrn=  0.000000 ICntrl=     600 IOpCl=  0 I1Cent=           0 NGrid=           0
         NMat0=    1 NMatS0=  15225 NMatT0=    0 NMatD0=    1 NMtDS0=    0 NMtDT0=    0
 Symmetry not used in FoFCou.

 Cycle   1  Pass 1  IDiag  1:
 E= -829.519924723237    
 DIIS: error= 3.12D-02 at cycle   1 NSaved=   1.
 NSaved= 1 IEnMin= 1 EnMin= -829.519924723237     IErMin= 1 ErrMin= 3.12D-02
 ErrMax= 3.12D-02  0.00D+00 EMaxC= 1.00D-01 BMatC= 4.68D-01 BMatP= 4.68D-01
 IDIUse=3 WtCom= 6.88D-01 WtEn= 3.12D-01
 Coeff-Com:  0.100D+01
 Coeff-En:   0.100D+01
 Coeff:      0.100D+01
 Gap=     0.389 Goal=   None    Shift=    0.000
 GapD=    0.389 DampG=1.000 DampE=0.500 DampFc=0.5000 IDamp=-1.
 Damping current iteration by 5.00D-01
 RMSDP=3.55D-03 MaxDP=1.03D-01              OVMax= 1.21D-01

 Cycle   2  Pass 1  IDiag  1:
 E= -829.601871051740     Delta-E=       -0.081946328502 Rises=F Damp=T
 DIIS: error= 1.51D-02 at cycle   2 NSaved=   2.
 NSaved= 2 IEnMin= 2 EnMin= -829.601871051740     IErMin= 2 ErrMin= 1.51D-02
 ErrMax= 1.51D-02  0.00D+00 EMaxC= 1.00D-01 BMatC= 8.98D-02 BMatP= 4.68D-01
 IDIUse=3 WtCom= 8.49D-01 WtEn= 1.51D-01
 Coeff-Com: -0.579D+00 0.158D+01
 Coeff-En:   0.000D+00 0.100D+01
 Coeff:     -0.492D+00 0.149D+01
 Gap=     0.294 Goal=   None    Shift=    0.000
 RMSDP=1.55D-03 MaxDP=8.53D-02 DE=-8.19D-02 OVMax= 7.26D-02

 Cycle   3  Pass 1  IDiag  1:
 E= -829.678118540961     Delta-E=       -0.076247489221 Rises=F Damp=F
 DIIS: error= 6.79D-03 at cycle   3 NSaved=   3.
 NSaved= 3 IEnMin= 3 EnMin= -829.678118540961     IErMin= 3 ErrMin= 6.79D-03
 ErrMax= 6.79D-03  0.00D+00 EMaxC= 1.00D-01 BMatC= 6.11D-03 BMatP= 8.98D-02
 IDIUse=3 WtCom= 9.32D-01 WtEn= 6.79D-02
 Coeff-Com: -0.226D+00 0.453D+00 0.773D+00
 Coeff-En:   0.000D+00 0.000D+00 0.100D+01
 Coeff:     -0.211D+00 0.422D+00 0.788D+00
 Gap=     0.296 Goal=   None    Shift=    0.000
 RMSDP=3.65D-04 MaxDP=1.47D-02 DE=-7.62D-02 OVMax= 2.68D-02

 Cycle   4  Pass 1  IDiag  1:
 E= -829.682525580018     Delta-E=       -0.004407039057 Rises=F Damp=F
 DIIS: error= 1.70D-03 at cycle   4 NSaved=   4.
 NSaved= 4 IEnMin= 4 EnMin= -829.682525580018     IErMin= 4 ErrMin= 1.70D-03
 ErrMax= 1.70D-03  0.00D+00 EMaxC= 1.00D-01 BMatC= 1.97D-04 BMatP= 6.11D-03
 IDIUse=3 WtCom= 9.83D-01 WtEn= 1.70D-02
 Coeff-Com:  0.161D-02-0.194D-01 0.120D+00 0.898D+00
 Coeff-En:   0.000D+00 0.000D+00 0.000D+00 0.100D+01
 Coeff:      0.158D-02-0.191D-01 0.118D+00 0.899D+00
 Gap=     0.300 Goal=   None    Shift=    0.000
 RMSDP=9.48D-05 MaxDP=5.52D-03 DE=-4.41D-03 OVMax= 3.31D-03

 Cycle   5  Pass 1  IDiag  1:
 E= -829.682721355578     Delta-E=       -0.000195775560 Rises=F Damp=F
 DIIS: error= 2.83D-04 at cycle   5 NSaved=   5.
 NSaved= 5 IEnMin= 5 EnMin= -829.682721355578     IErMin= 5 ErrMin= 2.83D-04
 ErrMax= 2.83D-04  0.00D+00 EMaxC= 1.00D-01 BMatC= 1.38D-05 BMatP= 1.97D-04
 IDIUse=3 WtCom= 9.97D-01 WtEn= 2.83D-03
 Coeff-Com:  0.231D-01-0.427D-01-0.771D-01-0.819D-01 0.118D+01
 Coeff-En:   0.000D+00 0.000D+00 0.000D+00 0.000D+00 0.100D+01
 Coeff:      0.230D-01-0.426D-01-0.769D-01-0.817D-01 0.118D+01
 Gap=     0.299 Goal=   None    Shift=    0.000
 RMSDP=5.13D-05 MaxDP=2.14D-03 DE=-1.96D-04 OVMax= 2.88D-03

 Cycle   6  Pass 1  IDiag  1:
 E= -829.682756332884     Delta-E=       -0.000034977306 Rises=F Damp=F
 DIIS: error= 1.17D-04 at cycle   6 NSaved=   6.
 NSaved= 6 IEnMin= 6 EnMin= -829.682756332884     IErMin= 6 ErrMin= 1.17D-04
 ErrMax= 1.17D-04  0.00D+00 EMaxC= 1.00D-01 BMatC= 1.65D-06 BMatP= 1.38D-05
 IDIUse=3 WtCom= 9.99D-01 WtEn= 1.17D-03
 Coeff-Com: -0.726D-02 0.147D-01 0.148D-01-0.840D-01-0.266D+00 0.133D+01
 Coeff-En:   0.000D+00 0.000D+00 0.000D+00 0.000D+00 0.000D+00 0.100D+01
 Coeff:     -0.725D-02 0.147D-01 0.147D-01-0.839D-01-0.266D+00 0.133D+01
 Gap=     0.299 Goal=   None    Shift=    0.000
 RMSDP=1.59D-05 MaxDP=4.76D-04 DE=-3.50D-05 OVMax= 1.33D-03

 Cycle   7  Pass 1  IDiag  1:
 E= -829.682762007937     Delta-E=       -0.000005675053 Rises=F Damp=F
 DIIS: error= 3.80D-05 at cycle   7 NSaved=   7.
 NSaved= 7 IEnMin= 7 EnMin= -829.682762007937     IErMin= 7 ErrMin= 3.80D-05
 ErrMax= 3.80D-05  0.00D+00 EMaxC= 1.00D-01 BMatC= 1.63D-07 BMatP= 1.65D-06
 IDIUse=1 WtCom= 1.00D+00 WtEn= 0.00D+00
 Coeff-Com: -0.205D-03 0.122D-03 0.448D-02 0.208D-01-0.748D-01-0.207D+00
 Coeff-Com:  0.126D+01
 Coeff:     -0.205D-03 0.122D-03 0.448D-02 0.208D-01-0.748D-01-0.207D+00
 Coeff:      0.126D+01
 Gap=     0.299 Goal=   None    Shift=    0.000
 RMSDP=5.51D-06 MaxDP=1.61D-04 DE=-5.68D-06 OVMax= 4.96D-04

 Cycle   8  Pass 1  IDiag  1:
 E= -829.682762659470     Delta-E=       -0.000000651533 Rises=F Damp=F
 DIIS: error= 1.09D-05 at cycle   8 NSaved=   8.
 NSaved= 8 IEnMin= 8 EnMin= -829.682762659470     IErMin= 8 ErrMin= 1.09D-05
 ErrMax= 1.09D-05  0.00D+00 EMaxC= 1.00D-01 BMatC= 2.03D-08 BMatP= 1.63D-07
 IDIUse=1 WtCom= 1.00D+00 WtEn= 0.00D+00
 Coeff-Com:  0.111D-02-0.224D-02-0.170D-02 0.122D-01 0.293D-01-0.183D+00
 Coeff-Com:  0.706D-01 0.107D+01
 Coeff:      0.111D-02-0.224D-02-0.170D-02 0.122D-01 0.293D-01-0.183D+00
 Coeff:      0.706D-01 0.107D+01
 Gap=     0.299 Goal=   None    Shift=    0.000
 RMSDP=1.82D-06 MaxDP=3.94D-05 DE=-6.52D-07 OVMax= 1.93D-04

 Cycle   9  Pass 1  IDiag  1:
 E= -829.682762728487     Delta-E=       -0.000000069017 Rises=F Damp=F
 DIIS: error= 4.21D-06 at cycle   9 NSaved=   9.
 NSaved= 9 IEnMin= 9 EnMin= -829.682762728487     IErMin= 9 ErrMin= 4.21D-06
 ErrMax= 4.21D-06  0.00D+00 EMaxC= 1.00D-01 BMatC= 2.11D-09 BMatP= 2.03D-08
 IDIUse=1 WtCom= 1.00D+00 WtEn= 0.00D+00
 Coeff-Com: -0.317D-03 0.665D-03 0.385D-04-0.617D-02 0.962D-03 0.770D-01
 Coeff-Com: -0.134D+00-0.454D+00 0.152D+01
 Coeff:     -0.317D-03 0.665D-03 0.385D-04-0.617D-02 0.962D-03 0.770D-01
 Coeff:     -0.134D+00-0.454D+00 0.152D+01
 Gap=     0.299 Goal=   None    Shift=    0.000
 RMSDP=8.43D-07 MaxDP=2.59D-05 DE=-6.90D-08 OVMax= 9.65D-05

 Cycle  10  Pass 1  IDiag  1:
 E= -829.682762739507     Delta-E=       -0.000000011021 Rises=F Damp=F
 DIIS: error= 1.47D-06 at cycle  10 NSaved=  10.
 NSaved=10 IEnMin=10 EnMin= -829.682762739507     IErMin=10 ErrMin= 1.47D-06
 ErrMax= 1.47D-06  0.00D+00 EMaxC= 1.00D-01 BMatC= 2.00D-10 BMatP= 2.11D-09
 IDIUse=1 WtCom= 1.00D+00 WtEn= 0.00D+00
 Coeff-Com: -0.196D-04 0.342D-04 0.125D-03 0.615D-03-0.350D-02-0.224D-02
 Coeff-Com:  0.325D-01 0.992D-02-0.399D+00 0.136D+01
 Coeff:     -0.196D-04 0.342D-04 0.125D-03 0.615D-03-0.350D-02-0.224D-02
 Coeff:      0.325D-01 0.992D-02-0.399D+00 0.136D+01
 Gap=     0.299 Goal=   None    Shift=    0.000
 RMSDP=2.47D-07 MaxDP=7.53D-06 DE=-1.10D-08 OVMax= 2.97D-05

 Cycle  11  Pass 1  IDiag  1:
 E= -829.682762740545     Delta-E=       -0.000000001038 Rises=F Damp=F
 DIIS: error= 5.55D-07 at cycle  11 NSaved=  11.
 NSaved=11 IEnMin=11 EnMin= -829.682762740545     IErMin=11 ErrMin= 5.55D-07
 ErrMax= 5.55D-07  0.00D+00 EMaxC= 1.00D-01 BMatC= 1.99D-11 BMatP= 2.00D-10
 IDIUse=1 WtCom= 1.00D+00 WtEn= 0.00D+00
 Coeff-Com:  0.391D-04-0.822D-04-0.126D-04 0.737D-03 0.145D-05-0.939D-02
 Coeff-Com:  0.147D-01 0.518D-01-0.156D+00-0.119D+00 0.122D+01
 Coeff:      0.391D-04-0.822D-04-0.126D-04 0.737D-03 0.145D-05-0.939D-02
 Coeff:      0.147D-01 0.518D-01-0.156D+00-0.119D+00 0.122D+01
 Gap=     0.299 Goal=   None    Shift=    0.000
 RMSDP=8.41D-08 MaxDP=2.57D-06 DE=-1.04D-09 OVMax= 9.50D-06

 Cycle  12  Pass 1  IDiag  1:
 E= -829.682762740640     Delta-E=       -0.000000000095 Rises=F Damp=F
 DIIS: error= 1.28D-07 at cycle  12 NSaved=  12.
 NSaved=12 IEnMin=12 EnMin= -829.682762740640     IErMin=12 ErrMin= 1.28D-07
 ErrMax= 1.28D-07  0.00D+00 EMaxC= 1.00D-01 BMatC= 1.01D-12 BMatP= 1.99D-11
 IDIUse=1 WtCom= 1.00D+00 WtEn= 0.00D+00
 Coeff-Com: -0.223D-05 0.520D-05-0.932D-05-0.985D-04 0.304D-03 0.862D-03
 Coeff-Com: -0.342D-02-0.599D-02 0.410D-01-0.652D-01-0.166D+00 0.120D+01
 Coeff:     -0.223D-05 0.520D-05-0.932D-05-0.985D-04 0.304D-03 0.862D-03
 Coeff:     -0.342D-02-0.599D-02 0.410D-01-0.652D-01-0.166D+00 0.120D+01
 Gap=     0.299 Goal=   None    Shift=    0.000
 RMSDP=2.26D-08 MaxDP=1.07D-06 DE=-9.46D-11 OVMax= 1.51D-06

 Cycle  13  Pass 1  IDiag  1:
 E= -829.682762740643     Delta-E=       -0.000000000003 Rises=F Damp=F
 DIIS: error= 2.92D-08 at cycle  13 NSaved=  13.
 NSaved=13 IEnMin=13 EnMin= -829.682762740643     IErMin=13 ErrMin= 2.92D-08
 ErrMax= 2.92D-08  0.00D+00 EMaxC= 1.00D-01 BMatC= 8.93D-14 BMatP= 1.01D-12
 IDIUse=1 WtCom= 1.00D+00 WtEn= 0.00D+00
 Coeff-Com: -0.274D-05 0.581D-05 0.402D-07-0.494D-04-0.628D-05 0.649D-03
 Coeff-Com: -0.970D-03-0.338D-02 0.978D-02 0.132D-01-0.964D-01-0.173D-01
 Coeff-Com:  0.109D+01
 Coeff:     -0.274D-05 0.581D-05 0.402D-07-0.494D-04-0.628D-05 0.649D-03
 Coeff:     -0.970D-03-0.338D-02 0.978D-02 0.132D-01-0.964D-01-0.173D-01
 Coeff:      0.109D+01
 Gap=     0.299 Goal=   None    Shift=    0.000
 RMSDP=6.22D-09 MaxDP=3.82D-07 DE=-3.41D-12 OVMax= 4.43D-07

 SCF Done:  E(RHF) =  -829.682762741     A.U. after   13 cycles
            NFock= 13  Conv=0.62D-08     -V/T= 2.2847
 KE= 6.458364576461D+02 PE=-2.197769390536D+03 EE= 5.775475533181D+02
 Leave Link  502 at Tue Oct 12 15:34:40 2021, MaxMem=  1048576000 cpu:        17.7
 (Enter /usr/local/gaussian/g09/l801.exe)
 ExpMin= 2.53D-02 ExpMax= 4.56D+05 ExpMxC= 1.44D+03 IAcc=3 IRadAn=         5 AccDes= 0.00D+00
 HarFok:  IExCor=  205 AccDes= 0.00D+00 IRadAn=         5 IDoV=-2 UseB2=F ITyADJ=14
 ICtDFT= 12500011 ScaDFX=  1.000000  1.000000  1.000000  1.000000
 Defaulting to unpruned grid for atomic number  53.
 Defaulting to unpruned grid for atomic number  53.
 Defaulting to unpruned grid for atomic number  53.
 Defaulting to unpruned grid for atomic number  53.
 Defaulting to unpruned grid for atomic number  53.
 Defaulting to unpruned grid for atomic number  53.
 Defaulting to unpruned grid for atomic number  53.
 Defaulting to unpruned grid for atomic number  53.
 Defaulting to unpruned grid for atomic number  53.
 Defaulting to unpruned grid for atomic number  53.
 Defaulting to unpruned grid for atomic number  53.
 Defaulting to unpruned grid for atomic number  53.
 Largest valence mixing into a core orbital is  4.48D-04
 Largest core mixing into a valence orbital is  1.59D-04
 Range of M.O.s used for correlation:    11   174
 NBasis=   174 NAE=    26 NBE=    26 NFC=    10 NFV=     0
 NROrb=    164 NOA=    16 NOB=    16 NVA=   148 NVB=   148

 **** Warning!!: The largest alpha MO coefficient is  0.20936338D+02

 Leave Link  801 at Tue Oct 12 15:34:40 2021, MaxMem=  1048576000 cpu:         0.8
 (Enter /usr/local/gaussian/g09/l906.exe)
 Frozen-core derivative calculation, NFC=  10 NFV=   0.
 FulOut=F Deriv=T AODrv=F NAtomX=     4
   MMem=         239  MDisk=          16 MDiskD=          16
  W3Min=      922896 MinDsk=     1491158 NBas6D=         204
 NBas2D=       21411    NTT=       20910    LW2=    26219120
    MDV=  1048172231 MDiskM=       25641 NBas2p=       21407
 Fully in-core method, ICMem=   539113593.
 IMap=   1   2   3   4   5   6   7   8   9  10  11  12  13  14  15  16  17  18  19  20
 IMap=  21  22  23  24  25  26
 JobTyp=1 Pass  1 fully in-core, NPsUse= 12.
 Compute canonical integrals.
 FoFCou: FMM=F IPFlag=           0 FMFlag=           0 FMFlg1=           0
         NFxFlg=           0 DoJE=F BraDBF=F KetDBF=F FulRan=T
         wScrn=  0.000000 ICntrl=     600 IOpCl=  1 I1Cent=           0 NGrid=           0
         NMat0=    1 NMatS0=  21411 NMatT0=    0 NMatD0=    1 NMtDS0=    0 NMtDT0=    0
 Symmetry not used in FoFCou.
 Spin components of T(2) and E(2):
     alpha-alpha T2 =       0.3073549208D-01 E2=     -0.9061416915D-01
     alpha-beta  T2 =       0.1628731266D+00 E2=     -0.4950073727D+00
     beta-beta   T2 =       0.3073549208D-01 E2=     -0.9061416915D-01
 The integrals were generated   1 times.
 ANorm=    0.1106500841D+01
 E2 =    -0.6762357110D+00 EUMP2 =    -0.83035899845160D+03
 Leave Link  906 at Tue Oct 12 15:34:49 2021, MaxMem=  1048576000 cpu:       103.6
 (Enter /usr/local/gaussian/g09/l1002.exe)
 Minotr:  Closed shell wavefunction.
          Computing MP2/KS-MP2 derivatives.
          Using Z-Vector for PSCF gradient.
          Skipping F1 and S1 gradient terms here.
          Frozen-core window.
          Direct CPHF calculation.
          Differentiating once with respect to electric field.
                with respect to dipole field.
          Electric field/nuclear overlap derivatives assumed to be zero.
          Requested convergence is 1.0D-10 RMS, and 1.0D-09 maximum.
          NewPWx=F KeepS1=T KeepF1=T KeepIn=T MapXYZ=F SortEE=F KeepMc=T.
          MDV=    1048575800 using IRadAn=       0.
 Keep R1 ints in memory in canonical form, NReq=124351794.
 FoFCou: FMM=F IPFlag=           0 FMFlag=           0 FMFlg1=           0
         NFxFlg=           0 DoJE=F BraDBF=F KetDBF=F FulRan=T
         wScrn=  0.000000 ICntrl=     600 IOpCl=  0 I1Cent=           0 NGrid=           0
         NMat0=    1 NMatS0=  15225 NMatT0=    0 NMatD0=    1 NMtDS0=    0 NMtDT0=    0
 Symmetry not used in FoFCou.
          Solving linear equations separately, MaxMat=       0.
          There are     1 degrees of freedom in the 1st order CPHF.  IDoFFX=0 NUNeed=     1.
 LinEq1:  Iter=  0 NonCon=     1 RMS=2.75D-03 Max=4.16D-02 NDo=     1
 AX will form     1 AO Fock derivatives at one time.
 LinEq1:  Iter=  1 NonCon=     1 RMS=4.25D-04 Max=4.87D-03 NDo=     1
 LinEq1:  Iter=  2 NonCon=     1 RMS=1.83D-04 Max=3.14D-03 NDo=     1
 LinEq1:  Iter=  3 NonCon=     1 RMS=5.11D-05 Max=8.07D-04 NDo=     1
 LinEq1:  Iter=  4 NonCon=     1 RMS=2.28D-05 Max=6.98D-04 NDo=     1
 LinEq1:  Iter=  5 NonCon=     1 RMS=6.60D-06 Max=9.28D-05 NDo=     1
 LinEq1:  Iter=  6 NonCon=     1 RMS=1.67D-06 Max=2.16D-05 NDo=     1
 LinEq1:  Iter=  7 NonCon=     1 RMS=3.67D-07 Max=5.89D-06 NDo=     1
 LinEq1:  Iter=  8 NonCon=     1 RMS=9.19D-08 Max=1.75D-06 NDo=     1
 LinEq1:  Iter=  9 NonCon=     1 RMS=2.80D-08 Max=5.96D-07 NDo=     1
 LinEq1:  Iter= 10 NonCon=     1 RMS=7.71D-09 Max=1.64D-07 NDo=     1
 LinEq1:  Iter= 11 NonCon=     1 RMS=1.85D-09 Max=2.75D-08 NDo=     1
 LinEq1:  Iter= 12 NonCon=     1 RMS=4.89D-10 Max=9.60D-09 NDo=     1
 LinEq1:  Iter= 13 NonCon=     1 RMS=1.24D-10 Max=1.49D-09 NDo=     1
 LinEq1:  Iter= 14 NonCon=     0 RMS=2.50D-11 Max=4.35D-10 NDo=     1
 Linear equations converged to 1.000D-10 1.000D-09 after    14 iterations.
 End of Minotr F.D. properties file   721 does not exist.
 End of Minotr F.D. properties file   722 does not exist.
 End of Minotr F.D. properties file   788 does not exist.
 Leave Link 1002 at Tue Oct 12 15:34:52 2021, MaxMem=  1048576000 cpu:        16.5
 (Enter /usr/local/gaussian/g09/l601.exe)
 Copying SCF densities to generalized density rwf, IOpCl= 0 IROHF=0.

 **********************************************************************

            Population analysis using the MP2 density.

 **********************************************************************

 Alpha  occ. eigenvalues -- -104.74973 -20.47799 -10.46909  -7.93627  -7.93350
 Alpha  occ. eigenvalues --   -7.93338  -7.47298  -5.29863  -5.29824  -5.29821
 Alpha  occ. eigenvalues --   -2.02616  -2.02589  -2.02586  -2.02546  -2.02545
 Alpha  occ. eigenvalues --   -1.27413  -0.92339  -0.63927  -0.58089  -0.46482
 Alpha  occ. eigenvalues --   -0.45671  -0.32778  -0.30066  -0.15743  -0.14851
 Alpha  occ. eigenvalues --   -0.14846
 Alpha virt. eigenvalues --    0.15072   0.17382   0.21591   0.22479   0.24019
 Alpha virt. eigenvalues --    0.25087   0.25352   0.27038   0.29417   0.30300
 Alpha virt. eigenvalues --    0.30340   0.31205   0.34550   0.37597   0.38022
 Alpha virt. eigenvalues --    0.39118   0.42135   0.43181   0.44464   0.50092
 Alpha virt. eigenvalues --    0.52625   0.54388   0.55320   0.56582   0.57354
 Alpha virt. eigenvalues --    0.58199   0.63739   0.66130   0.74129   0.75147
 Alpha virt. eigenvalues --    0.75663   0.77236   0.77615   0.79494   0.79524
 Alpha virt. eigenvalues --    0.81126   0.82015   0.83547   0.84169   0.86078
 Alpha virt. eigenvalues --    0.87053   0.87807   0.88439   0.88740   0.89492
 Alpha virt. eigenvalues --    0.93026   0.95412   0.95779   0.99265   1.02100
 Alpha virt. eigenvalues --    1.03838   1.07560   1.08978   1.10796   1.11282
 Alpha virt. eigenvalues --    1.13191   1.19121   1.19342   1.21198   1.23927
 Alpha virt. eigenvalues --    1.25002   1.33226   1.34149   1.40297   1.44506
 Alpha virt. eigenvalues --    1.49340   1.53661   1.54461   1.60377   1.61622
 Alpha virt. eigenvalues --    1.65751   1.67155   1.73164   1.73855   1.74744
 Alpha virt. eigenvalues --    1.74868   1.76688   1.77890   1.80955   1.86342
 Alpha virt. eigenvalues --    1.88169   1.89529   1.90761   1.95693   2.05542
 Alpha virt. eigenvalues --    2.05564   2.11073   2.13842   2.14360   2.24162
 Alpha virt. eigenvalues --    2.36511   2.49189   2.52966   2.53628   2.56869
 Alpha virt. eigenvalues --    2.57095   2.60062   2.66915   2.68369   2.70412
 Alpha virt. eigenvalues --    2.71117   2.74370   2.75648   2.78576   2.91504
 Alpha virt. eigenvalues --    2.95931   3.04285   3.07602   3.17354   3.19875
 Alpha virt. eigenvalues --    3.20328   3.23360   3.26650   3.27336   3.29593
 Alpha virt. eigenvalues --    3.34794   3.51379   3.53032   3.54693   3.92575
 Alpha virt. eigenvalues --    3.97662   4.38833   4.46019   4.54911   4.60430
 Alpha virt. eigenvalues --    4.63220   4.77978   5.03874   5.21404   5.67267
 Alpha virt. eigenvalues --    5.73653   5.87081   6.36550   6.57972   6.84591
 Alpha virt. eigenvalues --    6.89229   6.89694   6.98771   7.31310   7.42504
 Alpha virt. eigenvalues --    7.43432   7.59572   7.59804   7.84431   8.05265
 Alpha virt. eigenvalues --    8.50758  17.19340  59.21977
          Condensed to atoms (all electrons):
               1          2          3          4
     1  O    8.609455  -0.106567  -0.073353  -0.016323
     2  Cl  -0.106567  17.038154   0.006071  -0.007172
     3  I   -0.073353   0.006071  25.909348   0.041997
     4  H   -0.016323  -0.007172   0.041997   0.753738
 Mulliken charges:
               1
     1  O   -0.413211
     2  Cl   0.069514
     3  I   -0.884063
     4  H    0.227760
 Sum of Mulliken charges =  -1.00000
 Mulliken charges with hydrogens summed into heavy atoms:
               1
     1  O   -0.185451
     2  Cl   0.069514
     3  I   -0.884063
 Electronic spatial extent (au):  <R**2>=           1306.9669
 Charge=             -1.0000 electrons
 Dipole moment (field-independent basis, Debye):
    X=              2.4755    Y=             12.1905    Z=              0.0000  Tot=             12.4393
 Quadrupole moment (field-independent basis, Debye-Ang):
   XX=            -55.4236   YY=            -95.5646   ZZ=            -53.3438
   XY=            -10.3428   XZ=             -0.0000   YZ=             -0.0000
 Traceless Quadrupole moment (field-independent basis, Debye-Ang):
   XX=             12.6871   YY=            -27.4539   ZZ=             14.7668
   XY=            -10.3428   XZ=             -0.0000   YZ=             -0.0000
 Octapole moment (field-independent basis, Debye-Ang**2):
  XXX=             15.4430  YYY=            461.0555  ZZZ=              0.0000  XYY=             35.5185
  XXY=            115.5741  XXZ=              0.0000  XZZ=              2.7835  YZZ=            108.1925
  YYZ=              0.0000  XYZ=              0.0000
 Hexadecapole moment (field-independent basis, Debye-Ang**3):
 XXXX=           -407.9816 YYYY=          -2599.2742 ZZZZ=            -88.3050 XXXY=           -252.7232
 XXXZ=             -0.0000 YYYX=           -348.1548 YYYZ=             -0.0000 ZZZX=             -0.0000
 ZZZY=             -0.0000 XXYY=           -458.9542 XXZZ=            -87.8003 YYZZ=           -377.1173
 XXYZ=             -0.0000 YYXZ=             -0.0000 ZZXY=            -82.2477
 N-N= 1.447026168308D+02 E-N=-2.197319202175D+03  KE= 6.461981538874D+02
 No NMR shielding tensors so no spin-rotation constants.
 Leave Link  601 at Tue Oct 12 15:34:52 2021, MaxMem=  1048576000 cpu:         2.1
 (Enter /usr/local/gaussian/g09/l607.exe)
 ******************************Gaussian NBO Version 3.1******************************
             N A T U R A L   A T O M I C   O R B I T A L   A N D
          N A T U R A L   B O N D   O R B I T A L   A N A L Y S I S
 ******************************Gaussian NBO Version 3.1******************************
       /RESON  / : Allow strongly delocalized NBO set

 Analyzing the MP2 density

 Job title: title                                                           

 Storage needed:     91686 in NPA,    121697 in NBO (1048575896 available)


 NATURAL POPULATIONS:  Natural atomic orbital occupancies 
                                                          
   NAO  Atom  No  lang   Type(AO)    Occupancy
 --------------------------------------------
     1    O    1  S      Cor( 1S)     1.99961
     2    O    1  S      Val( 2S)     1.75585
     3    O    1  S      Ryd( 3S)     0.00902
     4    O    1  S      Ryd( 4S)     0.00108
     5    O    1  S      Ryd( 5S)     0.00021
     6    O    1  px     Val( 2p)     1.21866
     7    O    1  px     Ryd( 3p)     0.00622
     8    O    1  px     Ryd( 4p)     0.00060
     9    O    1  px     Ryd( 5p)     0.00030
    10    O    1  py     Val( 2p)     1.68514
    11    O    1  py     Ryd( 3p)     0.01172
    12    O    1  py     Ryd( 4p)     0.00076
    13    O    1  py     Ryd( 5p)     0.00040
    14    O    1  pz     Val( 2p)     1.94826
    15    O    1  pz     Ryd( 3p)     0.01936
    16    O    1  pz     Ryd( 4p)     0.00069
    17    O    1  pz     Ryd( 5p)     0.00015
    18    O    1  dxy    Ryd( 3d)     0.00884
    19    O    1  dxy    Ryd( 4d)     0.00046
    20    O    1  dxy    Ryd( 5d)     0.00015
    21    O    1  dxz    Ryd( 3d)     0.00849
    22    O    1  dxz    Ryd( 4d)     0.00054
    23    O    1  dxz    Ryd( 5d)     0.00010
    24    O    1  dyz    Ryd( 3d)     0.00809
    25    O    1  dyz    Ryd( 4d)     0.00056
    26    O    1  dyz    Ryd( 5d)     0.00035
    27    O    1  dx2y2  Ryd( 3d)     0.01322
    28    O    1  dx2y2  Ryd( 4d)     0.00030
    29    O    1  dx2y2  Ryd( 5d)     0.00019
    30    O    1  dz2    Ryd( 3d)     0.00983
    31    O    1  dz2    Ryd( 4d)     0.00050
    32    O    1  dz2    Ryd( 5d)     0.00014
    33    O    1  f(0)   Ryd( 4f)     0.00073
    34    O    1  f(0)   Ryd( 5f)     0.00010
    35    O    1  f(C1)  Ryd( 4f)     0.00067
    36    O    1  f(C1)  Ryd( 5f)     0.00011
    37    O    1  f(S1)  Ryd( 4f)     0.00054
    38    O    1  f(S1)  Ryd( 5f)     0.00010
    39    O    1  f(C2)  Ryd( 4f)     0.00056
    40    O    1  f(C2)  Ryd( 5f)     0.00012
    41    O    1  f(S2)  Ryd( 4f)     0.00053
    42    O    1  f(S2)  Ryd( 5f)     0.00012
    43    O    1  f(C3)  Ryd( 4f)     0.00055
    44    O    1  f(C3)  Ryd( 5f)     0.00014
    45    O    1  f(S3)  Ryd( 4f)     0.00052
    46    O    1  f(S3)  Ryd( 5f)     0.00014

    47   Cl    2  S      Cor( 1S)     2.00000
    48   Cl    2  S      Cor( 2S)     1.99982
    49   Cl    2  S      Val( 3S)     1.88576
    50   Cl    2  S      Ryd( 4S)     0.00756
    51   Cl    2  S      Ryd( 5S)     0.00052
    52   Cl    2  S      Ryd( 6S)     0.00016
    53   Cl    2  px     Cor( 2p)     1.99997
    54   Cl    2  px     Val( 3p)     0.89308
    55   Cl    2  px     Ryd( 4p)     0.00641
    56   Cl    2  px     Ryd( 5p)     0.00052
    57   Cl    2  px     Ryd( 6p)     0.00019
    58   Cl    2  py     Cor( 2p)     2.00003
    59   Cl    2  py     Val( 3p)     1.95328
    60   Cl    2  py     Ryd( 4p)     0.00955
    61   Cl    2  py     Ryd( 5p)     0.00051
    62   Cl    2  py     Ryd( 6p)     0.00012
    63   Cl    2  pz     Cor( 2p)     2.00003
    64   Cl    2  pz     Val( 3p)     1.95489
    65   Cl    2  pz     Ryd( 4p)     0.01024
    66   Cl    2  pz     Ryd( 5p)     0.00067
    67   Cl    2  pz     Ryd( 6p)     0.00003
    68   Cl    2  dxy    Ryd( 3d)     0.01619
    69   Cl    2  dxy    Ryd( 4d)     0.00068
    70   Cl    2  dxy    Ryd( 5d)     0.00030
    71   Cl    2  dxz    Ryd( 3d)     0.02104
    72   Cl    2  dxz    Ryd( 4d)     0.00096
    73   Cl    2  dxz    Ryd( 5d)     0.00035
    74   Cl    2  dyz    Ryd( 3d)     0.01673
    75   Cl    2  dyz    Ryd( 4d)     0.00074
    76   Cl    2  dyz    Ryd( 5d)     0.00017
    77   Cl    2  dx2y2  Ryd( 3d)     0.01863
    78   Cl    2  dx2y2  Ryd( 4d)     0.00048
    79   Cl    2  dx2y2  Ryd( 5d)     0.00016
    80   Cl    2  dz2    Ryd( 3d)     0.01747
    81   Cl    2  dz2    Ryd( 4d)     0.00061
    82   Cl    2  dz2    Ryd( 5d)     0.00014
    83   Cl    2  f(0)   Ryd( 4f)     0.00131
    84   Cl    2  f(0)   Ryd( 5f)     0.00013
    85   Cl    2  f(C1)  Ryd( 4f)     0.00143
    86   Cl    2  f(C1)  Ryd( 5f)     0.00014
    87   Cl    2  f(S1)  Ryd( 4f)     0.00127
    88   Cl    2  f(S1)  Ryd( 5f)     0.00013
    89   Cl    2  f(C2)  Ryd( 4f)     0.00134
    90   Cl    2  f(C2)  Ryd( 5f)     0.00013
    91   Cl    2  f(S2)  Ryd( 4f)     0.00119
    92   Cl    2  f(S2)  Ryd( 5f)     0.00013
    93   Cl    2  f(C3)  Ryd( 4f)     0.00152
    94   Cl    2  f(C3)  Ryd( 5f)     0.00013
    95   Cl    2  f(S3)  Ryd( 4f)     0.00125
    96   Cl    2  f(S3)  Ryd( 5f)     0.00013

    97    I    3  S      Cor( 4S)     1.99995
    98    I    3  S      Val( 5S)     1.97479
    99    I    3  S      Ryd( 6S)     0.00222
   100    I    3  S      Ryd( 7S)     0.00051
   101    I    3  S      Ryd( 8S)     0.00012
   102    I    3  S      Ryd( 9S)     0.00000
   103    I    3  px     Cor( 4p)     2.00005
   104    I    3  px     Val( 5p)     1.94808
   105    I    3  px     Ryd( 6p)     0.01062
   106    I    3  px     Ryd( 7p)     0.00073
   107    I    3  px     Ryd( 8p)     0.00010
   108    I    3  py     Cor( 4p)     1.99995
   109    I    3  py     Val( 5p)     1.89871
   110    I    3  py     Ryd( 6p)     0.00952
   111    I    3  py     Ryd( 7p)     0.00063
   112    I    3  py     Ryd( 8p)     0.00015
   113    I    3  pz     Cor( 4p)     2.00006
   114    I    3  pz     Val( 5p)     1.95123
   115    I    3  pz     Ryd( 6p)     0.01074
   116    I    3  pz     Ryd( 7p)     0.00074
   117    I    3  pz     Ryd( 8p)     0.00010
   118    I    3  dxy    Cor( 4d)     1.99672
   119    I    3  dxy    Ryd( 5d)     0.02027
   120    I    3  dxy    Ryd( 6d)     0.00138
   121    I    3  dxy    Ryd( 7d)     0.00019
   122    I    3  dxz    Cor( 4d)     1.99678
   123    I    3  dxz    Ryd( 5d)     0.02017
   124    I    3  dxz    Ryd( 6d)     0.00165
   125    I    3  dxz    Ryd( 7d)     0.00020
   126    I    3  dyz    Cor( 4d)     1.99675
   127    I    3  dyz    Ryd( 5d)     0.02045
   128    I    3  dyz    Ryd( 6d)     0.00137
   129    I    3  dyz    Ryd( 7d)     0.00017
   130    I    3  dx2y2  Cor( 4d)     1.99667
   131    I    3  dx2y2  Ryd( 5d)     0.02000
   132    I    3  dx2y2  Ryd( 6d)     0.00158
   133    I    3  dx2y2  Ryd( 7d)     0.00021
   134    I    3  dz2    Cor( 4d)     1.99674
   135    I    3  dz2    Ryd( 5d)     0.02007
   136    I    3  dz2    Ryd( 6d)     0.00165
   137    I    3  dz2    Ryd( 7d)     0.00017
   138    I    3  f(0)   Ryd( 4f)     0.00272
   139    I    3  f(0)   Ryd( 5f)     0.00044
   140    I    3  f(C1)  Ryd( 4f)     0.00275
   141    I    3  f(C1)  Ryd( 5f)     0.00043
   142    I    3  f(S1)  Ryd( 4f)     0.00276
   143    I    3  f(S1)  Ryd( 5f)     0.00045
   144    I    3  f(C2)  Ryd( 4f)     0.00271
   145    I    3  f(C2)  Ryd( 5f)     0.00044
   146    I    3  f(S2)  Ryd( 4f)     0.00277
   147    I    3  f(S2)  Ryd( 5f)     0.00045
   148    I    3  f(C3)  Ryd( 4f)     0.00269
   149    I    3  f(C3)  Ryd( 5f)     0.00044
   150    I    3  f(S3)  Ryd( 4f)     0.00271
   151    I    3  f(S3)  Ryd( 5f)     0.00045

   152    H    4  S      Val( 1S)     0.50308
   153    H    4  S      Ryd( 2S)     0.00955
   154    H    4  S      Ryd( 3S)     0.00033
   155    H    4  S      Ryd( 4S)     0.00011
   156    H    4  px     Ryd( 2p)     0.00401
   157    H    4  px     Ryd( 3p)     0.00050
   158    H    4  px     Ryd( 4p)     0.00012
   159    H    4  py     Ryd( 2p)     0.00552
   160    H    4  py     Ryd( 3p)     0.00071
   161    H    4  py     Ryd( 4p)     0.00045
   162    H    4  pz     Ryd( 2p)     0.00561
   163    H    4  pz     Ryd( 3p)     0.00045
   164    H    4  pz     Ryd( 4p)     0.00018
   165    H    4  dxy    Ryd( 3d)     0.00032
   166    H    4  dxy    Ryd( 4d)     0.00012
   167    H    4  dxz    Ryd( 3d)     0.00023
   168    H    4  dxz    Ryd( 4d)     0.00008
   169    H    4  dyz    Ryd( 3d)     0.00045
   170    H    4  dyz    Ryd( 4d)     0.00011
   171    H    4  dx2y2  Ryd( 3d)     0.00024
   172    H    4  dx2y2  Ryd( 4d)     0.00013
   173    H    4  dz2    Ryd( 3d)     0.00023
   174    H    4  dz2    Ryd( 4d)     0.00011

 [ 28 electrons found in the effective core potential]

 WARNING:  5 low occupancy (<1.9990e) core orbitals found on  I    3


 Summary of Natural Population Analysis:                  
                                                          
                                       Natural Population 
                Natural  -----------------------------------------------
    Atom  No    Charge         Core      Valence    Rydberg      Total
 -----------------------------------------------------------------------
      O    1   -0.71472      1.99961     6.60791    0.10720     8.71472
     Cl    2    0.17178      9.99984     6.68701    0.14136    16.82822
      I    3   -0.92442     45.98366     7.77282    0.16794    53.92442
      H    4    0.46736      0.00000     0.50308    0.02956     0.53264
 =======================================================================
   * Total *   -1.00000     57.98312    21.57082    0.44606    80.00000

                                 Natural Population      
 --------------------------------------------------------
   Effective Core            28.00000
   Core                      29.98312 ( 99.9437% of  30)
   Valence                   21.57082 ( 98.0492% of  22)
   Natural Minimal Basis     79.55394 ( 99.4424% of  80)
   Natural Rydberg Basis      0.44606 (  0.5576% of  80)
 --------------------------------------------------------

    Atom  No          Natural Electron Configuration
 ----------------------------------------------------------------------------
      O    1      [core]2S( 1.76)2p( 4.85)3S( 0.01)3p( 0.04)3d( 0.05)
     Cl    2      [core]3S( 1.89)3p( 4.80)4S( 0.01)3d( 0.09)4p( 0.03)4f( 0.01)
      I    3      [core]5S( 1.97)5p( 5.80)4f( 0.02)5d( 0.10)6p( 0.03)6d( 0.01)
      H    4            1S( 0.50)2S( 0.01)2p( 0.02)


 NATURAL BOND ORBITAL ANALYSIS:

                       Occupancies       Lewis Structure    Low   High
           Occ.    -------------------  -----------------   occ   occ
  Cycle   Thresh.   Lewis   Non-Lewis     CR  BD  3C  LP    (L)   (NL)   Dev
 =============================================================================
   1(1)    1.90    79.47290   0.52710     15   2   0   9     1      0    0.08
   2(2)    1.90    79.47290   0.52710     15   2   0   9     1      0    0.08
   3(1)    1.80    79.47290   0.52710     15   2   0   9     0      0    0.08
 -----------------------------------------------------------------------------

 Structure accepted: No low occupancy Lewis orbitals

 WARNING:  5 low occupancy (<1.9990e) core orbitals found on  I    3

 --------------------------------------------------------
   Effective Core           28.00000
   Core                     29.98311 ( 99.944% of  30)
   Valence Lewis            21.48978 ( 97.681% of  22)
  ==================       ============================
   Total Lewis              79.47290 ( 99.341% of  80)
  -----------------------------------------------------
   Valence non-Lewis         0.12741 (  0.159% of  80)
   Rydberg non-Lewis         0.39970 (  0.500% of  80)
  ==================       ============================
   Total non-Lewis           0.52710 (  0.659% of  80)
 --------------------------------------------------------


       (Occupancy)   Bond orbital/ Coefficients/ Hybrids
 ---------------------------------------------------------------------------------
     1. (1.94046) BD ( 1) O   1 -Cl   2  
                ( 59.53%)   0.7716* O   1 s( 10.68%)p 8.31( 88.80%)d 0.05(  0.50%)
                                                  f 0.00(  0.02%)
                                            0.0003  0.3245 -0.0374 -0.0131 -0.0008
                                            0.9413 -0.0246 -0.0101 -0.0093 -0.0158
                                           -0.0300 -0.0047 -0.0001  0.0000  0.0000
                                            0.0000  0.0000 -0.0253  0.0019  0.0022
                                            0.0000  0.0000  0.0000  0.0000  0.0000
                                            0.0000  0.0505 -0.0046  0.0022 -0.0423
                                            0.0038  0.0006  0.0000  0.0000 -0.0116
                                            0.0012 -0.0002  0.0000  0.0000  0.0000
                                            0.0000  0.0000  0.0048  0.0006 -0.0002
                                            0.0023
                ( 40.47%)   0.6361*Cl   2 s(  8.14%)p11.12( 90.55%)d 0.15(  1.20%)
                                                  f 0.01(  0.11%)
                                           -0.0000  0.0005  0.2801 -0.0538 -0.0097
                                            0.0028 -0.0004 -0.9491  0.0658  0.0139
                                           -0.0038 -0.0000 -0.0099 -0.0014  0.0024
                                           -0.0005  0.0000  0.0000  0.0000  0.0000
                                            0.0000  0.0132  0.0000  0.0009  0.0000
                                            0.0000  0.0000  0.0000  0.0000  0.0000
                                            0.0913 -0.0098  0.0001 -0.0579  0.0054
                                            0.0007  0.0000  0.0000  0.0209 -0.0033
                                            0.0005 -0.0003  0.0000  0.0000  0.0000
                                            0.0000 -0.0250  0.0027 -0.0011  0.0002
     2. (1.96951) BD ( 1) O   1 - H   4  
                ( 77.17%)   0.8784* O   1 s( 32.54%)p 2.06( 66.96%)d 0.02(  0.49%)
                                                  f 0.00(  0.01%)
                                           -0.0003 -0.5703  0.0120  0.0068 -0.0010
                                            0.2077 -0.0196 -0.0024 -0.0021  0.7910
                                           -0.0177 -0.0067 -0.0038  0.0000  0.0000
                                            0.0000  0.0000 -0.0025 -0.0033 -0.0001
                                            0.0000  0.0000  0.0000  0.0000  0.0000
                                            0.0000  0.0588 -0.0038  0.0032  0.0373
                                           -0.0001 -0.0024  0.0000  0.0000 -0.0016
                                           -0.0007 -0.0081 -0.0010  0.0000  0.0000
                                            0.0000  0.0000 -0.0017 -0.0029  0.0004
                                           -0.0031
                ( 22.83%)   0.4778* H   4 s( 99.87%)p 0.00(  0.13%)d 0.00(  0.00%)
                                           -0.9988 -0.0339 -0.0014  0.0000 -0.0117
                                           -0.0069  0.0010  0.0137 -0.0278 -0.0104
                                            0.0000  0.0000  0.0000  0.0005  0.0019
                                            0.0000  0.0000  0.0000  0.0000  0.0003
                                            0.0011 -0.0014  0.0034
     3. (1.99961) CR ( 1) O   1           s(100.00%)p 0.00(  0.00%)
                                            1.0000 -0.0004  0.0000  0.0000  0.0000
                                           -0.0002  0.0000  0.0000  0.0000  0.0001
                                            0.0000 -0.0000 -0.0000  0.0000  0.0000
                                            0.0000  0.0000  0.0000 -0.0000 -0.0000
                                            0.0000  0.0000  0.0000  0.0000  0.0000
                                            0.0000 -0.0000  0.0000  0.0000  0.0000
                                           -0.0000 -0.0000  0.0000  0.0000  0.0000
                                           -0.0000 -0.0000 -0.0000  0.0000  0.0000
                                            0.0000  0.0000 -0.0000 -0.0000 -0.0000
                                           -0.0000
     4. (2.00000) CR ( 1)Cl   2           s(100.00%)
                                            1.0000  0.0000  0.0000 -0.0000 -0.0000
                                            0.0000 -0.0000 -0.0000  0.0000  0.0000
                                           -0.0000 -0.0000 -0.0000 -0.0000  0.0000
                                           -0.0000  0.0000  0.0000  0.0000  0.0000
                                            0.0000  0.0000 -0.0000  0.0000  0.0000
                                            0.0000  0.0000  0.0000  0.0000  0.0000
                                            0.0000 -0.0000  0.0000 -0.0000  0.0000
                                            0.0000  0.0000  0.0000  0.0000 -0.0000
                                            0.0000 -0.0000  0.0000  0.0000  0.0000
                                            0.0000 -0.0000  0.0000 -0.0000  0.0000
     5. (1.99982) CR ( 2)Cl   2           s(100.00%)p 0.00(  0.00%)
                                            0.0000  1.0000 -0.0004  0.0000  0.0000
                                           -0.0000  0.0000  0.0004 -0.0000 -0.0000
                                            0.0000  0.0000  0.0000  0.0000 -0.0000
                                            0.0000  0.0000  0.0000  0.0000  0.0000
                                            0.0000 -0.0000  0.0000 -0.0000  0.0000
                                            0.0000  0.0000  0.0000  0.0000  0.0000
                                           -0.0000  0.0000 -0.0000  0.0000 -0.0000
                                           -0.0000  0.0000  0.0000 -0.0000  0.0000
                                           -0.0000  0.0000  0.0000  0.0000  0.0000
                                            0.0000  0.0000 -0.0000  0.0000 -0.0000
     6. (1.99997) CR ( 3)Cl   2           s(  0.00%)p 1.00(100.00%)
                                           -0.0000  0.0000  0.0001 -0.0000 -0.0000
                                            0.0000  1.0000 -0.0004  0.0000  0.0000
                                           -0.0000  0.0000 -0.0000 -0.0000  0.0000
                                           -0.0000  0.0000  0.0000  0.0000  0.0000
                                            0.0000  0.0000 -0.0000  0.0000  0.0000
                                            0.0000  0.0000  0.0000  0.0000  0.0000
                                            0.0000 -0.0000  0.0000 -0.0000  0.0000
                                            0.0000  0.0000  0.0000  0.0000 -0.0000
                                            0.0000 -0.0000  0.0000  0.0000  0.0000
                                            0.0000 -0.0000  0.0000 -0.0000  0.0000
     7. (2.00003) CR ( 4)Cl   2           s(  0.00%)p 1.00(100.00%)
                                           -0.0000  0.0000  0.0000  0.0000  0.0000
                                            0.0000  0.0000 -0.0000  0.0000  0.0000
                                           -0.0000  1.0000  0.0002  0.0000  0.0000
                                            0.0000  0.0000  0.0000  0.0000  0.0000
                                            0.0000 -0.0000  0.0000  0.0000  0.0000
                                            0.0000  0.0000  0.0000  0.0000  0.0000
                                           -0.0000 -0.0000 -0.0000 -0.0000 -0.0000
                                           -0.0000  0.0000  0.0000  0.0000  0.0000
                                           -0.0000  0.0000  0.0000  0.0000  0.0000
                                            0.0000 -0.0000  0.0000  0.0000 -0.0000
     8. (2.00003) CR ( 5)Cl   2           s(  0.00%)p 1.00(100.00%)
                                            0.0000  0.0000  0.0000  0.0000  0.0000
                                            0.0000  0.0000  0.0000  0.0000  0.0000
                                            0.0000  0.0000  0.0000  0.0000  0.0000
                                            0.0000  1.0000  0.0002  0.0000  0.0000
                                           -0.0000  0.0000  0.0000  0.0000  0.0000
                                            0.0000  0.0000  0.0000  0.0000  0.0000
                                            0.0000  0.0000  0.0000  0.0000  0.0000
                                            0.0000 -0.0000  0.0000  0.0000  0.0000
                                            0.0000  0.0000  0.0000 -0.0000  0.0000
                                           -0.0000  0.0000  0.0000  0.0000  0.0000
     9. (1.99995) CR ( 1) I   3           s(100.00%)p 0.00(  0.00%)
                                            1.0000  0.0000 -0.0000 -0.0000  0.0000
                                            0.0000 -0.0000  0.0001 -0.0000 -0.0000
                                            0.0000 -0.0000  0.0004 -0.0000 -0.0000
                                            0.0000  0.0000  0.0000  0.0000  0.0000
                                            0.0000 -0.0000  0.0000 -0.0000 -0.0000
                                            0.0000  0.0000  0.0000  0.0000  0.0000
                                            0.0000  0.0000  0.0000  0.0000 -0.0000
                                            0.0000  0.0000  0.0000 -0.0000  0.0000
                                            0.0000  0.0000  0.0000 -0.0000 -0.0000
                                           -0.0000 -0.0000  0.0000  0.0000  0.0000
                                            0.0000 -0.0000 -0.0000 -0.0000 -0.0000
    10. (2.00005) CR ( 2) I   3           s(  0.00%)p 1.00(100.00%)
                                           -0.0000  0.0001  0.0000 -0.0000  0.0000
                                            0.0000  1.0000 -0.0002 -0.0000 -0.0000
                                            0.0000 -0.0000  0.0001 -0.0000 -0.0000
                                            0.0000  0.0000  0.0000  0.0000  0.0000
                                            0.0000 -0.0000 -0.0000  0.0000  0.0000
                                            0.0000  0.0000  0.0000  0.0000  0.0000
                                            0.0000  0.0000  0.0000  0.0000 -0.0000
                                            0.0000  0.0000  0.0000 -0.0000  0.0000
                                            0.0000  0.0000  0.0000  0.0000  0.0000
                                           -0.0000 -0.0000  0.0000  0.0000  0.0000
                                            0.0000  0.0000  0.0000 -0.0000 -0.0000
    11. (1.99995) CR ( 3) I   3           s(  0.00%)p 1.00(100.00%)
                                           -0.0000  0.0002 -0.0000 -0.0000  0.0000
                                            0.0000 -0.0000  0.0001 -0.0000 -0.0000
                                            0.0000  1.0000  0.0004 -0.0000 -0.0000
                                            0.0000  0.0000  0.0000  0.0000  0.0000
                                            0.0000 -0.0000  0.0000 -0.0000 -0.0000
                                            0.0000  0.0000  0.0000  0.0000  0.0000
                                            0.0000  0.0000  0.0000  0.0000 -0.0000
                                            0.0000  0.0000  0.0000 -0.0000  0.0000
                                            0.0000  0.0000  0.0000 -0.0000 -0.0000
                                           -0.0000 -0.0000  0.0000  0.0000  0.0000
                                            0.0000 -0.0000 -0.0000 -0.0000 -0.0000
    12. (2.00006) CR ( 4) I   3           s(  0.00%)p 1.00(100.00%)
                                            0.0000  0.0000  0.0000  0.0000  0.0000
                                            0.0000  0.0000  0.0000  0.0000  0.0000
                                            0.0000  0.0000  0.0000  0.0000  0.0000
                                            0.0000  1.0000 -0.0002 -0.0000 -0.0000
                                            0.0000  0.0000  0.0000  0.0000  0.0000
                                            0.0000 -0.0000  0.0000  0.0000  0.0000
                                           -0.0000  0.0000  0.0000  0.0000  0.0000
                                            0.0000  0.0000  0.0000  0.0000  0.0000
                                            0.0000  0.0000  0.0000  0.0000  0.0000
                                            0.0000  0.0000  0.0000  0.0000 -0.0000
                                           -0.0000  0.0000  0.0000  0.0000  0.0000
    13. (1.99672) CR ( 5) I   3           s(  0.00%)p 0.00(  0.00%)d 1.00(100.00%)
                                           -0.0000  0.0001 -0.0000 -0.0000  0.0000
                                            0.0000 -0.0000  0.0001 -0.0000 -0.0000
                                            0.0000 -0.0000  0.0002 -0.0000 -0.0000
                                            0.0000  0.0000  0.0000  0.0000  0.0000
                                            0.0000  1.0000  0.0000 -0.0000 -0.0000
                                            0.0000  0.0000  0.0000  0.0000  0.0000
                                            0.0000  0.0000  0.0000  0.0000 -0.0000
                                            0.0000  0.0000  0.0000 -0.0000  0.0000
                                            0.0000  0.0000  0.0000 -0.0000 -0.0000
                                           -0.0000 -0.0000  0.0000  0.0000  0.0000
                                            0.0000 -0.0000 -0.0000 -0.0000 -0.0000
    14. (1.99678) CR ( 6) I   3           s(  0.00%)p 0.00(  0.00%)d 1.00(100.00%)
                                            0.0000  0.0000  0.0000  0.0000  0.0000
                                            0.0000  0.0000  0.0000  0.0000  0.0000
                                            0.0000  0.0000  0.0000  0.0000  0.0000
                                            0.0000  0.0000  0.0000  0.0000  0.0000
                                           -0.0000  0.0000  0.0000  0.0000  0.0000
                                            1.0000  0.0000 -0.0000 -0.0000 -0.0000
                                            0.0000 -0.0000 -0.0000  0.0000  0.0000
                                            0.0000  0.0000  0.0000  0.0000  0.0000
                                            0.0000 -0.0000 -0.0000  0.0000  0.0000
                                            0.0000  0.0000 -0.0000 -0.0000  0.0000
                                            0.0000  0.0000  0.0000  0.0000  0.0000
    15. (1.99675) CR ( 7) I   3           s(  0.00%)p 0.00(  0.00%)d 1.00(100.00%)
                                            0.0000  0.0000  0.0000  0.0000  0.0000
                                            0.0000  0.0000  0.0000  0.0000  0.0000
                                            0.0000  0.0000  0.0000  0.0000  0.0000
                                            0.0000  0.0000  0.0000  0.0000  0.0000
                                           -0.0000  0.0000  0.0000  0.0000  0.0000
                                           -0.0000  0.0000 -0.0000 -0.0000  1.0000
                                            0.0000 -0.0000 -0.0000  0.0000  0.0000
                                            0.0000  0.0000  0.0000  0.0000  0.0000
                                            0.0000 -0.0000 -0.0000  0.0000  0.0000
                                            0.0000  0.0000 -0.0000 -0.0000  0.0000
                                            0.0000  0.0000  0.0000  0.0000  0.0000
    16. (1.99667) CR ( 8) I   3           s(  0.00%)p 0.00(  0.00%)d 1.00(100.00%)
                                           -0.0000  0.0001 -0.0000 -0.0000  0.0000
                                            0.0000 -0.0000  0.0001 -0.0000 -0.0000
                                            0.0000 -0.0000  0.0004 -0.0000 -0.0000
                                            0.0000 -0.0000 -0.0000 -0.0000 -0.0000
                                           -0.0000 -0.0000  0.0000 -0.0000 -0.0000
                                           -0.0000 -0.0000 -0.0000 -0.0000 -0.0000
                                           -0.0000 -0.0000 -0.0000 -1.0000 -0.0000
                                            0.0000  0.0000  0.0000 -0.0000  0.0000
                                            0.0000 -0.0000 -0.0000 -0.0000 -0.0000
                                           -0.0000 -0.0000 -0.0000 -0.0000 -0.0000
                                           -0.0000 -0.0000 -0.0000 -0.0000 -0.0000
    17. (1.99674) CR ( 9) I   3           s(  0.00%)p 0.00(  0.00%)d 1.00(100.00%)
                                            0.0000 -0.0001  0.0000  0.0000 -0.0000
                                           -0.0000  0.0000 -0.0001  0.0000  0.0000
                                           -0.0000  0.0000 -0.0002  0.0000  0.0000
                                           -0.0000  0.0000  0.0000  0.0000  0.0000
                                            0.0000  0.0000 -0.0000  0.0000  0.0000
                                            0.0000  0.0000  0.0000  0.0000  0.0000
                                            0.0000  0.0000  0.0000 -0.0000  0.0000
                                           -0.0000 -0.0000  1.0000  0.0000 -0.0000
                                           -0.0000  0.0000  0.0000  0.0000  0.0000
                                            0.0000  0.0000  0.0000  0.0000  0.0000
                                            0.0000  0.0000  0.0000  0.0000  0.0000
    18. (1.96683) LP ( 1) O   1           s( 56.88%)p 0.76( 43.00%)d 0.00(  0.11%)
                                                  f 0.00(  0.00%)
                                            0.0002  0.7540  0.0153  0.0076 -0.0008
                                           -0.2486 -0.0050 -0.0037 -0.0022  0.6067
                                            0.0094  0.0055  0.0016  0.0000  0.0000
                                            0.0000  0.0000  0.0237 -0.0026 -0.0032
                                            0.0000  0.0000  0.0000  0.0000  0.0000
                                            0.0000  0.0188  0.0001 -0.0045  0.0138
                                           -0.0003  0.0002  0.0000  0.0000  0.0001
                                            0.0006 -0.0032  0.0002  0.0000  0.0000
                                            0.0000  0.0000  0.0037 -0.0023  0.0034
                                           -0.0021
    19. (1.95353) LP ( 2) O   1           s(  0.00%)p 1.00( 99.79%)d 0.00(  0.20%)
                                                  f 0.00(  0.01%)
                                            0.0000  0.0000  0.0000  0.0000  0.0000
                                            0.0000  0.0000  0.0000  0.0000  0.0000
                                            0.0000  0.0000  0.0000  0.9986  0.0228
                                            0.0058  0.0058  0.0000  0.0000  0.0000
                                            0.0287 -0.0054 -0.0002 -0.0314 -0.0034
                                            0.0113  0.0000  0.0000  0.0000  0.0000
                                            0.0000  0.0000 -0.0109  0.0008  0.0000
                                            0.0000  0.0000  0.0000  0.0036 -0.0022
                                            0.0013  0.0013  0.0000  0.0000  0.0000
                                            0.0000
    20. (1.97426) LP ( 1)Cl   2           s( 92.00%)p 0.09(  7.98%)d 0.00(  0.02%)
                                                  f 0.00(  0.00%)
                                            0.0000  0.0003  0.9591  0.0060  0.0011
                                           -0.0004  0.0000  0.2808 -0.0062 -0.0029
                                            0.0011  0.0000 -0.0301  0.0013  0.0002
                                           -0.0005  0.0000  0.0000  0.0000  0.0000
                                            0.0000  0.0002 -0.0003 -0.0005  0.0000
                                            0.0000  0.0000  0.0000  0.0000  0.0000
                                           -0.0119  0.0004 -0.0001  0.0074  0.0005
                                            0.0005  0.0000  0.0000 -0.0020 -0.0005
                                            0.0001 -0.0000  0.0000  0.0000  0.0000
                                            0.0000  0.0033  0.0001 -0.0006  0.0003
    21. (1.95631) LP ( 2)Cl   2           s(  0.00%)p 1.00( 99.95%)d 0.00(  0.04%)
                                                  f 0.00(  0.01%)
                                            0.0000  0.0000  0.0000  0.0000  0.0000
                                            0.0000  0.0000  0.0000  0.0000  0.0000
                                            0.0000  0.0000  0.0000  0.0000  0.0000
                                            0.0000 -0.0002  0.9996  0.0151  0.0050
                                           -0.0022  0.0000  0.0000  0.0000  0.0061
                                            0.0159  0.0090  0.0032  0.0029  0.0011
                                            0.0000  0.0000  0.0000  0.0000  0.0000
                                            0.0000 -0.0056  0.0009  0.0000  0.0000
                                            0.0000  0.0000  0.0066 -0.0008  0.0011
                                           -0.0008  0.0000  0.0000  0.0000  0.0000
    22. (1.95465) LP ( 3)Cl   2           s(  0.11%)p99.99( 99.85%)d 0.32(  0.03%)
                                                  f 0.08(  0.01%)
                                            0.0000 -0.0000  0.0319  0.0056  0.0040
                                            0.0018  0.0000 -0.0021 -0.0003 -0.0004
                                           -0.0008 -0.0002  0.9992  0.0129  0.0014
                                            0.0004  0.0000  0.0000  0.0000  0.0000
                                            0.0000 -0.0035  0.0128  0.0081  0.0000
                                            0.0000  0.0000  0.0000  0.0000  0.0000
                                           -0.0076 -0.0046 -0.0032 -0.0005 -0.0025
                                           -0.0006  0.0000  0.0000  0.0001  0.0003
                                           -0.0025  0.0001  0.0000  0.0000  0.0000
                                            0.0000 -0.0015  0.0004  0.0088 -0.0012
    23. (1.97865) LP ( 1) I   3           s( 95.56%)p 0.05(  4.44%)d 0.00(  0.00%)
                                                  f 0.00(  0.00%)
                                            0.0001  0.9776  0.0001  0.0007 -0.0003
                                           -0.0001 -0.0000 -0.0540  0.0001 -0.0001
                                           -0.0001 -0.0001 -0.2036  0.0007 -0.0007
                                            0.0001  0.0000  0.0000  0.0000  0.0000
                                            0.0000 -0.0000  0.0003 -0.0001  0.0000
                                            0.0000  0.0000  0.0000  0.0000  0.0000
                                            0.0000  0.0000  0.0000  0.0001 -0.0006
                                            0.0004 -0.0000  0.0000 -0.0003  0.0002
                                            0.0000  0.0000  0.0000 -0.0001 -0.0000
                                           -0.0004 -0.0002  0.0000  0.0000  0.0000
                                            0.0000 -0.0003 -0.0001 -0.0003 -0.0002
    24. (1.95140) LP ( 2) I   3           s(  0.00%)p 1.00( 99.99%)d 0.00(  0.01%)
                                                  f 0.00(  0.00%)
                                            0.0000  0.0000  0.0000  0.0000  0.0000
                                            0.0000  0.0000  0.0000  0.0000  0.0000
                                            0.0000  0.0000  0.0000  0.0000  0.0000
                                            0.0000  0.0002  1.0000  0.0022  0.0014
                                           -0.0003  0.0000  0.0000  0.0000  0.0000
                                           -0.0000  0.0017 -0.0003 -0.0003 -0.0000
                                            0.0076 -0.0015 -0.0014  0.0000  0.0000
                                            0.0000  0.0000  0.0000  0.0000  0.0000
                                            0.0000 -0.0021 -0.0013  0.0000  0.0000
                                            0.0000  0.0000 -0.0023 -0.0012  0.0012
                                            0.0008  0.0000  0.0000  0.0000  0.0000
    25. (1.95109) LP ( 3) I   3           s(  0.00%)p 1.00( 99.99%)d 0.00(  0.01%)
                                                  f 0.00(  0.00%)
                                           -0.0000  0.0062 -0.0003 -0.0002  0.0007
                                           -0.0001  0.0002  0.9736  0.0021  0.0013
                                           -0.0004 -0.0001 -0.2281 -0.0005 -0.0005
                                            0.0002  0.0000  0.0000  0.0000  0.0000
                                            0.0000 -0.0000  0.0077 -0.0012 -0.0014
                                            0.0000  0.0000  0.0000  0.0000  0.0000
                                            0.0000  0.0000  0.0000 -0.0000  0.0029
                                            0.0001 -0.0013  0.0000  0.0001  0.0000
                                            0.0001  0.0000  0.0000 -0.0009 -0.0005
                                            0.0001 -0.0000  0.0000  0.0000  0.0000
                                            0.0000 -0.0026 -0.0013  0.0018  0.0008
    26. (1.89309) LP ( 4) I   3           s(  4.43%)p21.56( 95.52%)d 0.01(  0.05%)
                                                  f 0.00(  0.01%)
                                           -0.0004  0.2104 -0.0004 -0.0032  0.0016
                                            0.0004 -0.0001  0.2216 -0.0013 -0.0008
                                            0.0008 -0.0004  0.9519 -0.0043 -0.0030
                                            0.0006  0.0000  0.0000  0.0000  0.0000
                                            0.0000 -0.0002  0.0079 -0.0014 -0.0005
                                            0.0000  0.0000  0.0000  0.0000  0.0000
                                            0.0000  0.0000  0.0000  0.0004 -0.0160
                                            0.0019  0.0015  0.0003 -0.0111  0.0018
                                            0.0004  0.0000  0.0000 -0.0011 -0.0007
                                           -0.0045 -0.0024  0.0000  0.0000  0.0000
                                            0.0000 -0.0036 -0.0018 -0.0042 -0.0015
    27. (0.01856) RY*( 1) O   1           s(  0.00%)p 1.00( 98.66%)d 0.01(  1.29%)
                                                  f 0.00(  0.05%)
                                            0.0000  0.0000  0.0000  0.0000  0.0000
                                            0.0000  0.0000  0.0000  0.0000  0.0000
                                            0.0000  0.0000  0.0000 -0.0274  0.9919
                                           -0.0429 -0.0115  0.0000  0.0000  0.0000
                                            0.0864 -0.0280  0.0100 -0.0641 -0.0030
                                            0.0199  0.0000  0.0000  0.0000  0.0000
                                            0.0000  0.0000 -0.0100  0.0103  0.0000
                                            0.0000  0.0000  0.0000  0.0141 -0.0112
                                           -0.0043  0.0016  0.0000  0.0000  0.0000
                                            0.0000
    28. (0.01534) RY*( 2) O   1           s( 30.75%)p 2.18( 66.98%)d 0.07(  2.04%)
                                                  f 0.01(  0.23%)
                                           -0.0000 -0.0018  0.5524 -0.0485 -0.0045
                                            0.0406 -0.3435  0.0029  0.0177 -0.0159
                                            0.7398 -0.0008 -0.0483  0.0000  0.0000
                                            0.0000  0.0000  0.1293 -0.0245  0.0045
                                            0.0000  0.0000  0.0000  0.0000  0.0000
                                            0.0000  0.0241 -0.0037 -0.0009  0.0485
                                            0.0005 -0.0096  0.0000  0.0000 -0.0045
                                            0.0013  0.0061  0.0005  0.0000  0.0000
                                            0.0000  0.0000  0.0345 -0.0153  0.0253
                                           -0.0124
    29. (0.00764) RY*( 3) O   1           s( 13.71%)p 0.39(  5.30%)d 5.80( 79.58%)
                                                  f 0.10(  1.41%)
                                           -0.0000  0.0179  0.3651 -0.0575  0.0146
                                           -0.0231 -0.1146  0.0073  0.0187 -0.0085
                                           -0.1842  0.0281 -0.0644 -0.0000 -0.0000
                                           -0.0000 -0.0000 -0.8761  0.0176 -0.0279
                                           -0.0000 -0.0000 -0.0000 -0.0000 -0.0000
                                           -0.0000  0.0825 -0.0162  0.0317  0.1382
                                            0.0043  0.0042 -0.0000 -0.0000 -0.0276
                                            0.0150  0.0076 -0.0028 -0.0000 -0.0000
                                           -0.0000 -0.0000 -0.0636  0.0198 -0.0856
                                            0.0362
    30. (0.00702) RY*( 4) O   1           s(  0.00%)p 1.00(  0.43%)d99.99( 97.94%)
                                                  f 3.73(  1.62%)
                                            0.0000  0.0000  0.0000  0.0000  0.0000
                                            0.0000  0.0000  0.0000  0.0000  0.0000
[...]
                                            0.0311  0.1787  0.0292
   158. (0.00036) RY*( 8) H   4           s( 21.42%)p 2.28( 48.92%)d 1.38( 29.66%)
                                            0.0014 -0.0367  0.4550 -0.0764 -0.0303
                                            0.6471 -0.1982  0.0892 -0.1486  0.0156
                                           -0.0000 -0.0000 -0.0000 -0.4747  0.1401
                                           -0.0000 -0.0000 -0.0000 -0.0000  0.2139
                                           -0.0084  0.0705 -0.0291
   159. (0.00032) RY*( 9) H   4           s(  0.00%)p 1.00( 84.90%)d 0.18( 15.10%)
                                            0.0000  0.0000  0.0000  0.0000  0.0000
                                            0.0000  0.0000  0.0000  0.0000  0.0000
                                           -0.1183  0.9114 -0.0657  0.0000  0.0000
                                           -0.0853  0.0656 -0.3321  0.1706  0.0000
                                            0.0000  0.0000  0.0000
   160. (0.00024) RY*(10) H   4           s( 10.24%)p 0.59(  6.00%)d 8.18( 83.75%)
                                           -0.0032 -0.0519  0.3046 -0.0834  0.1292
                                            0.1489  0.1266  0.0152  0.0250  0.0654
                                            0.0000  0.0000  0.0000  0.5499 -0.0029
                                            0.0000  0.0000  0.0000  0.0000 -0.0180
                                           -0.0876  0.7258 -0.0181
   161. (0.00023) RY*(11) H   4           s(  1.13%)p54.76( 62.04%)d32.51( 36.83%)
                                            0.0203  0.0522 -0.0347  0.0836 -0.0157
                                           -0.2775  0.0158 -0.1001 -0.6730 -0.2826
                                            0.0000  0.0000  0.0000  0.0361  0.0070
                                            0.0000  0.0000  0.0000  0.0000  0.5809
                                           -0.0786  0.1107 -0.1053
   162. (0.00022) RY*(12) H   4           s(  0.00%)p 1.00(  0.92%)d99.99( 99.08%)
                                            0.0000  0.0000  0.0000  0.0000  0.0000
                                            0.0000  0.0000  0.0000  0.0000  0.0000
                                           -0.0149  0.0584 -0.0747  0.0000  0.0000
                                            0.9887  0.0018 -0.1013 -0.0547  0.0000
                                            0.0000  0.0000  0.0000
   163. (0.00018) RY*(13) H   4           s(  9.38%)p 1.43( 13.44%)d 8.23( 77.19%)
                                           -0.0089 -0.0384  0.2948 -0.0725  0.0492
                                            0.0603  0.0935  0.0398  0.2764  0.2039
                                           -0.0000 -0.0000 -0.0000  0.4322 -0.0036
                                           -0.0000 -0.0000 -0.0000 -0.0000  0.5180
                                           -0.0321 -0.5245 -0.2016
   164. (0.00015) RY*(14) H   4           s(  0.00%)p 1.00( 55.73%)d 0.79( 44.27%)
                                            0.0000  0.0000  0.0000  0.0000  0.0000
                                            0.0000  0.0000  0.0000  0.0000  0.0000
                                           -0.0127 -0.1689  0.7270  0.0000  0.0000
                                            0.0657  0.1650 -0.2947  0.5695  0.0000
                                            0.0000  0.0000  0.0000
   165. (0.00013) RY*(15) H   4           s( 62.68%)p 0.14(  9.08%)d 0.45( 28.24%)
                                            0.0065  0.0299  0.4023  0.6812  0.0538
                                            0.0745 -0.0172 -0.0150 -0.2527 -0.1340
                                           -0.0000 -0.0000 -0.0000  0.2292 -0.1040
                                           -0.0000 -0.0000 -0.0000 -0.0000 -0.3093
                                            0.1511 -0.2476  0.1981
   166. (0.00012) RY*(16) H   4           s(  0.65%)p79.24( 51.43%)d73.83( 47.92%)
                                            0.0026  0.0023  0.0797  0.0113 -0.0173
                                           -0.0255  0.6972 -0.0180  0.0373 -0.1598
                                            0.0000  0.0000  0.0000 -0.1109  0.6022
                                            0.0000  0.0000  0.0000  0.0000 -0.0304
                                            0.3181 -0.0088 -0.0451
   167. (0.00008) RY*(17) H   4           s(  0.00%)p 1.00(  0.08%)d99.99( 99.92%)
   168. (0.00007) RY*(18) H   4           s(  1.89%)p 1.05(  1.99%)d50.85( 96.12%)
   169. (0.00006) RY*(19) H   4           s( 50.36%)p 0.24( 11.86%)d 0.75( 37.78%)
   170. (0.00005) RY*(20) H   4           s(  0.00%)p 1.00( 32.38%)d 2.09( 67.62%)
   171. (0.00004) RY*(21) H   4           s(  0.23%)p99.99( 41.99%)d99.99( 57.78%)
   172. (0.00003) RY*(22) H   4           s(  7.32%)p 4.24( 31.04%)d 8.42( 61.64%)
   173. (0.05820) BD*( 1) O   1 -Cl   2  
                ( 40.47%)   0.6361* O   1 s( 10.68%)p 8.31( 88.80%)d 0.05(  0.50%)
                                                  f 0.00(  0.02%)
                                           -0.0003 -0.3245  0.0374  0.0131  0.0008
                                           -0.9413  0.0246  0.0101  0.0093  0.0158
                                            0.0300  0.0047  0.0001 -0.0000 -0.0000
                                           -0.0000 -0.0000  0.0253 -0.0019 -0.0022
                                           -0.0000 -0.0000 -0.0000 -0.0000 -0.0000
                                           -0.0000 -0.0505  0.0046 -0.0022  0.0423
                                           -0.0038 -0.0006 -0.0000 -0.0000  0.0116
                                           -0.0012  0.0002 -0.0000 -0.0000 -0.0000
                                           -0.0000 -0.0000 -0.0048 -0.0006  0.0002
                                           -0.0023
                ( 59.53%)  -0.7716*Cl   2 s(  8.14%)p11.12( 90.55%)d 0.15(  1.20%)
                                                  f 0.01(  0.11%)
                                            0.0000 -0.0005 -0.2801  0.0538  0.0097
                                           -0.0028  0.0004  0.9491 -0.0658 -0.0139
                                            0.0038  0.0000  0.0099  0.0014 -0.0024
                                            0.0005 -0.0000 -0.0000 -0.0000 -0.0000
                                           -0.0000 -0.0132 -0.0000 -0.0009 -0.0000
                                           -0.0000 -0.0000 -0.0000 -0.0000 -0.0000
                                           -0.0913  0.0098 -0.0001  0.0579 -0.0054
                                           -0.0007 -0.0000 -0.0000 -0.0209  0.0033
                                           -0.0005  0.0003 -0.0000 -0.0000 -0.0000
                                           -0.0000  0.0250 -0.0027  0.0011 -0.0002
   174. (0.06920) BD*( 1) O   1 - H   4  
                ( 22.83%)   0.4778* O   1 s( 32.54%)p 2.06( 66.96%)d 0.02(  0.49%)
                                                  f 0.00(  0.01%)
                                            0.0003  0.5703 -0.0120 -0.0068  0.0010
                                           -0.2077  0.0196  0.0024  0.0021 -0.7910
                                            0.0177  0.0067  0.0038 -0.0000 -0.0000
                                           -0.0000 -0.0000  0.0025  0.0033  0.0001
                                           -0.0000 -0.0000 -0.0000 -0.0000 -0.0000
                                           -0.0000 -0.0588  0.0038 -0.0032 -0.0373
                                            0.0001  0.0024 -0.0000 -0.0000  0.0016
                                            0.0007  0.0081  0.0010 -0.0000 -0.0000
                                           -0.0000 -0.0000  0.0017  0.0029 -0.0004
                                            0.0031
                ( 77.17%)  -0.8784* H   4 s( 99.87%)p 0.00(  0.13%)d 0.00(  0.00%)
                                            0.9988  0.0339  0.0014 -0.0000  0.0117
                                            0.0069 -0.0010 -0.0137  0.0278  0.0104
                                           -0.0000 -0.0000 -0.0000 -0.0005 -0.0019
                                           -0.0000 -0.0000 -0.0000 -0.0000 -0.0003
                                           -0.0011  0.0014 -0.0034


 NHO Directionality and "Bond Bending" (deviations from line of nuclear centers)

         [Thresholds for printing:  angular deviation  >  1.0 degree]
                                    hybrid p-character > 25.0%
                                    orbital occupancy  >  0.10e

                                Line of Centers        Hybrid 1              Hybrid 2
                                ---------------  -------------------   ------------------
                NBO               Theta   Phi    Theta   Phi    Dev    Theta   Phi    Dev
 ========================================================================================
     1. BD (   1) O   1 -Cl   2    90.0    0.0    90.0  356.8   3.2      --     --    --
    18. LP (   1) O   1             --     --     90.0  112.6   --       --     --    --
    19. LP (   2) O   1             --     --      0.0    0.0   --       --     --    --
    21. LP (   2)Cl   2             --     --      0.0    0.0   --       --     --    --
    22. LP (   3)Cl   2             --     --     90.0   90.2   --       --     --    --
    24. LP (   2) I   3             --     --      0.0    0.0   --       --     --    --
    25. LP (   3) I   3             --     --     90.0  346.8   --       --     --    --
    26. LP (   4) I   3             --     --     90.0   76.9   --       --     --    --


 Natural Bond Orbitals (Summary):

           NBO                  Occupancy  
 -----------------------------------------------
 Molecular unit  1  (HOCl)
     1. BD (   1) O   1 -Cl   2          1.94046
     2. BD (   1) O   1 - H   4          1.96951
     3. CR (   1) O   1                  1.99961
     4. CR (   1)Cl   2                  2.00000
     5. CR (   2)Cl   2                  1.99982
     6. CR (   3)Cl   2                  1.99997
     7. CR (   4)Cl   2                  2.00003
     8. CR (   5)Cl   2                  2.00003
    18. LP (   1) O   1                  1.96683
    19. LP (   2) O   1                  1.95353
    20. LP (   1)Cl   2                  1.97426
    21. LP (   2)Cl   2                  1.95631
    22. LP (   3)Cl   2                  1.95465
    27. RY*(   1) O   1                  0.01856
    28. RY*(   2) O   1                  0.01534
    29. RY*(   3) O   1                  0.00764
    30. RY*(   4) O   1                  0.00702
    31. RY*(   5) O   1                  0.00611
    32. RY*(   6) O   1                  0.00597
    33. RY*(   7) O   1                  0.00572
    34. RY*(   8) O   1                  0.00261
    35. RY*(   9) O   1                  0.00241
    36. RY*(  10) O   1                  0.00090
    37. RY*(  11) O   1                  0.00065
    38. RY*(  12) O   1                  0.00057
    39. RY*(  13) O   1                  0.00058
    40. RY*(  14) O   1                  0.00049
    41. RY*(  15) O   1                  0.00048
    42. RY*(  16) O   1                  0.00048
    43. RY*(  17) O   1                  0.00047
    44. RY*(  18) O   1                  0.00045
    45. RY*(  19) O   1                  0.00044
    46. RY*(  20) O   1                  0.00044
    47. RY*(  21) O   1                  0.00043
    48. RY*(  22) O   1                  0.00040
    49. RY*(  23) O   1                  0.00032
    50. RY*(  24) O   1                  0.00027
    51. RY*(  25) O   1                  0.00025
    52. RY*(  26) O   1                  0.00022
    53. RY*(  27) O   1                  0.00012
    54. RY*(  28) O   1                  0.00013
    55. RY*(  29) O   1                  0.00013
    56. RY*(  30) O   1                  0.00009
    57. RY*(  31) O   1                  0.00008
    58. RY*(  32) O   1                  0.00008
    59. RY*(  33) O   1                  0.00008
    60. RY*(  34) O   1                  0.00008
    61. RY*(  35) O   1                  0.00007
    62. RY*(  36) O   1                  0.00006
    63. RY*(  37) O   1                  0.00006
    64. RY*(  38) O   1                  0.00006
    65. RY*(  39) O   1                  0.00003
    66. RY*(  40) O   1                  0.00004
    67. RY*(  41) O   1                  0.00003
    68. RY*(   1)Cl   2                  0.02207
    69. RY*(   2)Cl   2                  0.01718
    70. RY*(   3)Cl   2                  0.01670
    71. RY*(   4)Cl   2                  0.01626
    72. RY*(   5)Cl   2                  0.01145
    73. RY*(   6)Cl   2                  0.00909
    74. RY*(   7)Cl   2                  0.00888
    75. RY*(   8)Cl   2                  0.00615
    76. RY*(   9)Cl   2                  0.00163
    77. RY*(  10)Cl   2                  0.00126
    78. RY*(  11)Cl   2                  0.00126
    79. RY*(  12)Cl   2                  0.00119
    80. RY*(  13)Cl   2                  0.00119
    81. RY*(  14)Cl   2                  0.00116
    82. RY*(  15)Cl   2                  0.00110
    83. RY*(  16)Cl   2                  0.00092
    84. RY*(  17)Cl   2                  0.00076
    85. RY*(  18)Cl   2                  0.00076
    86. RY*(  19)Cl   2                  0.00062
    87. RY*(  20)Cl   2                  0.00054
    88. RY*(  21)Cl   2                  0.00044
    89. RY*(  22)Cl   2                  0.00035
    90. RY*(  23)Cl   2                  0.00036
    91. RY*(  24)Cl   2                  0.00032
    92. RY*(  25)Cl   2                  0.00018
    93. RY*(  26)Cl   2                  0.00014
    94. RY*(  27)Cl   2                  0.00015
    95. RY*(  28)Cl   2                  0.00013
    96. RY*(  29)Cl   2                  0.00012
    97. RY*(  30)Cl   2                  0.00013
    98. RY*(  31)Cl   2                  0.00010
    99. RY*(  32)Cl   2                  0.00010
   100. RY*(  33)Cl   2                  0.00010
   101. RY*(  34)Cl   2                  0.00010
   102. RY*(  35)Cl   2                  0.00009
   103. RY*(  36)Cl   2                  0.00007
   104. RY*(  37)Cl   2                  0.00007
   105. RY*(  38)Cl   2                  0.00007
   106. RY*(  39)Cl   2                  0.00004
   107. RY*(  40)Cl   2                  0.00003
   108. RY*(  41)Cl   2                  0.00000
   151. RY*(   1) H   4                  0.01105
   152. RY*(   2) H   4                  0.00577
   153. RY*(   3) H   4                  0.00508
   154. RY*(   4) H   4                  0.00373
   155. RY*(   5) H   4                  0.00061
   156. RY*(   6) H   4                  0.00052
   157. RY*(   7) H   4                  0.00049
   158. RY*(   8) H   4                  0.00036
   159. RY*(   9) H   4                  0.00032
   160. RY*(  10) H   4                  0.00024
   161. RY*(  11) H   4                  0.00023
   162. RY*(  12) H   4                  0.00022
   163. RY*(  13) H   4                  0.00018
   164. RY*(  14) H   4                  0.00015
   165. RY*(  15) H   4                  0.00013
   166. RY*(  16) H   4                  0.00012
   167. RY*(  17) H   4                  0.00008
   168. RY*(  18) H   4                  0.00007
   169. RY*(  19) H   4                  0.00006
   170. RY*(  20) H   4                  0.00005
   171. RY*(  21) H   4                  0.00004
   172. RY*(  22) H   4                  0.00003
   173. BD*(   1) O   1 -Cl   2          0.05820
   174. BD*(   1) O   1 - H   4          0.06920
       -------------------------------
              Total Lewis   25.71501  ( 98.6172%)
        Valence non-Lewis    0.12741  (  0.4886%)
        Rydberg non-Lewis    0.23316  (  0.8942%)
       -------------------------------
            Total unit  1   26.07558  (100.0000%)
           Charge unit  1   -0.07558

 Molecular unit  2  (I)
     9. CR (   1) I   3                  1.99995
    10. CR (   2) I   3                  2.00005
    11. CR (   3) I   3                  1.99995
    12. CR (   4) I   3                  2.00006
    13. CR (   5) I   3                  1.99672
    14. CR (   6) I   3                  1.99678
    15. CR (   7) I   3                  1.99675
    16. CR (   8) I   3                  1.99667
    17. CR (   9) I   3                  1.99674
    23. LP (   1) I   3                  1.97865
    24. LP (   2) I   3                  1.95140
    25. LP (   3) I   3                  1.95109
    26. LP (   4) I   3                  1.89309
   109. RY*(   1) I   3                  0.02035
   110. RY*(   2) I   3                  0.02026
   111. RY*(   3) I   3                  0.02016
   112. RY*(   4) I   3                  0.02015
   113. RY*(   5) I   3                  0.01923
   114. RY*(   6) I   3                  0.01073
   115. RY*(   7) I   3                  0.01067
   116. RY*(   8) I   3                  0.00932
   117. RY*(   9) I   3                  0.00289
   118. RY*(  10) I   3                  0.00279
   119. RY*(  11) I   3                  0.00279
   120. RY*(  12) I   3                  0.00276
   121. RY*(  13) I   3                  0.00276
   122. RY*(  14) I   3                  0.00269
   123. RY*(  15) I   3                  0.00270
   124. RY*(  16) I   3                  0.00258
   125. RY*(  17) I   3                  0.00166
   126. RY*(  18) I   3                  0.00167
   127. RY*(  19) I   3                  0.00136
   128. RY*(  20) I   3                  0.00133
   129. RY*(  21) I   3                  0.00115
   130. RY*(  22) I   3                  0.00073
   131. RY*(  23) I   3                  0.00072
   132. RY*(  24) I   3                  0.00062
   133. RY*(  25) I   3                  0.00045
   134. RY*(  26) I   3                  0.00045
   135. RY*(  27) I   3                  0.00044
   136. RY*(  28) I   3                  0.00042
   137. RY*(  29) I   3                  0.00041
   138. RY*(  30) I   3                  0.00042
   139. RY*(  31) I   3                  0.00039
   140. RY*(  32) I   3                  0.00033
   141. RY*(  33) I   3                  0.00020
   142. RY*(  34) I   3                  0.00019
   143. RY*(  35) I   3                  0.00015
   144. RY*(  36) I   3                  0.00012
   145. RY*(  37) I   3                  0.00012
   146. RY*(  38) I   3                  0.00010
   147. RY*(  39) I   3                  0.00010
   148. RY*(  40) I   3                  0.00007
   149. RY*(  41) I   3                  0.00006
   150. RY*(  42) I   3                  0.00000
       -------------------------------
              Total Lewis   53.75789  ( 99.6912%)
        Valence non-Lewis    0.00000  (  0.0000%)
        Rydberg non-Lewis    0.16654  (  0.3088%)
       -------------------------------
            Total unit  2   53.92442  (100.0000%)
           Charge unit  2   -0.92442
 Leave Link  607 at Tue Oct 12 15:34:53 2021, MaxMem=  1048576000 cpu:         6.2
 (Enter /usr/local/gaussian/g09/l9999.exe)
 1\1\GINC-KRYPTON\SP\RMP2-FC\Gen\Cl1H1I1O1(1-)\CGAVINH\12-Oct-2021\0\\#
 p pop=NBO SP NoSymm mp2/gen Pseudo=read density=current\\title\\-1,1\O
 \X,1,10.\Cl,1,1.68652173,2,90.\I,1,3.31229946,2,90.,3,103.24540347,0\H
 ,1,0.9,2,90.,3,103.24540347,0\\Version=ES64L-G09RevE.01\HF=-829.682762
 7\MP2=-830.3589985\RMSD=6.217e-09\Dipole=1.3256249,1.7769732,0.\Quadru
 pole=9.4325548,-20.4113366,10.9787819,-7.6895987,0.,0.\PG=CS [SG(Cl1H1
 I1O1)]\\@


 THE BEST WAY TO CONVINCE A FOOL THAT HE IS WRONG 
 IS TO LET HIM HAVE HIS OWN WAY.

                                         JOSH BILLINGS
 Job cpu time:       0 days  0 hours  2 minutes 34.6 seconds.
 File lengths (MBytes):  RWF=     13 Int=      0 D2E=      0 Chk=      3 Scr=      1
 Normal termination of Gaussian 09 at Tue Oct 12 15:34:53 2021.
