 Entering Gaussian System, Link 0=g09
 Input=ihocl_rOH_135_sp.gjf
 Output=ihocl_rOH_135_sp.log
 Initial command:
 /usr/local/gaussian/g09/l1.exe "/scratch/Gau-27276.inp" -scrdir="/scratch/"
 Entering Link 1 = /usr/local/gaussian/g09/l1.exe PID=     27277.
  
 Copyright (c) 1988,1990,1992,1993,1995,1998,2003,2009,2015,
            Gaussian, Inc.  All Rights Reserved.
  
 This is part of the Gaussian(R) 09 program.  It is based on
 the Gaussian(R) 03 system (copyright 2003, Gaussian, Inc.),
 the Gaussian(R) 98 system (copyright 1998, Gaussian, Inc.),
 the Gaussian(R) 94 system (copyright 1995, Gaussian, Inc.),
 the Gaussian 92(TM) system (copyright 1992, Gaussian, Inc.),
 the Gaussian 90(TM) system (copyright 1990, Gaussian, Inc.),
 the Gaussian 88(TM) system (copyright 1988, Gaussian, Inc.),
 the Gaussian 86(TM) system (copyright 1986, Carnegie Mellon
 University), and the Gaussian 82(TM) system (copyright 1983,
 Carnegie Mellon University). Gaussian is a federally registered
 trademark of Gaussian, Inc.
  
 This software contains proprietary and confidential information,
 including trade secrets, belonging to Gaussian, Inc.
  
 This software is provided under written license and may be
 used, copied, transmitted, or stored only in accord with that
 written license.
  
 The following legend is applicable only to US Government
 contracts under FAR:
  
                    RESTRICTED RIGHTS LEGEND
  
 Use, reproduction and disclosure by the US Government is
 subject to restrictions as set forth in subparagraphs (a)
 and (c) of the Commercial Computer Software - Restricted
 Rights clause in FAR 52.227-19.
  
 Gaussian, Inc.
 340 Quinnipiac St., Bldg. 40, Wallingford CT 06492
  
  
 ---------------------------------------------------------------
 Warning -- This program may not be used in any manner that
 competes with the business of Gaussian, Inc. or will provide
 assistance to any competitor of Gaussian, Inc.  The licensee
 of this program is prohibited from giving any competitor of
 Gaussian, Inc. access to this program.  By using this program,
 the user acknowledges that Gaussian, Inc. is engaged in the
 business of creating and licensing software in the field of
 computational chemistry and represents and warrants to the
 licensee that it is not a competitor of Gaussian, Inc. and that
 it will not use this program in any manner prohibited above.
 ---------------------------------------------------------------
  

 Cite this work as:
 Gaussian 09, Revision E.01,
 M. J. Frisch, G. W. Trucks, H. B. Schlegel, G. E. Scuseria, 
 M. A. Robb, J. R. Cheeseman, G. Scalmani, V. Barone, B. Mennucci, 
 G. A. Petersson, H. Nakatsuji, M. Caricato, X. Li, H. P. Hratchian, 
 A. F. Izmaylov, J. Bloino, G. Zheng, J. L. Sonnenberg, M. Hada, 
 M. Ehara, K. Toyota, R. Fukuda, J. Hasegawa, M. Ishida, T. Nakajima, 
 Y. Honda, O. Kitao, H. Nakai, T. Vreven, J. A. Montgomery, Jr., 
 J. E. Peralta, F. Ogliaro, M. Bearpark, J. J. Heyd, E. Brothers, 
 K. N. Kudin, V. N. Staroverov, T. Keith, R. Kobayashi, J. Normand, 
 K. Raghavachari, A. Rendell, J. C. Burant, S. S. Iyengar, J. Tomasi, 
 M. Cossi, N. Rega, J. M. Millam, M. Klene, J. E. Knox, J. B. Cross, 
 V. Bakken, C. Adamo, J. Jaramillo, R. Gomperts, R. E. Stratmann, 
 O. Yazyev, A. J. Austin, R. Cammi, C. Pomelli, J. W. Ochterski, 
 R. L. Martin, K. Morokuma, V. G. Zakrzewski, G. A. Voth, 
 P. Salvador, J. J. Dannenberg, S. Dapprich, A. D. Daniels, 
 O. Farkas, J. B. Foresman, J. V. Ortiz, J. Cioslowski, 
 and D. J. Fox, Gaussian, Inc., Wallingford CT, 2013.
 
 ******************************************
 Gaussian 09:  ES64L-G09RevE.01 30-Nov-2015
                12-Oct-2021 
 ******************************************
 %nproc=12
 Will use up to   12 processors via shared memory.
 %mem=8000MB
 %chk=/home/netid.washington.edu/cgavinh/mccoy_hocl/rOH_s_oop_0/ihocl/ihocl_rOH_1
 35_sp.chk
 --------------------------------------------------------
 #p pop=NBO SP NoSymm mp2/gen Pseudo=read density=current
 --------------------------------------------------------
 1/30=1,38=1/1;
 2/12=2,15=1,17=6,18=5,40=1/2;
 3/5=7,11=9,16=1,17=8,25=1,30=1,71=1/1,2,3;
 4//1;
 5/5=2,38=5/2;
 8/6=4,10=1/1;
 9/15=1,16=-3/6;
 10/5=1,13=10,31=1/2;
 6/7=2,8=2,9=2,10=2,22=-1,40=1/1,7;
 99/5=1,9=1/99;
 Leave Link    1 at Tue Oct 12 15:37:10 2021, MaxMem=  1048576000 cpu:         0.3
 (Enter /usr/local/gaussian/g09/l101.exe)
 -----
 title
 -----
 Symbolic Z-matrix:
 Charge = -1 Multiplicity = 1
 O
 X                    1     10. 
 Cl                   1    r1       2     90. 
 I                    1    r2       2     90.      3    a1       0
 H                    1    r3       2    oop      3    a1       0
       Variables:
  r1                    1.68652                  
  r2                    3.3123                   
  r3                    1.35                     
  a1                  103.2454                   
  OOP                  90.                       
 
 NAtoms=      4 NQM=        4 NQMF=       0 NMMI=      0 NMMIF=      0
                NMic=       0 NMicF=      0.
                    Isotopes and Nuclear Properties:
 (Nuclear quadrupole moments (NQMom) in fm**2, nuclear magnetic moments (NMagM)
  in nuclear magnetons)

  Atom         1           2           3           4
 IAtWgt=          16          35         127           1
 AtmWgt=  15.9949146  34.9688527 126.9004000   1.0078250
 NucSpn=           0           3           5           1
 AtZEff=   0.0000000   0.0000000   0.0000000   0.0000000
 NQMom=    0.0000000  -8.1650000 -71.0000000   0.0000000
 NMagM=    0.0000000   0.8218740   2.8132800   2.7928460
 AtZNuc=   8.0000000  17.0000000  53.0000000   1.0000000
 Leave Link  101 at Tue Oct 12 15:37:10 2021, MaxMem=  1048576000 cpu:         0.4
 (Enter /usr/local/gaussian/g09/l202.exe)
                          Input orientation:                          
 ---------------------------------------------------------------------
 Center     Atomic      Atomic             Coordinates (Angstroms)
 Number     Number       Type             X           Y           Z
 ---------------------------------------------------------------------
      1          8           0        0.000000    0.000000    0.000000
      2         17           0        1.686522    0.000000    0.000000
      3         53           0       -0.758922   -3.224184    0.000000
      4          1           0       -0.309315   -1.314087    0.000000
 ---------------------------------------------------------------------
                    Distance matrix (angstroms):
                    1          2          3          4
     1  O    0.000000
     2  Cl   1.686522   0.000000
     3  I    3.312299   4.046673   0.000000
     4  H    1.350000   2.389600   1.962299   0.000000
 Symmetry turned off by external request.
 Stoichiometry    ClHIO(1-)
 Framework group  CS[SG(ClHIO)]
 Deg. of freedom     5
 Full point group                 CS      NOp   2
 Rotational constants (GHZ):     21.9116222      0.9707168      0.9295370
 Leave Link  202 at Tue Oct 12 15:37:10 2021, MaxMem=  1048576000 cpu:         0.0
 (Enter /usr/local/gaussian/g09/l301.exe)
 General basis read from cards:  (5D, 7F)
 Centers:       4      1      2
 aug-cc-pVTZ
 ****
 Centers:       3
 S 11 1.00
     Exponent=  5.5465000000D+03 Coefficients=  1.5600000000D-04
     Exponent=  8.3821400000D+02 Coefficients=  9.8600000000D-04
     Exponent=  1.8218700000D+02 Coefficients=  2.7920000000D-03
     Exponent=  3.1212300000D+01 Coefficients= -4.3251000000D-02
     Exponent=  1.9531400000D+01 Coefficients=  2.3413400000D-01
     Exponent=  8.2409900000D+00 Coefficients= -7.5094300000D-01
     Exponent=  2.1945500000D+00 Coefficients=  8.8296800000D-01
     Exponent=  1.1091100000D+00 Coefficients=  4.6206100000D-01
     Exponent=  3.7464100000D-01 Coefficients=  2.2286000000D-02
     Exponent=  1.7708000000D-01 Coefficients= -4.3530000000D-03
     Exponent=  8.1061000000D-02 Coefficients=  1.1020000000D-03
 S 11 1.00
     Exponent=  5.5465000000D+03 Coefficients= -7.3000000000D-05
     Exponent=  8.3821400000D+02 Coefficients= -5.0800000000D-04
     Exponent=  1.8218700000D+02 Coefficients= -1.1580000000D-03
     Exponent=  3.1212300000D+01 Coefficients=  1.2193000000D-02
     Exponent=  1.9531400000D+01 Coefficients= -8.7854000000D-02
     Exponent=  8.2409900000D+00 Coefficients=  3.3820000000D-01
     Exponent=  2.1945500000D+00 Coefficients= -5.7655000000D-01
     Exponent=  1.1091100000D+00 Coefficients= -4.0929800000D-01
     Exponent=  3.7464100000D-01 Coefficients=  5.6745900000D-01
     Exponent=  1.7708000000D-01 Coefficients=  6.1248900000D-01
     Exponent=  8.1061000000D-02 Coefficients=  1.4323100000D-01
 S 1 1.00
     Exponent=  3.7464100000D-01 Coefficients=  1.0000000000D+00
 S 1 1.00
     Exponent=  1.7708000000D-01 Coefficients=  1.0000000000D+00
 S 1 1.00
     Exponent=  1.0010000000D-01 Coefficients=  1.0000000000D+00
 S 1 1.00
     Exponent=  4.1200000000D-02 Coefficients=  1.0000000000D+00
 P 9 1.00
     Exponent=  1.8898800000D+02 Coefficients=  5.8500000000D-04
     Exponent=  2.1286800000D+01 Coefficients=  3.6923000000D-02
     Exponent=  1.0039600000D+01 Coefficients= -2.3532400000D-01
     Exponent=  3.4518000000D+00 Coefficients=  3.4148300000D-01
     Exponent=  1.9745600000D+00 Coefficients=  5.3478800000D-01
     Exponent=  1.0242000000D+00 Coefficients=  2.6514100000D-01
     Exponent=  4.4943700000D-01 Coefficients=  2.5787000000D-02
     Exponent=  1.8664800000D-01 Coefficients=  5.2200000000D-04
     Exponent=  7.3481000000D-02 Coefficients=  6.0600000000D-04
 P 9 1.00
     Exponent=  1.8898800000D+02 Coefficients= -2.5600000000D-04
     Exponent=  2.1286800000D+01 Coefficients= -1.1682000000D-02
     Exponent=  1.0039600000D+01 Coefficients=  8.3192000000D-02
     Exponent=  3.4518000000D+00 Coefficients= -1.5697000000D-01
     Exponent=  1.9745600000D+00 Coefficients= -2.2451800000D-01
     Exponent=  1.0242000000D+00 Coefficients= -1.1445100000D-01
     Exponent=  4.4943700000D-01 Coefficients=  3.7535600000D-01
     Exponent=  1.8664800000D-01 Coefficients=  5.7513600000D-01
     Exponent=  7.3481000000D-02 Coefficients=  2.4591700000D-01
 P 1 1.00
     Exponent=  5.9810000000D-01 Coefficients=  1.0000000000D+00
 P 1 1.00
     Exponent=  9.6180000000D-02 Coefficients=  1.0000000000D+00
 P 1 1.00
     Exponent=  3.5900000000D-02 Coefficients=  1.0000000000D+00
 D 9 1.00
     Exponent=  1.3266200000D+02 Coefficients=  5.7200000000D-04
     Exponent=  3.7605400000D+01 Coefficients=  4.4020000000D-03
     Exponent=  1.0389100000D+01 Coefficients= -4.0922000000D-02
     Exponent=  6.4901700000D+00 Coefficients=  9.9661000000D-02
     Exponent=  3.4545100000D+00 Coefficients=  3.2266300000D-01
     Exponent=  1.8441300000D+00 Coefficients=  4.0034300000D-01
     Exponent=  9.6247800000D-01 Coefficients=  2.6830600000D-01
     Exponent=  4.7285300000D-01 Coefficients=  8.4847000000D-02
     Exponent=  1.9320000000D-01 Coefficients=  7.6320000000D-03
 D 1 1.00
     Exponent=  4.7285300000D-01 Coefficients=  1.0000000000D+00
 D 1 1.00
     Exponent=  1.9320000000D-01 Coefficients=  1.0000000000D+00
 D 1 1.00
     Exponent=  7.8200000000D-02 Coefficients=  1.0000000000D+00
 F 1 1.00
     Exponent=  4.0640000000D-01 Coefficients=  1.0000000000D+00
 F 1 1.00
     Exponent=  1.8480000000D-01 Coefficients=  1.0000000000D+00
 ****
 ======================================================================================================
                                       Pseudopotential Parameters
 ======================================================================================================
  Center     Atomic      Valence      Angular      Power
  Number     Number     Electrons     Momentum     of R      Exponent        Coefficient   SO-Coeffient
 ======================================================================================================
    1          8
                                   No pseudopotential on this center.
    2         17
                                   No pseudopotential on this center.
    3         53           25
                                      G and up 
                                                     2        1.0000000        0.00000000    0.00000000
                                      S - G
                                                     2       40.0333760       49.98964900    0.00000000
                                                     2       17.3005760      281.00655600    0.00000000
                                                     2        8.8517200       61.41673900    0.00000000
                                      P - G
                                                     2       15.7201410       67.41623900    0.00000000
                                                     2       15.2082220      134.80769600    0.00000000
                                                     2        8.2941860       14.56654800    0.00000000
                                                     2        7.7539490       28.96842200    0.00000000
                                      D - G
                                                     2       13.8177510       35.53875600    0.00000000
                                                     2       13.5878050       53.33975900    0.00000000
                                                     2        6.9476300        9.71646600    0.00000000
                                                     2        6.9600990       14.97750000    0.00000000
                                      F - G
                                                     2       18.5229500      -20.17661800    0.00000000
                                                     2       18.2510350      -26.08807700    0.00000000
                                                     2        7.5579010       -0.22043400    0.00000000
                                                     2        7.5974040       -0.22164600    0.00000000
    4          1
                                   No pseudopotential on this center.
 ======================================================================================================
 Ernie: Thresh=  0.10000D-02 Tol=  0.10000D-05 Strict=F.
 Ernie:  23 primitive shells out of 166 were deleted.
   174 basis functions,   383 primitive gaussians,   204 cartesian basis functions
    26 alpha electrons       26 beta electrons
       nuclear repulsion energy       143.8436765655 Hartrees.
 IExCor=    0 DFT=F Ex=HF Corr=None ExCW=0 ScaHFX=  1.000000
 ScaDFX=  1.000000  1.000000  1.000000  1.000000 ScalE2=  1.000000  1.000000
 IRadAn=      0 IRanWt=     -1 IRanGd=            0 ICorTp=0 IEmpDi=  4
 NAtoms=    4 NActive=    4 NUniq=    4 SFac= 1.00D+00 NAtFMM=   60 NAOKFM=F Big=F
 Integral buffers will be    131072 words long.
 Raffenetti 1 integral format.
 Two-electron integral symmetry is turned off.
 Leave Link  301 at Tue Oct 12 15:37:10 2021, MaxMem=  1048576000 cpu:         0.6
 (Enter /usr/local/gaussian/g09/l302.exe)
 NPDir=0 NMtPBC=     1 NCelOv=     1 NCel=       1 NClECP=     1 NCelD=      1
         NCelK=      1 NCelE2=     1 NClLst=     1 CellRange=     0.0.
 One-electron integrals computed using PRISM.
   1 Symmetry operations used in ECPInt.
 ECPInt:  NShTT=    1596 NPrTT=   10643 LenC2=    1597 LenP2D=    8418.
 LDataN:  DoStor=T MaxTD1= 7 Len=  274
 NBasis=   174 RedAO= T EigKep=  1.65D-04  NBF=   174
 NBsUse=   174 1.00D-06 EigRej= -1.00D+00 NBFU=   174
 Leave Link  302 at Tue Oct 12 15:37:10 2021, MaxMem=  1048576000 cpu:         2.8
 (Enter /usr/local/gaussian/g09/l303.exe)
 DipDrv:  MaxL=1.
 Leave Link  303 at Tue Oct 12 15:37:10 2021, MaxMem=  1048576000 cpu:         0.2
 (Enter /usr/local/gaussian/g09/l401.exe)
 ExpMin= 2.53D-02 ExpMax= 4.56D+05 ExpMxC= 1.44D+03 IAcc=3 IRadAn=         5 AccDes= 0.00D+00
 Harris functional with IExCor=  205 and IRadAn=       5 diagonalized for initial guess.
 HarFok:  IExCor=  205 AccDes= 0.00D+00 IRadAn=         5 IDoV= 1 UseB2=F ITyADJ=14
 ICtDFT=  3500011 ScaDFX=  1.000000  1.000000  1.000000  1.000000
 Defaulting to unpruned grid for atomic number  53.
 Defaulting to unpruned grid for atomic number  53.
 Defaulting to unpruned grid for atomic number  53.
 Defaulting to unpruned grid for atomic number  53.
 Defaulting to unpruned grid for atomic number  53.
 Defaulting to unpruned grid for atomic number  53.
 Defaulting to unpruned grid for atomic number  53.
 Defaulting to unpruned grid for atomic number  53.
 Defaulting to unpruned grid for atomic number  53.
 Defaulting to unpruned grid for atomic number  53.
 Defaulting to unpruned grid for atomic number  53.
 Defaulting to unpruned grid for atomic number  53.
 FoFCou: FMM=F IPFlag=           0 FMFlag=      100000 FMFlg1=           0
         NFxFlg=           0 DoJE=T BraDBF=F KetDBF=T FulRan=T
         wScrn=  0.000000 ICntrl=     500 IOpCl=  0 I1Cent=   200000004 NGrid=           0
         NMat0=    1 NMatS0=      1 NMatT0=    0 NMatD0=    1 NMtDS0=    0 NMtDT0=    0
 Symmetry not used in FoFCou.
 Harris En= -831.030661411810    
 JPrj=0 DoOrth=F DoCkMO=F.
 Leave Link  401 at Tue Oct 12 15:37:10 2021, MaxMem=  1048576000 cpu:         3.1
 (Enter /usr/local/gaussian/g09/l502.exe)
 Closed shell SCF:
 Using DIIS extrapolation, IDIIS=  1040.
 Two-electron integral symmetry not used.
 Keep R1 ints in memory in canonical form, NReq=124441253.
 IVT=      147078 IEndB=      147078 NGot=  1048576000 MDV=   932520998
 LenX=   932520998 LenY=   932478941
 Requested convergence on RMS density matrix=1.00D-08 within 128 cycles.
 Requested convergence on MAX density matrix=1.00D-06.
 Requested convergence on             energy=1.00D-06.
 No special actions if energy rises.
 FoFCou: FMM=F IPFlag=           0 FMFlag=           0 FMFlg1=           0
         NFxFlg=           0 DoJE=F BraDBF=F KetDBF=F FulRan=T
         wScrn=  0.000000 ICntrl=     600 IOpCl=  0 I1Cent=           0 NGrid=           0
         NMat0=    1 NMatS0=  15225 NMatT0=    0 NMatD0=    1 NMtDS0=    0 NMtDT0=    0
 Symmetry not used in FoFCou.

 Cycle   1  Pass 1  IDiag  1:
 E= -829.475348425735    
 DIIS: error= 2.93D-02 at cycle   1 NSaved=   1.
 NSaved= 1 IEnMin= 1 EnMin= -829.475348425735     IErMin= 1 ErrMin= 2.93D-02
 ErrMax= 2.93D-02  0.00D+00 EMaxC= 1.00D-01 BMatC= 4.74D-01 BMatP= 4.74D-01
 IDIUse=3 WtCom= 7.07D-01 WtEn= 2.93D-01
 Coeff-Com:  0.100D+01
 Coeff-En:   0.100D+01
 Coeff:      0.100D+01
 Gap=     0.529 Goal=   None    Shift=    0.000
 GapD=    0.529 DampG=2.000 DampE=0.500 DampFc=1.0000 IDamp=-1.
 RMSDP=4.18D-03 MaxDP=1.72D-01              OVMax= 1.43D-01

 Cycle   2  Pass 1  IDiag  1:
 E= -829.580069834090     Delta-E=       -0.104721408355 Rises=F Damp=F
 DIIS: error= 2.54D-02 at cycle   2 NSaved=   2.
 NSaved= 2 IEnMin= 2 EnMin= -829.580069834090     IErMin= 2 ErrMin= 2.54D-02
 ErrMax= 2.54D-02  0.00D+00 EMaxC= 1.00D-01 BMatC= 8.53D-02 BMatP= 4.74D-01
 IDIUse=3 WtCom= 7.46D-01 WtEn= 2.54D-01
 Coeff-Com:  0.244D+00 0.756D+00
 Coeff-En:   0.539D-01 0.946D+00
 Coeff:      0.196D+00 0.804D+00
 Gap=     0.400 Goal=   None    Shift=    0.000
 RMSDP=1.99D-03 MaxDP=9.22D-02 DE=-1.05D-01 OVMax= 9.97D-02

 Cycle   3  Pass 1  IDiag  1:
 E= -829.623035470683     Delta-E=       -0.042965636593 Rises=F Damp=F
 DIIS: error= 1.21D-02 at cycle   3 NSaved=   3.
 NSaved= 3 IEnMin= 3 EnMin= -829.623035470683     IErMin= 3 ErrMin= 1.21D-02
 ErrMax= 1.21D-02  0.00D+00 EMaxC= 1.00D-01 BMatC= 2.46D-02 BMatP= 8.53D-02
 IDIUse=3 WtCom= 8.79D-01 WtEn= 1.21D-01
 Coeff-Com:  0.369D-02 0.345D+00 0.652D+00
 Coeff-En:   0.000D+00 0.168D+00 0.832D+00
 Coeff:      0.324D-02 0.323D+00 0.674D+00
 Gap=     0.337 Goal=   None    Shift=    0.000
 RMSDP=5.43D-04 MaxDP=3.02D-02 DE=-4.30D-02 OVMax= 4.62D-02

 Cycle   4  Pass 1  IDiag  1:
 E= -829.640547673565     Delta-E=       -0.017512202882 Rises=F Damp=F
 DIIS: error= 1.95D-03 at cycle   4 NSaved=   4.
 NSaved= 4 IEnMin= 4 EnMin= -829.640547673565     IErMin= 4 ErrMin= 1.95D-03
 ErrMax= 1.95D-03  0.00D+00 EMaxC= 1.00D-01 BMatC= 3.82D-04 BMatP= 2.46D-02
 IDIUse=3 WtCom= 9.80D-01 WtEn= 1.95D-02
 Coeff-Com: -0.115D-01 0.594D-02 0.114D+00 0.891D+00
 Coeff-En:   0.000D+00 0.000D+00 0.000D+00 0.100D+01
 Coeff:     -0.112D-01 0.582D-02 0.112D+00 0.893D+00
 Gap=     0.341 Goal=   None    Shift=    0.000
 RMSDP=1.15D-04 MaxDP=6.46D-03 DE=-1.75D-02 OVMax= 4.90D-03

 Cycle   5  Pass 1  IDiag  1:
 E= -829.640922691625     Delta-E=       -0.000375018060 Rises=F Damp=F
 DIIS: error= 2.40D-04 at cycle   5 NSaved=   5.
 NSaved= 5 IEnMin= 5 EnMin= -829.640922691625     IErMin= 5 ErrMin= 2.40D-04
 ErrMax= 2.40D-04  0.00D+00 EMaxC= 1.00D-01 BMatC= 2.33D-05 BMatP= 3.82D-04
 IDIUse=3 WtCom= 9.98D-01 WtEn= 2.40D-03
 Coeff-Com:  0.211D-02-0.304D-01-0.644D-01-0.604D-01 0.115D+01
 Coeff-En:   0.000D+00 0.000D+00 0.000D+00 0.000D+00 0.100D+01
 Coeff:      0.211D-02-0.303D-01-0.643D-01-0.602D-01 0.115D+01
 Gap=     0.340 Goal=   None    Shift=    0.000
 RMSDP=5.49D-05 MaxDP=2.67D-03 DE=-3.75D-04 OVMax= 3.84D-03

 Cycle   6  Pass 1  IDiag  1:
 E= -829.640981481553     Delta-E=       -0.000058789929 Rises=F Damp=F
 DIIS: error= 1.21D-04 at cycle   6 NSaved=   6.
 NSaved= 6 IEnMin= 6 EnMin= -829.640981481553     IErMin= 6 ErrMin= 1.21D-04
 ErrMax= 1.21D-04  0.00D+00 EMaxC= 1.00D-01 BMatC= 2.91D-06 BMatP= 2.33D-05
 IDIUse=3 WtCom= 9.99D-01 WtEn= 1.21D-03
 Coeff-Com:  0.278D-03 0.900D-02 0.114D-01-0.859D-01-0.325D+00 0.139D+01
 Coeff-En:   0.000D+00 0.000D+00 0.000D+00 0.000D+00 0.000D+00 0.100D+01
 Coeff:      0.278D-03 0.899D-02 0.114D-01-0.858D-01-0.324D+00 0.139D+01
 Gap=     0.340 Goal=   None    Shift=    0.000
 RMSDP=2.14D-05 MaxDP=7.34D-04 DE=-5.88D-05 OVMax= 2.02D-03

 Cycle   7  Pass 1  IDiag  1:
 E= -829.640992282935     Delta-E=       -0.000010801381 Rises=F Damp=F
 DIIS: error= 3.67D-05 at cycle   7 NSaved=   7.
 NSaved= 7 IEnMin= 7 EnMin= -829.640992282935     IErMin= 7 ErrMin= 3.67D-05
 ErrMax= 3.67D-05  0.00D+00 EMaxC= 1.00D-01 BMatC= 2.48D-07 BMatP= 2.91D-06
 IDIUse=1 WtCom= 1.00D+00 WtEn= 0.00D+00
 Coeff-Com: -0.241D-03 0.141D-02 0.473D-02 0.192D-01-0.652D-01-0.218D+00
 Coeff-Com:  0.126D+01
 Coeff:     -0.241D-03 0.141D-02 0.473D-02 0.192D-01-0.652D-01-0.218D+00
 Coeff:      0.126D+01
 Gap=     0.340 Goal=   None    Shift=    0.000
 RMSDP=6.94D-06 MaxDP=2.41D-04 DE=-1.08D-05 OVMax= 7.09D-04

 Cycle   8  Pass 1  IDiag  1:
 E= -829.640993364414     Delta-E=       -0.000001081479 Rises=F Damp=F
 DIIS: error= 1.17D-05 at cycle   8 NSaved=   8.
 NSaved= 8 IEnMin= 8 EnMin= -829.640993364414     IErMin= 8 ErrMin= 1.17D-05
 ErrMax= 1.17D-05  0.00D+00 EMaxC= 1.00D-01 BMatC= 3.24D-08 BMatP= 2.48D-07
 IDIUse=1 WtCom= 1.00D+00 WtEn= 0.00D+00
 Coeff-Com: -0.142D-04-0.133D-02-0.146D-02 0.129D-01 0.432D-01-0.209D+00
 Coeff-Com:  0.969D-01 0.106D+01
 Coeff:     -0.142D-04-0.133D-02-0.146D-02 0.129D-01 0.432D-01-0.209D+00
 Coeff:      0.969D-01 0.106D+01
 Gap=     0.340 Goal=   None    Shift=    0.000
 RMSDP=2.54D-06 MaxDP=1.25D-04 DE=-1.08D-06 OVMax= 1.99D-04

 Cycle   9  Pass 1  IDiag  1:
 E= -829.640993468345     Delta-E=       -0.000000103931 Rises=F Damp=F
 DIIS: error= 3.10D-06 at cycle   9 NSaved=   9.
 NSaved= 9 IEnMin= 9 EnMin= -829.640993468345     IErMin= 9 ErrMin= 3.10D-06
 ErrMax= 3.10D-06  0.00D+00 EMaxC= 1.00D-01 BMatC= 2.83D-09 BMatP= 3.24D-08
 IDIUse=1 WtCom= 1.00D+00 WtEn= 0.00D+00
 Coeff-Com:  0.190D-04 0.125D-03-0.560D-04-0.502D-02-0.289D-02 0.629D-01
 Coeff-Com: -0.132D+00-0.225D+00 0.130D+01
 Coeff:      0.190D-04 0.125D-03-0.560D-04-0.502D-02-0.289D-02 0.629D-01
 Coeff:     -0.132D+00-0.225D+00 0.130D+01
 Gap=     0.340 Goal=   None    Shift=    0.000
 RMSDP=1.06D-06 MaxDP=5.74D-05 DE=-1.04D-07 OVMax= 6.63D-05

 Cycle  10  Pass 1  IDiag  1:
 E= -829.640993479750     Delta-E=       -0.000000011406 Rises=F Damp=F
 DIIS: error= 1.58D-06 at cycle  10 NSaved=  10.
 NSaved=10 IEnMin=10 EnMin= -829.640993479750     IErMin=10 ErrMin= 1.58D-06
 ErrMax= 1.58D-06  0.00D+00 EMaxC= 1.00D-01 BMatC= 3.56D-10 BMatP= 2.83D-09
 IDIUse=1 WtCom= 1.00D+00 WtEn= 0.00D+00
 Coeff-Com: -0.749D-06 0.113D-03 0.118D-03-0.468D-03-0.359D-02 0.115D-01
 Coeff-Com:  0.851D-02-0.642D-01-0.198D+00 0.125D+01
 Coeff:     -0.749D-06 0.113D-03 0.118D-03-0.468D-03-0.359D-02 0.115D-01
 Coeff:      0.851D-02-0.642D-01-0.198D+00 0.125D+01
 Gap=     0.340 Goal=   None    Shift=    0.000
 RMSDP=3.07D-07 MaxDP=1.09D-05 DE=-1.14D-08 OVMax= 2.38D-05

 Cycle  11  Pass 1  IDiag  1:
 E= -829.640993481397     Delta-E=       -0.000000001647 Rises=F Damp=F
 DIIS: error= 6.05D-07 at cycle  11 NSaved=  11.
 NSaved=11 IEnMin=11 EnMin= -829.640993481397     IErMin=11 ErrMin= 6.05D-07
 ErrMax= 6.05D-07  0.00D+00 EMaxC= 1.00D-01 BMatC= 7.74D-11 BMatP= 3.56D-10
 IDIUse=1 WtCom= 1.00D+00 WtEn= 0.00D+00
 Coeff-Com: -0.365D-05-0.359D-04-0.842D-05 0.113D-02 0.850D-03-0.138D-01
 Coeff-Com:  0.248D-01 0.534D-01-0.245D+00-0.128D+00 0.131D+01
 Coeff:     -0.365D-05-0.359D-04-0.842D-05 0.113D-02 0.850D-03-0.138D-01
 Coeff:      0.248D-01 0.534D-01-0.245D+00-0.128D+00 0.131D+01
 Gap=     0.340 Goal=   None    Shift=    0.000
 RMSDP=1.58D-07 MaxDP=3.43D-06 DE=-1.65D-09 OVMax= 1.45D-05

 Cycle  12  Pass 1  IDiag  1:
 E= -829.640993481784     Delta-E=       -0.000000000387 Rises=F Damp=F
 DIIS: error= 2.65D-07 at cycle  12 NSaved=  12.
 NSaved=12 IEnMin=12 EnMin= -829.640993481784     IErMin=12 ErrMin= 2.65D-07
 ErrMax= 2.65D-07  0.00D+00 EMaxC= 1.00D-01 BMatC= 9.05D-12 BMatP= 7.74D-11
 IDIUse=1 WtCom= 1.00D+00 WtEn= 0.00D+00
 Coeff-Com:  0.469D-07-0.973D-05-0.494D-05-0.567D-04 0.293D-03 0.777D-04
 Coeff-Com: -0.399D-02 0.375D-02 0.539D-01-0.158D+00-0.190D+00 0.129D+01
 Coeff:      0.469D-07-0.973D-05-0.494D-05-0.567D-04 0.293D-03 0.777D-04
 Coeff:     -0.399D-02 0.375D-02 0.539D-01-0.158D+00-0.190D+00 0.129D+01
 Gap=     0.340 Goal=   None    Shift=    0.000
 RMSDP=6.56D-08 MaxDP=1.84D-06 DE=-3.87D-10 OVMax= 5.88D-06

 Cycle  13  Pass 1  IDiag  1:
 E= -829.640993481840     Delta-E=       -0.000000000055 Rises=F Damp=F
 DIIS: error= 1.18D-07 at cycle  13 NSaved=  13.
 NSaved=13 IEnMin=13 EnMin= -829.640993481840     IErMin=13 ErrMin= 1.18D-07
 ErrMax= 1.18D-07  0.00D+00 EMaxC= 1.00D-01 BMatC= 1.25D-12 BMatP= 9.05D-12
 IDIUse=1 WtCom= 1.00D+00 WtEn= 0.00D+00
 Coeff-Com:  0.460D-06 0.535D-05 0.469D-06-0.100D-03-0.147D-03 0.134D-02
 Coeff-Com: -0.137D-02-0.597D-02 0.545D-02 0.810D-01-0.107D+00-0.437D+00
 Coeff-Com:  0.146D+01
 Coeff:      0.460D-06 0.535D-05 0.469D-06-0.100D-03-0.147D-03 0.134D-02
 Coeff:     -0.137D-02-0.597D-02 0.545D-02 0.810D-01-0.107D+00-0.437D+00
 Coeff:      0.146D+01
 Gap=     0.340 Goal=   None    Shift=    0.000
 RMSDP=2.68D-08 MaxDP=1.21D-06 DE=-5.55D-11 OVMax= 2.27D-06

 Cycle  14  Pass 1  IDiag  1:
 E= -829.640993481845     Delta-E=       -0.000000000006 Rises=F Damp=F
 DIIS: error= 3.18D-08 at cycle  14 NSaved=  14.
 NSaved=14 IEnMin=14 EnMin= -829.640993481845     IErMin=14 ErrMin= 3.18D-08
 ErrMax= 3.18D-08  0.00D+00 EMaxC= 1.00D-01 BMatC= 1.22D-13 BMatP= 1.25D-12
 IDIUse=1 WtCom= 1.00D+00 WtEn= 0.00D+00
 Coeff-Com: -0.112D-06 0.690D-06 0.145D-05 0.185D-04-0.238D-04-0.137D-03
 Coeff-Com:  0.613D-03 0.211D-03-0.753D-02 0.129D-01 0.240D-01-0.882D-01
 Coeff-Com: -0.214D+00 0.127D+01
 Coeff:     -0.112D-06 0.690D-06 0.145D-05 0.185D-04-0.238D-04-0.137D-03
 Coeff:      0.613D-03 0.211D-03-0.753D-02 0.129D-01 0.240D-01-0.882D-01
 Coeff:     -0.214D+00 0.127D+01
 Gap=     0.340 Goal=   None    Shift=    0.000
 RMSDP=8.28D-09 MaxDP=2.53D-07 DE=-5.57D-12 OVMax= 7.02D-07

 SCF Done:  E(RHF) =  -829.640993482     A.U. after   14 cycles
            NFock= 14  Conv=0.83D-08     -V/T= 2.2853
 KE= 6.454599496678D+02 PE=-2.196304200568D+03 EE= 5.773595808523D+02
 Leave Link  502 at Tue Oct 12 15:37:14 2021, MaxMem=  1048576000 cpu:        17.6
 (Enter /usr/local/gaussian/g09/l801.exe)
 ExpMin= 2.53D-02 ExpMax= 4.56D+05 ExpMxC= 1.44D+03 IAcc=3 IRadAn=         5 AccDes= 0.00D+00
 HarFok:  IExCor=  205 AccDes= 0.00D+00 IRadAn=         5 IDoV=-2 UseB2=F ITyADJ=14
 ICtDFT= 12500011 ScaDFX=  1.000000  1.000000  1.000000  1.000000
 Defaulting to unpruned grid for atomic number  53.
 Defaulting to unpruned grid for atomic number  53.
 Defaulting to unpruned grid for atomic number  53.
 Defaulting to unpruned grid for atomic number  53.
 Defaulting to unpruned grid for atomic number  53.
 Defaulting to unpruned grid for atomic number  53.
 Defaulting to unpruned grid for atomic number  53.
 Defaulting to unpruned grid for atomic number  53.
 Defaulting to unpruned grid for atomic number  53.
 Defaulting to unpruned grid for atomic number  53.
 Defaulting to unpruned grid for atomic number  53.
 Defaulting to unpruned grid for atomic number  53.
 Largest valence mixing into a core orbital is  4.46D-04
 Largest core mixing into a valence orbital is  1.54D-04
 Range of M.O.s used for correlation:    11   174
 NBasis=   174 NAE=    26 NBE=    26 NFC=    10 NFV=     0
 NROrb=    164 NOA=    16 NOB=    16 NVA=   148 NVB=   148

 **** Warning!!: The largest alpha MO coefficient is  0.17381688D+02

 Leave Link  801 at Tue Oct 12 15:37:14 2021, MaxMem=  1048576000 cpu:         0.8
 (Enter /usr/local/gaussian/g09/l906.exe)
 Frozen-core derivative calculation, NFC=  10 NFV=   0.
 FulOut=F Deriv=T AODrv=F NAtomX=     4
   MMem=         239  MDisk=          16 MDiskD=          16
  W3Min=      922896 MinDsk=     1491158 NBas6D=         204
 NBas2D=       21411    NTT=       20910    LW2=    26219120
    MDV=  1048172399 MDiskM=       25641 NBas2p=       21407
 Fully in-core method, ICMem=   539113593.
 IMap=   1   2   3   4   5   6   7   8   9  10  11  12  13  14  15  16  17  18  19  20
 IMap=  21  22  23  24  25  26
 JobTyp=1 Pass  1 fully in-core, NPsUse= 12.
 Compute canonical integrals.
 FoFCou: FMM=F IPFlag=           0 FMFlag=           0 FMFlg1=           0
         NFxFlg=           0 DoJE=F BraDBF=F KetDBF=F FulRan=T
         wScrn=  0.000000 ICntrl=     600 IOpCl=  1 I1Cent=           0 NGrid=           0
         NMat0=    1 NMatS0=  21411 NMatT0=    0 NMatD0=    1 NMtDS0=    0 NMtDT0=    0
 Symmetry not used in FoFCou.
 Spin components of T(2) and E(2):
     alpha-alpha T2 =       0.3363565672D-01 E2=     -0.9498399563D-01
     alpha-beta  T2 =       0.1753550697D+00 E2=     -0.5109307927D+00
     beta-beta   T2 =       0.3363565672D-01 E2=     -0.9498399563D-01
 The integrals were generated   1 times.
 ANorm=    0.1114731530D+01
 E2 =    -0.7008987840D+00 EUMP2 =    -0.83034189226584D+03
 Leave Link  906 at Tue Oct 12 15:37:22 2021, MaxMem=  1048576000 cpu:       103.7
 (Enter /usr/local/gaussian/g09/l1002.exe)
 Minotr:  Closed shell wavefunction.
          Computing MP2/KS-MP2 derivatives.
          Using Z-Vector for PSCF gradient.
          Skipping F1 and S1 gradient terms here.
          Frozen-core window.
          Direct CPHF calculation.
          Differentiating once with respect to electric field.
                with respect to dipole field.
          Electric field/nuclear overlap derivatives assumed to be zero.
          Requested convergence is 1.0D-10 RMS, and 1.0D-09 maximum.
          NewPWx=F KeepS1=T KeepF1=T KeepIn=T MapXYZ=F SortEE=F KeepMc=T.
          MDV=    1048575800 using IRadAn=       0.
 Keep R1 ints in memory in canonical form, NReq=124351794.
 FoFCou: FMM=F IPFlag=           0 FMFlag=           0 FMFlg1=           0
         NFxFlg=           0 DoJE=F BraDBF=F KetDBF=F FulRan=T
         wScrn=  0.000000 ICntrl=     600 IOpCl=  0 I1Cent=           0 NGrid=           0
         NMat0=    1 NMatS0=  15225 NMatT0=    0 NMatD0=    1 NMtDS0=    0 NMtDT0=    0
 Symmetry not used in FoFCou.
          Solving linear equations separately, MaxMat=       0.
          There are     1 degrees of freedom in the 1st order CPHF.  IDoFFX=0 NUNeed=     1.
 LinEq1:  Iter=  0 NonCon=     1 RMS=3.53D-03 Max=6.24D-02 NDo=     1
 AX will form     1 AO Fock derivatives at one time.
 LinEq1:  Iter=  1 NonCon=     1 RMS=5.91D-04 Max=7.65D-03 NDo=     1
 LinEq1:  Iter=  2 NonCon=     1 RMS=2.37D-04 Max=2.73D-03 NDo=     1
 LinEq1:  Iter=  3 NonCon=     1 RMS=7.12D-05 Max=1.56D-03 NDo=     1
 LinEq1:  Iter=  4 NonCon=     1 RMS=1.40D-05 Max=1.77D-04 NDo=     1
 LinEq1:  Iter=  5 NonCon=     1 RMS=4.01D-06 Max=6.64D-05 NDo=     1
 LinEq1:  Iter=  6 NonCon=     1 RMS=1.14D-06 Max=1.53D-05 NDo=     1
 LinEq1:  Iter=  7 NonCon=     1 RMS=5.52D-07 Max=8.70D-06 NDo=     1
 LinEq1:  Iter=  8 NonCon=     1 RMS=2.49D-07 Max=3.17D-06 NDo=     1
 LinEq1:  Iter=  9 NonCon=     1 RMS=9.14D-08 Max=1.40D-06 NDo=     1
 LinEq1:  Iter= 10 NonCon=     1 RMS=2.37D-08 Max=3.99D-07 NDo=     1
 LinEq1:  Iter= 11 NonCon=     1 RMS=5.34D-09 Max=5.66D-08 NDo=     1
 LinEq1:  Iter= 12 NonCon=     1 RMS=9.42D-10 Max=1.13D-08 NDo=     1
 LinEq1:  Iter= 13 NonCon=     1 RMS=2.33D-10 Max=2.20D-09 NDo=     1
 LinEq1:  Iter= 14 NonCon=     0 RMS=6.39D-11 Max=7.43D-10 NDo=     1
 Linear equations converged to 1.000D-10 1.000D-09 after    14 iterations.
 End of Minotr F.D. properties file   721 does not exist.
 End of Minotr F.D. properties file   722 does not exist.
 End of Minotr F.D. properties file   788 does not exist.
 Leave Link 1002 at Tue Oct 12 15:37:26 2021, MaxMem=  1048576000 cpu:        16.5
 (Enter /usr/local/gaussian/g09/l601.exe)
 Copying SCF densities to generalized density rwf, IOpCl= 0 IROHF=0.

 **********************************************************************

            Population analysis using the MP2 density.

 **********************************************************************

 Alpha  occ. eigenvalues -- -104.69900 -20.42138 -10.41872  -7.88582  -7.88353
 Alpha  occ. eigenvalues --   -7.88346  -7.51363  -5.34080  -5.33816  -5.33813
 Alpha  occ. eigenvalues --   -2.06892  -2.06739  -2.06735  -2.06448  -2.06448
 Alpha  occ. eigenvalues --   -1.15406  -0.84771  -0.68334  -0.45040  -0.39895
 Alpha  occ. eigenvalues --   -0.38991  -0.27871  -0.24394  -0.19414  -0.18327
 Alpha  occ. eigenvalues --   -0.18285
 Alpha virt. eigenvalues --    0.15719   0.18800   0.21278   0.23024   0.23881
 Alpha virt. eigenvalues --    0.24644   0.25079   0.29062   0.30310   0.31643
 Alpha virt. eigenvalues --    0.32064   0.32101   0.35503   0.36188   0.36891
 Alpha virt. eigenvalues --    0.38664   0.38689   0.41934   0.46870   0.49577
 Alpha virt. eigenvalues --    0.51561   0.54712   0.55184   0.57492   0.58612
 Alpha virt. eigenvalues --    0.61624   0.64113   0.67013   0.72439   0.73957
 Alpha virt. eigenvalues --    0.73966   0.75600   0.76595   0.76699   0.78402
 Alpha virt. eigenvalues --    0.79970   0.80112   0.81768   0.83780   0.84920
 Alpha virt. eigenvalues --    0.85166   0.86676   0.88070   0.92820   0.94353
 Alpha virt. eigenvalues --    0.94585   0.96714   0.96919   1.00045   1.02054
 Alpha virt. eigenvalues --    1.08990   1.11642   1.12228   1.13759   1.16745
 Alpha virt. eigenvalues --    1.17737   1.22269   1.22371   1.24304   1.25882
 Alpha virt. eigenvalues --    1.30792   1.31640   1.37039   1.42005   1.45660
 Alpha virt. eigenvalues --    1.51934   1.53561   1.54956   1.57376   1.59703
 Alpha virt. eigenvalues --    1.62437   1.69757   1.70457   1.71354   1.71478
 Alpha virt. eigenvalues --    1.73280   1.74301   1.74618   1.77914   1.84599
 Alpha virt. eigenvalues --    1.89363   1.91632   1.91713   1.99399   2.02412
 Alpha virt. eigenvalues --    2.02467   2.07468   2.11967   2.15504   2.32088
 Alpha virt. eigenvalues --    2.42248   2.46797   2.53115   2.53765   2.56541
 Alpha virt. eigenvalues --    2.57237   2.62190   2.65070   2.67402   2.69621
 Alpha virt. eigenvalues --    2.74278   2.76033   2.78905   2.80282   2.91714
 Alpha virt. eigenvalues --    2.92516   3.11505   3.12550   3.19547   3.24339
 Alpha virt. eigenvalues --    3.25773   3.31338   3.32702   3.35527   3.44241
 Alpha virt. eigenvalues --    3.51182   3.56707   3.60049   3.61728   3.64646
 Alpha virt. eigenvalues --    3.94964   4.15500   4.27056   4.39754   4.48595
 Alpha virt. eigenvalues --    4.52196   4.60719   4.67548   4.71155   4.76615
 Alpha virt. eigenvalues --    5.30725   5.37653   6.14901   6.53454   6.84129
 Alpha virt. eigenvalues --    6.90643   6.95041   6.97352   7.06652   7.16594
 Alpha virt. eigenvalues --    7.29959   7.37258   7.47634   7.47803   7.78569
 Alpha virt. eigenvalues --    8.17368  12.86598  59.17161
          Condensed to atoms (all electrons):
               1          2          3          4
     1  O    8.712765  -0.145234  -0.160033   0.178692
     2  Cl  -0.145234  17.147547   0.025976  -0.029665
     3  I   -0.160033   0.025976  25.707844  -0.030499
     4  H    0.178692  -0.029665  -0.030499   0.753370
 Mulliken charges:
               1
     1  O   -0.586190
     2  Cl   0.001375
     3  I   -0.543287
     4  H    0.128102
 Sum of Mulliken charges =  -1.00000
 Mulliken charges with hydrogens summed into heavy atoms:
               1
     1  O   -0.458088
     2  Cl   0.001375
     3  I   -0.543287
 Electronic spatial extent (au):  <R**2>=           1300.7222
 Charge=             -1.0000 electrons
 Dipole moment (field-independent basis, Debye):
    X=              0.7976    Y=              8.5396    Z=             -0.0000  Tot=              8.5768
 Quadrupole moment (field-independent basis, Debye-Ang):
   XX=            -55.9305   YY=            -82.4366   ZZ=            -52.7022
   XY=             -7.4000   XZ=             -0.0000   YZ=             -0.0000
 Traceless Quadrupole moment (field-independent basis, Debye-Ang):
   XX=              7.7593   YY=            -18.7468   ZZ=             10.9876
   XY=             -7.4000   XZ=             -0.0000   YZ=             -0.0000
 Octapole moment (field-independent basis, Debye-Ang**2):
  XXX=              4.8727  YYY=            403.5061  ZZZ=             -0.0000  XYY=             23.7245
  XXY=            108.6461  XXZ=             -0.0000  XZZ=              0.8240  YZZ=            103.2526
  YYZ=              0.0000  XYZ=              0.0000
 Hexadecapole moment (field-independent basis, Debye-Ang**3):
 XXXX=           -414.3212 YYYY=          -2338.2250 ZZZZ=            -82.2859 XXXY=           -239.1234
 XXXZ=             -0.0000 YYYX=           -300.2887 YYYZ=             -0.0000 ZZZX=             -0.0000
 ZZZY=             -0.0000 XXYY=           -433.4893 XXZZ=            -86.8001 YYZZ=           -358.9329
 XXYZ=             -0.0000 YYXZ=             -0.0000 ZZXY=            -78.4512
 N-N= 1.438436765655D+02 E-N=-2.195769250884D+03  KE= 6.458398085875D+02
 No NMR shielding tensors so no spin-rotation constants.
 Leave Link  601 at Tue Oct 12 15:37:26 2021, MaxMem=  1048576000 cpu:         2.2
 (Enter /usr/local/gaussian/g09/l607.exe)
 ******************************Gaussian NBO Version 3.1******************************
             N A T U R A L   A T O M I C   O R B I T A L   A N D
          N A T U R A L   B O N D   O R B I T A L   A N A L Y S I S
 ******************************Gaussian NBO Version 3.1******************************
       /RESON  / : Allow strongly delocalized NBO set

 Analyzing the MP2 density

 Job title: title                                                           

 Storage needed:     91686 in NPA,    121697 in NBO (1048575904 available)


 NATURAL POPULATIONS:  Natural atomic orbital occupancies 
                                                          
   NAO  Atom  No  lang   Type(AO)    Occupancy
 --------------------------------------------
     1    O    1  S      Cor( 1S)     1.99983
     2    O    1  S      Val( 2S)     1.84992
     3    O    1  S      Ryd( 3S)     0.01230
     4    O    1  S      Ryd( 4S)     0.00131
     5    O    1  S      Ryd( 5S)     0.00017
     6    O    1  px     Val( 2p)     1.17864
     7    O    1  px     Ryd( 3p)     0.00821
     8    O    1  px     Ryd( 4p)     0.00070
     9    O    1  px     Ryd( 5p)     0.00066
    10    O    1  py     Val( 2p)     1.73785
    11    O    1  py     Ryd( 3p)     0.01509
    12    O    1  py     Ryd( 4p)     0.00065
    13    O    1  py     Ryd( 5p)     0.00047
    14    O    1  pz     Val( 2p)     1.94386
    15    O    1  pz     Ryd( 3p)     0.02324
    16    O    1  pz     Ryd( 4p)     0.00060
    17    O    1  pz     Ryd( 5p)     0.00023
    18    O    1  dxy    Ryd( 3d)     0.00856
    19    O    1  dxy    Ryd( 4d)     0.00059
    20    O    1  dxy    Ryd( 5d)     0.00013
    21    O    1  dxz    Ryd( 3d)     0.00885
    22    O    1  dxz    Ryd( 4d)     0.00062
    23    O    1  dxz    Ryd( 5d)     0.00011
    24    O    1  dyz    Ryd( 3d)     0.00678
    25    O    1  dyz    Ryd( 4d)     0.00069
    26    O    1  dyz    Ryd( 5d)     0.00024
    27    O    1  dx2y2  Ryd( 3d)     0.01041
    28    O    1  dx2y2  Ryd( 4d)     0.00043
    29    O    1  dx2y2  Ryd( 5d)     0.00014
    30    O    1  dz2    Ryd( 3d)     0.00796
    31    O    1  dz2    Ryd( 4d)     0.00066
    32    O    1  dz2    Ryd( 5d)     0.00015
    33    O    1  f(0)   Ryd( 4f)     0.00066
    34    O    1  f(0)   Ryd( 5f)     0.00011
    35    O    1  f(C1)  Ryd( 4f)     0.00065
    36    O    1  f(C1)  Ryd( 5f)     0.00012
    37    O    1  f(S1)  Ryd( 4f)     0.00062
    38    O    1  f(S1)  Ryd( 5f)     0.00013
    39    O    1  f(C2)  Ryd( 4f)     0.00066
    40    O    1  f(C2)  Ryd( 5f)     0.00013
    41    O    1  f(S2)  Ryd( 4f)     0.00056
    42    O    1  f(S2)  Ryd( 5f)     0.00012
    43    O    1  f(C3)  Ryd( 4f)     0.00065
    44    O    1  f(C3)  Ryd( 5f)     0.00014
    45    O    1  f(S3)  Ryd( 4f)     0.00062
    46    O    1  f(S3)  Ryd( 5f)     0.00013

    47   Cl    2  S      Cor( 1S)     2.00000
    48   Cl    2  S      Cor( 2S)     1.99974
    49   Cl    2  S      Val( 3S)     1.87602
    50   Cl    2  S      Ryd( 4S)     0.00838
    51   Cl    2  S      Ryd( 5S)     0.00058
    52   Cl    2  S      Ryd( 6S)     0.00020
    53   Cl    2  px     Cor( 2p)     1.99995
    54   Cl    2  px     Val( 3p)     0.94200
    55   Cl    2  px     Ryd( 4p)     0.00711
    56   Cl    2  px     Ryd( 5p)     0.00056
    57   Cl    2  px     Ryd( 6p)     0.00020
    58   Cl    2  py     Cor( 2p)     2.00003
    59   Cl    2  py     Val( 3p)     1.95111
    60   Cl    2  py     Ryd( 4p)     0.01105
    61   Cl    2  py     Ryd( 5p)     0.00059
    62   Cl    2  py     Ryd( 6p)     0.00009
    63   Cl    2  pz     Cor( 2p)     2.00003
    64   Cl    2  pz     Val( 3p)     1.95323
    65   Cl    2  pz     Ryd( 4p)     0.01157
    66   Cl    2  pz     Ryd( 5p)     0.00073
    67   Cl    2  pz     Ryd( 6p)     0.00003
    68   Cl    2  dxy    Ryd( 3d)     0.01956
    69   Cl    2  dxy    Ryd( 4d)     0.00104
    70   Cl    2  dxy    Ryd( 5d)     0.00036
    71   Cl    2  dxz    Ryd( 3d)     0.02311
    72   Cl    2  dxz    Ryd( 4d)     0.00131
    73   Cl    2  dxz    Ryd( 5d)     0.00039
    74   Cl    2  dyz    Ryd( 3d)     0.01702
    75   Cl    2  dyz    Ryd( 4d)     0.00072
    76   Cl    2  dyz    Ryd( 5d)     0.00023
    77   Cl    2  dx2y2  Ryd( 3d)     0.01903
    78   Cl    2  dx2y2  Ryd( 4d)     0.00053
    79   Cl    2  dx2y2  Ryd( 5d)     0.00019
    80   Cl    2  dz2    Ryd( 3d)     0.01785
    81   Cl    2  dz2    Ryd( 4d)     0.00062
    82   Cl    2  dz2    Ryd( 5d)     0.00021
    83   Cl    2  f(0)   Ryd( 4f)     0.00133
    84   Cl    2  f(0)   Ryd( 5f)     0.00015
    85   Cl    2  f(C1)  Ryd( 4f)     0.00154
    86   Cl    2  f(C1)  Ryd( 5f)     0.00015
    87   Cl    2  f(S1)  Ryd( 4f)     0.00128
    88   Cl    2  f(S1)  Ryd( 5f)     0.00013
    89   Cl    2  f(C2)  Ryd( 4f)     0.00137
    90   Cl    2  f(C2)  Ryd( 5f)     0.00014
    91   Cl    2  f(S2)  Ryd( 4f)     0.00122
    92   Cl    2  f(S2)  Ryd( 5f)     0.00014
    93   Cl    2  f(C3)  Ryd( 4f)     0.00171
    94   Cl    2  f(C3)  Ryd( 5f)     0.00014
    95   Cl    2  f(S3)  Ryd( 4f)     0.00134
    96   Cl    2  f(S3)  Ryd( 5f)     0.00016

    97    I    3  S      Cor( 4S)     1.99927
    98    I    3  S      Val( 5S)     1.93114
    99    I    3  S      Ryd( 6S)     0.00126
   100    I    3  S      Ryd( 7S)     0.00068
   101    I    3  S      Ryd( 8S)     0.00019
   102    I    3  S      Ryd( 9S)     0.00001
   103    I    3  px     Cor( 4p)     1.99988
   104    I    3  px     Val( 5p)     1.93458
   105    I    3  px     Ryd( 6p)     0.00961
   106    I    3  px     Ryd( 7p)     0.00068
   107    I    3  px     Ryd( 8p)     0.00011
   108    I    3  py     Cor( 4p)     1.99953
   109    I    3  py     Val( 5p)     1.65124
   110    I    3  py     Ryd( 6p)     0.00830
   111    I    3  py     Ryd( 7p)     0.00061
   112    I    3  py     Ryd( 8p)     0.00013
   113    I    3  pz     Cor( 4p)     1.99990
   114    I    3  pz     Val( 5p)     1.95188
   115    I    3  pz     Ryd( 6p)     0.00968
   116    I    3  pz     Ryd( 7p)     0.00067
   117    I    3  pz     Ryd( 8p)     0.00011
   118    I    3  dxy    Cor( 4d)     1.99662
   119    I    3  dxy    Ryd( 5d)     0.01906
   120    I    3  dxy    Ryd( 6d)     0.00118
   121    I    3  dxy    Ryd( 7d)     0.00023
   122    I    3  dxz    Cor( 4d)     1.99679
   123    I    3  dxz    Ryd( 5d)     0.01944
   124    I    3  dxz    Ryd( 6d)     0.00154
   125    I    3  dxz    Ryd( 7d)     0.00020
   126    I    3  dyz    Cor( 4d)     1.99672
   127    I    3  dyz    Ryd( 5d)     0.01911
   128    I    3  dyz    Ryd( 6d)     0.00118
   129    I    3  dyz    Ryd( 7d)     0.00025
   130    I    3  dx2y2  Cor( 4d)     1.99636
   131    I    3  dx2y2  Ryd( 5d)     0.01950
   132    I    3  dx2y2  Ryd( 6d)     0.00137
   133    I    3  dx2y2  Ryd( 7d)     0.00023
   134    I    3  dz2    Cor( 4d)     1.99662
   135    I    3  dz2    Ryd( 5d)     0.01953
   136    I    3  dz2    Ryd( 6d)     0.00152
   137    I    3  dz2    Ryd( 7d)     0.00016
   138    I    3  f(0)   Ryd( 4f)     0.00265
   139    I    3  f(0)   Ryd( 5f)     0.00041
   140    I    3  f(C1)  Ryd( 4f)     0.00271
   141    I    3  f(C1)  Ryd( 5f)     0.00041
   142    I    3  f(S1)  Ryd( 4f)     0.00281
   143    I    3  f(S1)  Ryd( 5f)     0.00045
   144    I    3  f(C2)  Ryd( 4f)     0.00262
   145    I    3  f(C2)  Ryd( 5f)     0.00041
   146    I    3  f(S2)  Ryd( 4f)     0.00267
   147    I    3  f(S2)  Ryd( 5f)     0.00042
   148    I    3  f(C3)  Ryd( 4f)     0.00268
   149    I    3  f(C3)  Ryd( 5f)     0.00042
   150    I    3  f(S3)  Ryd( 4f)     0.00273
   151    I    3  f(S3)  Ryd( 5f)     0.00043

   152    H    4  S      Val( 1S)     0.65956
   153    H    4  S      Ryd( 2S)     0.00606
   154    H    4  S      Ryd( 3S)     0.00087
   155    H    4  S      Ryd( 4S)     0.00019
   156    H    4  px     Ryd( 2p)     0.00518
   157    H    4  px     Ryd( 3p)     0.00047
   158    H    4  px     Ryd( 4p)     0.00011
   159    H    4  py     Ryd( 2p)     0.00541
   160    H    4  py     Ryd( 3p)     0.00159
   161    H    4  py     Ryd( 4p)     0.00023
   162    H    4  pz     Ryd( 2p)     0.00673
   163    H    4  pz     Ryd( 3p)     0.00048
   164    H    4  pz     Ryd( 4p)     0.00022
   165    H    4  dxy    Ryd( 3d)     0.00042
   166    H    4  dxy    Ryd( 4d)     0.00010
   167    H    4  dxz    Ryd( 3d)     0.00031
   168    H    4  dxz    Ryd( 4d)     0.00006
   169    H    4  dyz    Ryd( 3d)     0.00048
   170    H    4  dyz    Ryd( 4d)     0.00008
   171    H    4  dx2y2  Ryd( 3d)     0.00037
   172    H    4  dx2y2  Ryd( 4d)     0.00017
   173    H    4  dz2    Ryd( 3d)     0.00032
   174    H    4  dz2    Ryd( 4d)     0.00012

 [ 28 electrons found in the effective core potential]

 WARNING:  5 low occupancy (<1.9990e) core orbitals found on  I    3


 Summary of Natural Population Analysis:                  
                                                          
                                       Natural Population 
                Natural  -----------------------------------------------
    Atom  No    Charge         Core      Valence    Rydberg      Total
 -----------------------------------------------------------------------
      O    1   -0.82539      1.99983     6.71027    0.11529     8.82539
     Cl    2    0.12382      9.99974     6.72237    0.15407    16.87618
      I    3   -0.60888     45.98169     7.46884    0.15836    53.60888
      H    4    0.31045      0.00000     0.65956    0.02998     0.68955
 =======================================================================
   * Total *   -1.00000     57.98126    21.56104    0.45769    80.00000

                                 Natural Population      
 --------------------------------------------------------
   Effective Core            28.00000
   Core                      29.98126 ( 99.9375% of  30)
   Valence                   21.56104 ( 98.0047% of  22)
   Natural Minimal Basis     79.54231 ( 99.4279% of  80)
   Natural Rydberg Basis      0.45769 (  0.5721% of  80)
 --------------------------------------------------------

    Atom  No          Natural Electron Configuration
 ----------------------------------------------------------------------------
      O    1      [core]2S( 1.85)2p( 4.86)3S( 0.01)3p( 0.05)3d( 0.04)
     Cl    2      [core]3S( 1.88)3p( 4.85)4S( 0.01)3d( 0.10)4p( 0.03)4f( 0.01)
      I    3      [core]5S( 1.93)5p( 5.54)4f( 0.02)5d( 0.10)6p( 0.03)6d( 0.01)
      H    4            1S( 0.66)2S( 0.01)2p( 0.02)


 NATURAL BOND ORBITAL ANALYSIS:
 Warning:  a bond orbital has occupanc of -0.00019

                       Occupancies       Lewis Structure    Low   High
           Occ.    -------------------  -----------------   occ   occ
  Cycle   Thresh.   Lewis   Non-Lewis     CR  BD  3C  LP    (L)   (NL)   Dev
 =============================================================================
   1(1)    1.90    79.13485   0.86515     15   2   0   9     1      1    0.46
 Warning:  a bond orbital has occupanc of -0.00019
   2(2)    1.90    79.21741   0.78259     15   2   0   9     1      1    0.35
 Warning:  a bond orbital has occupanc of -0.00019
   3(3)    1.90    79.13485   0.86515     15   2   0   9     1      1    0.46
 Warning:  a bond orbital has occupanc of -0.00019
   4(4)    1.90    79.21741   0.78259     15   2   0   9     1      1    0.35
 Warning:  a bond orbital has occupanc of -0.00019
   5(1)    1.80    79.21741   0.78259     15   2   0   9     1      1    0.35
 Warning:  a bond orbital has occupanc of -0.00019
   6(2)    1.80    79.13485   0.86515     15   2   0   9     1      1    0.46
 Warning:  a bond orbital has occupanc of -0.00019
   7(3)    1.80    79.21741   0.78259     15   2   0   9     1      1    0.35
 Warning:  a bond orbital has occupanc of -0.00019
   8(1)    1.70    79.21741   0.78259     15   2   0   9     1      1    0.35
 Warning:  a bond orbital has occupanc of -0.00019
   9(2)    1.70    79.13485   0.86515     15   2   0   9     1      1    0.46
 Warning:  a bond orbital has occupanc of -0.00019
  10(3)    1.70    79.21741   0.78259     15   2   0   9     1      1    0.35
 Warning:  a bond orbital has occupanc of -0.00019
  11(1)    1.60    79.22555   0.77445     15   2   0   9     0      1    0.35
 Warning:  a bond orbital has occupanc of -0.00019
  12(2)    1.60    79.22555   0.77445     15   2   0   9     0      1    0.35
 Warning:  a bond orbital has occupanc of -0.00019
  13(1)    1.50    78.87038   1.12962     15   1   0  10     0      1    0.46
 Warning:  a bond orbital has occupanc of -0.00019
  14(2)    1.50    78.87038   1.12962     15   1   0  10     0      1    0.46
 Warning:  a bond orbital has occupanc of -0.00019
  15(1)    1.60    79.22555   0.77445     15   2   0   9     0      1    0.35
 -----------------------------------------------------------------------------

 Structure accepted: RESONANCE keyword permits strongly delocalized structure

 WARNING:  5 low occupancy (<1.9990e) core orbitals found on  I    3

 --------------------------------------------------------
   Effective Core           28.00000
   Core                     29.98127 ( 99.938% of  30)
   Valence Lewis            21.24428 ( 96.565% of  22)
  ==================       ============================
   Total Lewis              79.22555 ( 99.032% of  80)
  -----------------------------------------------------
   Valence non-Lewis         0.36160 (  0.452% of  80)
   Rydberg non-Lewis         0.41285 (  0.516% of  80)
  ==================       ============================
   Total non-Lewis           0.77445 (  0.968% of  80)
 --------------------------------------------------------


       (Occupancy)   Bond orbital/ Coefficients/ Hybrids
 ---------------------------------------------------------------------------------
     1. (1.93422) BD ( 1) O   1 -Cl   2  
                ( 57.24%)   0.7565* O   1 s(  8.22%)p11.10( 91.27%)d 0.06(  0.49%)
                                                  f 0.00(  0.02%)
                                            0.0003  0.2802 -0.0588  0.0156 -0.0011
                                            0.9537 -0.0455 -0.0110 -0.0173  0.0140
                                           -0.0197 -0.0034  0.0027  0.0000  0.0000
                                            0.0000  0.0000 -0.0123 -0.0018  0.0005
                                            0.0000  0.0000  0.0000  0.0000  0.0000
                                            0.0000  0.0570  0.0039  0.0013 -0.0378
                                           -0.0030  0.0001  0.0000  0.0000 -0.0105
                                            0.0007 -0.0005  0.0001  0.0000  0.0000
                                            0.0000  0.0000  0.0080  0.0010 -0.0006
                                            0.0010
                ( 42.76%)   0.6539*Cl   2 s(  9.33%)p 9.59( 89.47%)d 0.12(  1.08%)
                                                  f 0.01(  0.12%)
                                           -0.0000  0.0007  0.2996 -0.0582 -0.0107
                                           -0.0030 -0.0005 -0.9435  0.0651  0.0130
                                           -0.0022 -0.0000 -0.0113 -0.0049  0.0029
                                           -0.0023  0.0000  0.0000  0.0000  0.0000
                                            0.0000  0.0082 -0.0014 -0.0008  0.0000
                                            0.0000  0.0000  0.0000  0.0000  0.0000
                                            0.0864 -0.0127 -0.0023 -0.0546  0.0081
                                            0.0025  0.0000  0.0000  0.0220 -0.0027
                                            0.0003 -0.0001  0.0000  0.0000  0.0000
                                            0.0000 -0.0269  0.0024 -0.0011  0.0007
     2. (1.94894) BD ( 1) I   3 - H   4  
                ( 78.40%)   0.8855* I   3 s( 11.74%)p 7.50( 88.02%)d 0.02(  0.21%)
                                                  f 0.00(  0.03%)
                                            0.0004  0.3426  0.0004 -0.0061 -0.0008
                                            0.0013  0.0002  0.2170 -0.0032 -0.0013
                                            0.0006  0.0009  0.9125 -0.0173 -0.0067
                                            0.0018  0.0000  0.0000  0.0000  0.0000
                                            0.0000 -0.0000  0.0175  0.0020 -0.0004
                                            0.0000  0.0000  0.0000  0.0000  0.0000
                                            0.0000  0.0000  0.0000 -0.0000 -0.0351
                                           -0.0027  0.0010  0.0000 -0.0237 -0.0024
                                            0.0000  0.0000  0.0000 -0.0026 -0.0005
                                           -0.0107 -0.0019  0.0000  0.0000  0.0000
                                            0.0000 -0.0089 -0.0016 -0.0105 -0.0013
                ( 21.60%)   0.4647* H   4 s( 99.70%)p 0.00(  0.28%)d 0.00(  0.03%)
                                            0.9983 -0.0001  0.0199 -0.0005 -0.0086
                                           -0.0035 -0.0029 -0.0446 -0.0265 -0.0020
                                            0.0000  0.0000  0.0000 -0.0012  0.0067
                                            0.0000  0.0000  0.0000  0.0000  0.0006
                                           -0.0116 -0.0007 -0.0083
     3. (1.99983) CR ( 1) O   1           s(100.00%)p 0.00(  0.00%)
                                            1.0000 -0.0000  0.0000  0.0000  0.0000
                                           -0.0003  0.0000  0.0000  0.0000 -0.0005
                                           -0.0000  0.0000  0.0000  0.0000  0.0000
                                            0.0000  0.0000 -0.0000 -0.0000 -0.0000
                                            0.0000  0.0000  0.0000  0.0000  0.0000
                                            0.0000 -0.0000 -0.0000  0.0000  0.0000
                                            0.0000  0.0000  0.0000  0.0000  0.0000
                                           -0.0000  0.0000 -0.0000  0.0000  0.0000
                                            0.0000  0.0000 -0.0000  0.0000 -0.0000
                                           -0.0000
     4. (2.00000) CR ( 1)Cl   2           s(100.00%)
                                            1.0000  0.0000 -0.0000 -0.0000 -0.0000
                                           -0.0000 -0.0000 -0.0000  0.0000  0.0000
                                           -0.0000  0.0000 -0.0000 -0.0000  0.0000
                                           -0.0000  0.0000  0.0000  0.0000  0.0000
                                            0.0000  0.0000 -0.0000 -0.0000  0.0000
                                            0.0000  0.0000  0.0000  0.0000  0.0000
                                            0.0000 -0.0000 -0.0000 -0.0000  0.0000
                                            0.0000  0.0000  0.0000  0.0000 -0.0000
                                            0.0000 -0.0000  0.0000  0.0000  0.0000
                                            0.0000 -0.0000  0.0000 -0.0000  0.0000
     5. (1.99974) CR ( 2)Cl   2           s(100.00%)p 0.00(  0.00%)
                                            0.0000  1.0000 -0.0004  0.0000  0.0000
                                            0.0000  0.0000  0.0006 -0.0000 -0.0000
                                            0.0000 -0.0000  0.0000  0.0000 -0.0000
                                            0.0000  0.0000  0.0000  0.0000  0.0000
                                            0.0000 -0.0000  0.0000  0.0000  0.0000
                                            0.0000  0.0000  0.0000  0.0000  0.0000
                                           -0.0001  0.0000  0.0000  0.0000 -0.0000
                                           -0.0000  0.0000  0.0000 -0.0000  0.0000
                                           -0.0000  0.0000  0.0000  0.0000  0.0000
                                            0.0000  0.0000 -0.0000  0.0000 -0.0000
     6. (1.99995) CR ( 3)Cl   2           s(  0.00%)p 1.00(100.00%)
                                           -0.0000  0.0000  0.0001 -0.0000 -0.0000
                                           -0.0000  1.0000 -0.0005  0.0000  0.0000
                                           -0.0000  0.0000 -0.0000 -0.0000  0.0000
                                           -0.0000  0.0000  0.0000  0.0000  0.0000
                                            0.0000  0.0000 -0.0000 -0.0000  0.0000
                                            0.0000  0.0000  0.0000  0.0000  0.0000
                                            0.0000 -0.0000 -0.0000 -0.0000  0.0000
                                            0.0000  0.0000  0.0000  0.0000 -0.0000
                                            0.0000 -0.0000  0.0000  0.0000  0.0000
                                            0.0000 -0.0000  0.0000 -0.0000  0.0000
     7. (2.00003) CR ( 4)Cl   2           s(  0.00%)p 1.00(100.00%)
                                            0.0000 -0.0000 -0.0000  0.0000  0.0000
                                           -0.0000  0.0000 -0.0000  0.0000  0.0000
                                           -0.0000  1.0000  0.0001  0.0000  0.0000
                                            0.0000  0.0000  0.0000  0.0000  0.0000
                                            0.0000  0.0000  0.0000  0.0000  0.0000
                                            0.0000  0.0000  0.0000  0.0000  0.0000
                                           -0.0000 -0.0000 -0.0000 -0.0000 -0.0000
                                            0.0000  0.0000  0.0000  0.0000  0.0000
                                           -0.0000  0.0000  0.0000  0.0000  0.0000
                                            0.0000 -0.0000  0.0000  0.0000 -0.0000
     8. (2.00003) CR ( 5)Cl   2           s(  0.00%)p 1.00(100.00%)
                                            0.0000  0.0000  0.0000  0.0000  0.0000
                                            0.0000  0.0000  0.0000  0.0000  0.0000
                                            0.0000  0.0000  0.0000  0.0000  0.0000
                                            0.0000  1.0000  0.0001  0.0000  0.0000
                                           -0.0000  0.0000  0.0000  0.0000  0.0000
                                            0.0000  0.0000  0.0000  0.0000  0.0000
                                            0.0000  0.0000  0.0000  0.0000  0.0000
                                            0.0000 -0.0000  0.0000  0.0000  0.0000
                                            0.0000  0.0000  0.0000 -0.0000  0.0000
                                           -0.0000  0.0000  0.0000  0.0000  0.0000
     9. (1.99927) CR ( 1) I   3           s(100.00%)p 0.00(  0.00%)
                                            1.0000 -0.0007 -0.0000  0.0000  0.0000
                                           -0.0000 -0.0000 -0.0000  0.0000  0.0000
                                           -0.0000 -0.0000 -0.0002  0.0000  0.0000
                                           -0.0000  0.0000  0.0000  0.0000  0.0000
                                            0.0000  0.0000 -0.0000 -0.0000  0.0000
                                            0.0000  0.0000  0.0000  0.0000  0.0000
                                            0.0000  0.0000  0.0000 -0.0000  0.0000
                                            0.0000 -0.0000 -0.0000  0.0000  0.0000
                                           -0.0000  0.0000  0.0000  0.0000  0.0000
                                            0.0000  0.0000  0.0000  0.0000  0.0000
                                            0.0000  0.0000  0.0000  0.0000  0.0000
    10. (1.99988) CR ( 2) I   3           s(  0.00%)p 1.00(100.00%)
                                           -0.0000  0.0000  0.0000  0.0000 -0.0000
                                           -0.0000  1.0000 -0.0007 -0.0000 -0.0000
                                            0.0000 -0.0000 -0.0001  0.0000  0.0000
                                           -0.0000  0.0000  0.0000  0.0000  0.0000
                                            0.0000  0.0000 -0.0000  0.0000  0.0000
                                            0.0000  0.0000  0.0000  0.0000  0.0000
                                            0.0000  0.0000  0.0000  0.0000  0.0000
                                            0.0000  0.0000  0.0000  0.0000  0.0000
                                           -0.0000  0.0000  0.0000  0.0000  0.0000
                                            0.0000  0.0000  0.0000  0.0000  0.0000
                                            0.0000  0.0000  0.0000 -0.0000 -0.0000
    11. (1.99954) CR ( 3) I   3           s(  0.00%)p 1.00(100.00%)
                                           -0.0000  0.0001 -0.0000  0.0000  0.0000
                                           -0.0000 -0.0000 -0.0001  0.0000  0.0000
                                           -0.0000  1.0000 -0.0010  0.0000  0.0000
                                           -0.0000  0.0000  0.0000  0.0000  0.0000
                                            0.0000 -0.0000 -0.0000 -0.0000 -0.0000
                                            0.0000  0.0000  0.0000  0.0000  0.0000
                                            0.0000  0.0000  0.0000  0.0000  0.0000
                                            0.0000 -0.0000  0.0000  0.0000  0.0000
                                            0.0000  0.0000  0.0000  0.0000  0.0000
                                            0.0000  0.0000  0.0000  0.0000  0.0000
                                            0.0000  0.0000  0.0000  0.0000  0.0000
    12. (1.99990) CR ( 4) I   3           s(  0.00%)p 1.00(100.00%)
                                            0.0000  0.0000  0.0000  0.0000  0.0000
                                            0.0000  0.0000  0.0000  0.0000  0.0000
                                            0.0000  0.0000  0.0000  0.0000  0.0000
                                            0.0000  1.0000 -0.0007 -0.0000 -0.0000
                                            0.0000  0.0000  0.0000  0.0000  0.0000
                                            0.0000 -0.0000  0.0000  0.0000  0.0000
                                           -0.0000  0.0000  0.0000  0.0000  0.0000
                                            0.0000  0.0000  0.0000  0.0000  0.0000
                                            0.0000  0.0000  0.0000  0.0000  0.0000
                                            0.0000  0.0000  0.0000  0.0000 -0.0000
                                           -0.0000  0.0000  0.0000  0.0000  0.0000
    13. (1.99662) CR ( 5) I   3           s(  0.00%)p 0.00(  0.00%)d 1.00(100.00%)
                                            0.0000  0.0001 -0.0000  0.0000  0.0000
                                           -0.0000  0.0000  0.0000  0.0000  0.0000
                                           -0.0000 -0.0000 -0.0000  0.0000 -0.0000
                                           -0.0000  0.0000  0.0000  0.0000  0.0000
                                            0.0000  1.0000  0.0000 -0.0000 -0.0000
                                            0.0000  0.0000  0.0000  0.0000  0.0000
                                            0.0000  0.0000  0.0000  0.0000  0.0000
                                           -0.0000 -0.0000  0.0000  0.0000  0.0000
                                            0.0000  0.0000  0.0000 -0.0000 -0.0000
                                            0.0000  0.0000  0.0000  0.0000  0.0000
                                            0.0000 -0.0000 -0.0000  0.0000  0.0000
    14. (1.99679) CR ( 6) I   3           s(  0.00%)p 0.00(  0.00%)d 1.00(100.00%)
                                            0.0000  0.0000  0.0000  0.0000  0.0000
                                            0.0000  0.0000  0.0000  0.0000  0.0000
                                            0.0000  0.0000  0.0000  0.0000  0.0000
                                            0.0000  0.0000  0.0000  0.0000  0.0000
                                           -0.0000  0.0000  0.0000  0.0000  0.0000
                                            1.0000  0.0000 -0.0000 -0.0000 -0.0000
                                            0.0000 -0.0000 -0.0000  0.0000  0.0000
                                            0.0000  0.0000  0.0000  0.0000  0.0000
                                            0.0000 -0.0000 -0.0000  0.0000  0.0000
                                            0.0000  0.0000 -0.0000 -0.0000  0.0000
                                            0.0000  0.0000  0.0000  0.0000  0.0000
    15. (1.99672) CR ( 7) I   3           s(  0.00%)p 0.00(  0.00%)d 1.00(100.00%)
                                            0.0000  0.0000  0.0000  0.0000  0.0000
                                            0.0000  0.0000  0.0000  0.0000  0.0000
                                            0.0000  0.0000  0.0000  0.0000  0.0000
                                            0.0000  0.0000  0.0001  0.0000  0.0000
                                           -0.0000  0.0000  0.0000  0.0000  0.0000
                                           -0.0000  0.0000 -0.0000 -0.0000  1.0000
                                            0.0000 -0.0000 -0.0000  0.0000  0.0000
                                            0.0000  0.0000  0.0000  0.0000  0.0000
                                            0.0000 -0.0000 -0.0000  0.0000  0.0000
                                            0.0000  0.0000 -0.0000 -0.0000  0.0000
                                            0.0000  0.0000  0.0000  0.0000  0.0000
    16. (1.99636) CR ( 8) I   3           s(  0.00%)p 0.00(  0.00%)d 1.00(100.00%)
                                            0.0000  0.0001 -0.0000  0.0000 -0.0000
                                           -0.0000 -0.0000 -0.0000 -0.0000 -0.0000
                                           -0.0000 -0.0000 -0.0000  0.0000  0.0000
                                           -0.0000 -0.0000 -0.0000 -0.0000 -0.0000
                                           -0.0000 -0.0000 -0.0000  0.0000  0.0000
                                           -0.0000 -0.0000 -0.0000 -0.0000 -0.0000
                                           -0.0000 -0.0000 -0.0000 -1.0000  0.0000
                                            0.0000  0.0000  0.0000  0.0000  0.0000
                                            0.0000 -0.0000 -0.0000  0.0000  0.0000
                                            0.0000  0.0000 -0.0000 -0.0000 -0.0000
                                           -0.0000  0.0000  0.0000  0.0000 -0.0000
    17. (1.99662) CR ( 9) I   3           s(  0.00%)p 0.00(  0.00%)d 1.00(100.00%)
                                           -0.0000 -0.0001  0.0000 -0.0000  0.0000
                                            0.0000  0.0000  0.0000 -0.0000  0.0000
                                            0.0000  0.0000  0.0000 -0.0000 -0.0000
                                            0.0000  0.0000  0.0000  0.0000  0.0000
                                            0.0000  0.0000  0.0000  0.0000  0.0000
                                            0.0000  0.0000  0.0000  0.0000  0.0000
                                            0.0000  0.0000  0.0000 -0.0000 -0.0000
                                           -0.0000  0.0000  1.0000 -0.0000 -0.0000
                                           -0.0000  0.0000  0.0000 -0.0000 -0.0000
                                           -0.0000 -0.0000  0.0000  0.0000  0.0000
                                            0.0000 -0.0000 -0.0000 -0.0000 -0.0000
    18. (1.96673) LP ( 1) O   1           s( 73.21%)p 0.37( 26.75%)d 0.00(  0.04%)
                                                  f 0.00(  0.00%)
                                            0.0002  0.8555  0.0116 -0.0074 -0.0009
                                           -0.2569  0.0019 -0.0043  0.0001  0.4488
                                            0.0060  0.0039  0.0004  0.0000  0.0000
                                            0.0000  0.0000  0.0190  0.0030 -0.0016
                                            0.0000  0.0000  0.0000  0.0000  0.0000
                                            0.0000  0.0063  0.0004 -0.0022  0.0050
                                            0.0001  0.0013  0.0000  0.0000 -0.0005
                                            0.0006 -0.0012 -0.0001  0.0000  0.0000
                                            0.0000  0.0000  0.0037 -0.0023  0.0045
                                           -0.0010
    19. (1.94773) LP ( 2) O   1           s(  0.00%)p 1.00( 99.85%)d 0.00(  0.14%)
                                                  f 0.00(  0.01%)
                                            0.0000  0.0000  0.0000  0.0000  0.0000
                                            0.0000  0.0000  0.0000  0.0000  0.0000
                                            0.0000  0.0000  0.0000  0.9990  0.0167
                                            0.0040  0.0134  0.0000  0.0000  0.0000
                                            0.0323  0.0044 -0.0024 -0.0150  0.0036
                                            0.0086  0.0000  0.0000  0.0000  0.0000
                                            0.0000  0.0000 -0.0086  0.0001  0.0000
                                            0.0000  0.0000  0.0000  0.0074 -0.0021
                                            0.0001  0.0010  0.0000  0.0000  0.0000
                                            0.0000
    20. (1.68625) LP ( 3) O   1           s( 18.91%)p 4.28( 80.88%)d 0.01(  0.20%)
                                                  f 0.00(  0.01%)
                                           -0.0005  0.4347 -0.0029  0.0104  0.0025
                                           -0.1139  0.0074  0.0013  0.0056 -0.8920
                                           -0.0123  0.0004  0.0047 -0.0000 -0.0000
                                           -0.0000 -0.0000 -0.0185 -0.0041 -0.0007
                                           -0.0000 -0.0000 -0.0000 -0.0000 -0.0000
                                           -0.0000 -0.0333 -0.0047  0.0015 -0.0216
                                           -0.0017  0.0037 -0.0000 -0.0000  0.0005
                                            0.0004  0.0084 -0.0020 -0.0000 -0.0000
                                           -0.0000 -0.0000  0.0028 -0.0001 -0.0029
                                           -0.0006
    21. (1.97333) LP ( 1)Cl   2           s( 90.79%)p 0.10(  9.19%)d 0.00(  0.03%)
                                                  f 0.00(  0.00%)
                                            0.0000  0.0003  0.9528  0.0074  0.0012
                                            0.0005  0.0001  0.3002 -0.0062 -0.0032
                                            0.0012  0.0000 -0.0409  0.0007 -0.0000
                                           -0.0005  0.0000  0.0000  0.0000  0.0000
                                            0.0000 -0.0004 -0.0004 -0.0003  0.0000
                                            0.0000  0.0000  0.0000  0.0000  0.0000
                                           -0.0138 -0.0001  0.0006  0.0084  0.0006
                                           -0.0000  0.0000  0.0000 -0.0025 -0.0003
                                            0.0001 -0.0000  0.0000  0.0000  0.0000
                                            0.0000  0.0038 -0.0001 -0.0003  0.0001
    22. (1.95495) LP ( 2)Cl   2           s(  0.00%)p 1.00( 99.94%)d 0.00(  0.06%)
                                                  f 0.00(  0.01%)
                                            0.0000  0.0000  0.0000  0.0000  0.0000
                                            0.0000  0.0000  0.0000  0.0000  0.0000
                                            0.0000  0.0000  0.0000  0.0000  0.0000
                                            0.0000 -0.0001  0.9996  0.0148  0.0048
                                           -0.0020  0.0000  0.0000  0.0000  0.0110
                                            0.0194  0.0077  0.0018  0.0014  0.0001
                                            0.0000  0.0000  0.0000  0.0000  0.0000
                                            0.0000 -0.0056  0.0016  0.0000  0.0000
                                            0.0000  0.0000  0.0064 -0.0013  0.0006
                                           -0.0005  0.0000  0.0000  0.0000  0.0000
    23. (1.95269) LP ( 3)Cl   2           s(  0.18%)p99.99( 99.77%)d 0.22(  0.04%)
                                                  f 0.04(  0.01%)
                                            0.0000 -0.0000  0.0425  0.0035  0.0042
                                           -0.0028  0.0000  0.0009  0.0009  0.0001
                                           -0.0003 -0.0001  0.9987  0.0143  0.0016
                                            0.0006  0.0000  0.0000  0.0000  0.0000
                                            0.0000  0.0036  0.0174  0.0074  0.0000
                                            0.0000  0.0000  0.0000  0.0000  0.0000
                                           -0.0049 -0.0036 -0.0023  0.0005 -0.0013
                                            0.0002  0.0000  0.0000  0.0001  0.0002
                                           -0.0026  0.0006  0.0000  0.0000  0.0000
                                            0.0000 -0.0010  0.0004  0.0084 -0.0018
    24. (1.97525) LP ( 1) I   3           s( 88.25%)p 0.13( 11.75%)d 0.00(  0.00%)
                                                  f 0.00(  0.00%)
                                            0.0006  0.9394 -0.0002  0.0024 -0.0001
                                           -0.0003 -0.0001 -0.0863  0.0005 -0.0000
                                           -0.0002 -0.0004 -0.3317  0.0042  0.0004
                                           -0.0006 -0.0000 -0.0000 -0.0000 -0.0000
                                           -0.0000 -0.0001 -0.0020 -0.0002  0.0000
                                           -0.0000 -0.0000 -0.0000 -0.0000 -0.0000
                                           -0.0000 -0.0000 -0.0000  0.0001  0.0038
                                            0.0003 -0.0002  0.0001  0.0028  0.0004
                                            0.0001 -0.0000 -0.0000  0.0003  0.0001
                                            0.0010  0.0002 -0.0000 -0.0000 -0.0000
                                           -0.0000  0.0009  0.0001  0.0010  0.0001
    25. (1.95222) LP ( 2) I   3           s(  0.00%)p 1.00( 99.99%)d 0.00(  0.01%)
                                                  f 0.00(  0.00%)
                                            0.0000  0.0000  0.0000  0.0000  0.0000
                                            0.0000  0.0000  0.0000  0.0000  0.0000
                                            0.0000  0.0000  0.0000  0.0000  0.0000
                                            0.0000  0.0007  0.9999  0.0061  0.0023
                                           -0.0006  0.0000  0.0000  0.0000  0.0000
                                           -0.0000  0.0007 -0.0010 -0.0018 -0.0001
                                            0.0068 -0.0017 -0.0055  0.0000  0.0000
                                            0.0000  0.0000  0.0000  0.0000  0.0000
                                            0.0000 -0.0038 -0.0015  0.0000  0.0000
                                            0.0000  0.0000 -0.0045 -0.0016  0.0021
                                            0.0008  0.0000  0.0000  0.0000  0.0000
    26. (1.95196) LP ( 3) I   3           s(  0.00%)p 1.00( 99.98%)d 0.00(  0.01%)
                                                  f 0.00(  0.00%)
                                            0.0000  0.0067 -0.0002 -0.0013  0.0006
                                           -0.0002  0.0007  0.9722  0.0057  0.0022
                                           -0.0008 -0.0002 -0.2338 -0.0017 -0.0009
                                            0.0002  0.0000  0.0000  0.0000  0.0000
                                            0.0000 -0.0001  0.0072 -0.0017 -0.0048
                                            0.0000  0.0000  0.0000  0.0000  0.0000
                                            0.0000  0.0000  0.0000 -0.0000  0.0016
                                           -0.0019 -0.0036  0.0000  0.0005  0.0004
                                            0.0004  0.0000  0.0000 -0.0015 -0.0005
                                            0.0003  0.0001  0.0000  0.0000  0.0000
                                            0.0000 -0.0048 -0.0017  0.0035  0.0011
    27. (0.02286) RY*( 1) O   1           s(  0.00%)p 1.00( 99.23%)d 0.01(  0.73%)
                                                  f 0.00(  0.04%)
                                            0.0000  0.0000  0.0000  0.0000  0.0000
                                            0.0000  0.0000  0.0000  0.0000  0.0000
                                            0.0000  0.0000  0.0000 -0.0196  0.9954
                                           -0.0301 -0.0092  0.0000  0.0000  0.0000
                                            0.0657  0.0255  0.0045 -0.0470 -0.0025
                                            0.0098  0.0000  0.0000  0.0000  0.0000
                                            0.0000  0.0000 -0.0125  0.0094  0.0000
[...]
                                           -0.0036 -0.0274  0.0292 -0.0067 -0.0849
                                            0.7665 -0.0650  0.0458 -0.2288  0.1719
                                            0.0000  0.0000  0.0000 -0.3932  0.0067
                                            0.0000  0.0000  0.0000  0.0000 -0.3810
                                           -0.0288  0.0978 -0.0718
   158. (0.00034) RY*( 8) H   4           s( 12.58%)p 0.63(  7.92%)d 6.32( 79.50%)
                                           -0.0063 -0.0499  0.2844  0.2059  0.1046
                                            0.1685  0.1941 -0.0466 -0.0002 -0.0046
                                            0.0000  0.0000  0.0000  0.7531  0.0732
                                            0.0000  0.0000  0.0000  0.0000 -0.4374
                                            0.0040  0.0376 -0.1724
   159. (0.00033) RY*( 9) H   4           s(  0.00%)p 1.00(  0.13%)d99.99( 99.87%)
                                            0.0000  0.0000  0.0000  0.0000  0.0000
                                            0.0000  0.0000  0.0000  0.0000  0.0000
                                            0.0221 -0.0279  0.0081  0.0000  0.0000
                                            0.9544 -0.2808 -0.0620  0.0708  0.0000
                                            0.0000  0.0000  0.0000
   160. (0.00034) RY*(10) H   4           s(  1.88%)p10.98( 20.66%)d41.18( 77.46%)
                                           -0.0004 -0.0051  0.0698  0.1179  0.0148
                                            0.4278  0.0627  0.0091 -0.0439 -0.1320
                                            0.0000  0.0000  0.0000  0.1558  0.0989
                                            0.0000  0.0000  0.0000  0.0000  0.4406
                                           -0.0304 -0.7095  0.2054
   161. (0.00028) RY*(11) H   4           s(  0.00%)p 1.00( 60.09%)d 0.66( 39.91%)
                                            0.0000  0.0000  0.0000  0.0000  0.0000
                                            0.0000  0.0000  0.0000  0.0000  0.0000
                                            0.0352  0.7640  0.1261  0.0000  0.0000
                                            0.0709  0.0499  0.6226  0.0631  0.0000
                                            0.0000  0.0000  0.0000
   162. (0.00028) RY*(12) H   4           s(  6.64%)p 2.57( 17.06%)d11.49( 76.30%)
                                           -0.0066 -0.0191  0.1580  0.2026 -0.1071
                                           -0.3615 -0.1188 -0.0250  0.0948  0.0686
                                           -0.0000 -0.0000 -0.0000 -0.2816  0.0291
                                           -0.0000 -0.0000 -0.0000 -0.0000 -0.5511
                                           -0.1748 -0.5903  0.0086
   163. (0.00025) RY*(13) H   4           s( 37.49%)p 1.10( 41.22%)d 0.57( 21.29%)
                                            0.0066  0.0620  0.2383  0.5606  0.0022
                                            0.0846 -0.0785 -0.0003  0.2529 -0.5787
                                           -0.0000 -0.0000 -0.0000 -0.2075 -0.1523
                                           -0.0000 -0.0000 -0.0000 -0.0000 -0.0108
                                            0.2703  0.2150  0.1650
   164. (0.00015) RY*(14) H   4           s( 51.90%)p 0.80( 41.48%)d 0.13(  6.63%)
                                            0.0001  0.0173  0.6808 -0.2350  0.0231
                                            0.0443  0.2740 -0.0249  0.4642  0.3479
                                            0.0000  0.0000  0.0000 -0.1809  0.0140
                                            0.0000  0.0000  0.0000  0.0000  0.1557
                                            0.0733  0.0510  0.0337
   165. (0.00011) RY*(15) H   4           s( 48.66%)p 0.91( 44.51%)d 0.14(  6.83%)
                                           -0.0015 -0.0125 -0.0865  0.6921  0.0053
                                           -0.0656  0.0378 -0.0641 -0.1203  0.6486
                                            0.0000  0.0000  0.0000 -0.0083 -0.0797
                                            0.0000  0.0000  0.0000  0.0000  0.2182
                                            0.0154  0.0978  0.0671
   166. (0.00007) RY*(16) H   4           s(  0.00%)p 1.00(  0.34%)d99.99( 99.66%)
   167. (0.00008) RY*(17) H   4           s(  0.00%)p 1.00( 83.53%)d 0.20( 16.47%)
   168. (0.00007) RY*(18) H   4           s(  1.81%)p 4.93(  8.92%)d49.33( 89.27%)
   169. (0.00005) RY*(19) H   4           s(  4.51%)p 1.11(  5.00%)d20.05( 90.48%)
   170. (0.00005) RY*(20) H   4           s(  3.41%)p23.59( 80.47%)d 4.72( 16.11%)
   171. (0.00003) RY*(21) H   4           s(  0.00%)p 1.00(  0.39%)d99.99( 99.61%)
   172. (0.00003) RY*(22) H   4           s(  0.34%)p 3.79(  1.30%)d99.99( 98.36%)
   173. (0.05769) BD*( 1) O   1 -Cl   2  
                ( 42.76%)   0.6539* O   1 s(  8.22%)p11.10( 91.27%)d 0.06(  0.49%)
                                                  f 0.00(  0.02%)
                                           -0.0003 -0.2802  0.0588 -0.0156  0.0011
                                           -0.9537  0.0455  0.0110  0.0173 -0.0140
                                            0.0197  0.0034 -0.0027 -0.0000 -0.0000
                                           -0.0000 -0.0000  0.0123  0.0018 -0.0005
                                           -0.0000 -0.0000 -0.0000 -0.0000 -0.0000
                                           -0.0000 -0.0570 -0.0039 -0.0013  0.0378
                                            0.0030 -0.0001 -0.0000 -0.0000  0.0105
                                           -0.0007  0.0005 -0.0001 -0.0000 -0.0000
                                           -0.0000 -0.0000 -0.0080 -0.0010  0.0006
                                           -0.0010
                ( 57.24%)  -0.7565*Cl   2 s(  9.33%)p 9.59( 89.47%)d 0.12(  1.08%)
                                                  f 0.01(  0.12%)
                                            0.0000 -0.0007 -0.2996  0.0582  0.0107
                                            0.0030  0.0005  0.9435 -0.0651 -0.0130
                                            0.0022  0.0000  0.0113  0.0049 -0.0029
                                            0.0023 -0.0000 -0.0000 -0.0000 -0.0000
                                           -0.0000 -0.0082  0.0014  0.0008 -0.0000
                                           -0.0000 -0.0000 -0.0000 -0.0000 -0.0000
                                           -0.0864  0.0127  0.0023  0.0546 -0.0081
                                           -0.0025 -0.0000 -0.0000 -0.0220  0.0027
                                           -0.0003  0.0001 -0.0000 -0.0000 -0.0000
                                           -0.0000  0.0269 -0.0024  0.0011 -0.0007
   174. (0.30392) BD*( 1) I   3 - H   4  
                ( 21.60%)   0.4647* I   3 s( 11.74%)p 7.50( 88.02%)d 0.02(  0.21%)
                                                  f 0.00(  0.03%)
                                           -0.0004 -0.3426 -0.0004  0.0061  0.0008
                                           -0.0013 -0.0002 -0.2170  0.0032  0.0013
                                           -0.0006 -0.0009 -0.9125  0.0173  0.0067
                                           -0.0018 -0.0000 -0.0000 -0.0000 -0.0000
                                           -0.0000  0.0000 -0.0175 -0.0020  0.0004
                                           -0.0000 -0.0000 -0.0000 -0.0000 -0.0000
                                           -0.0000 -0.0000 -0.0000  0.0000  0.0351
                                            0.0027 -0.0010 -0.0000  0.0237  0.0024
                                           -0.0000 -0.0000 -0.0000  0.0026  0.0005
                                            0.0107  0.0019 -0.0000 -0.0000 -0.0000
                                           -0.0000  0.0089  0.0016  0.0105  0.0013
                ( 78.40%)  -0.8855* H   4 s( 99.70%)p 0.00(  0.28%)d 0.00(  0.03%)
                                           -0.9983  0.0001 -0.0199  0.0005  0.0086
                                            0.0035  0.0029  0.0446  0.0265  0.0020
                                           -0.0000 -0.0000 -0.0000  0.0012 -0.0067
                                           -0.0000 -0.0000 -0.0000 -0.0000 -0.0006
                                            0.0116  0.0007  0.0083


 NHO Directionality and "Bond Bending" (deviations from line of nuclear centers)

         [Thresholds for printing:  angular deviation  >  1.0 degree]
                                    hybrid p-character > 25.0%
                                    orbital occupancy  >  0.10e

                                Line of Centers        Hybrid 1              Hybrid 2
                                ---------------  -------------------   ------------------
                NBO               Theta   Phi    Theta   Phi    Dev    Theta   Phi    Dev
 ========================================================================================
     1. BD (   1) O   1 -Cl   2    90.0    0.0     --     --    --      90.0  181.0   1.0
    18. LP (   1) O   1             --     --     90.0  119.5   --       --     --    --
    19. LP (   2) O   1             --     --      0.0    0.0   --       --     --    --
    20. LP (   3) O   1             --     --     90.0  263.7   --       --     --    --
    22. LP (   2)Cl   2             --     --      0.0    0.0   --       --     --    --
    23. LP (   3)Cl   2             --     --     90.0   89.9   --       --     --    --
    25. LP (   2) I   3             --     --      0.0    0.0   --       --     --    --
    26. LP (   3) I   3             --     --     90.0  346.4   --       --     --    --


 Natural Bond Orbitals (Summary):

           NBO                  Occupancy  
 -----------------------------------------------
 Molecular unit  1  (OCl)
     1. BD (   1) O   1 -Cl   2          1.93422
     3. CR (   1) O   1                  1.99983
     4. CR (   1)Cl   2                  2.00000
     5. CR (   2)Cl   2                  1.99974
     6. CR (   3)Cl   2                  1.99995
     7. CR (   4)Cl   2                  2.00003
     8. CR (   5)Cl   2                  2.00003
    18. LP (   1) O   1                  1.96673
    19. LP (   2) O   1                  1.94773
    20. LP (   3) O   1                  1.68625
    21. LP (   1)Cl   2                  1.97333
    22. LP (   2)Cl   2                  1.95495
    23. LP (   3)Cl   2                  1.95269
    27. RY*(   1) O   1                  0.02286
    28. RY*(   2) O   1                  0.01873
    29. RY*(   3) O   1                  0.00880
    30. RY*(   4) O   1                  0.00697
    31. RY*(   5) O   1                  0.00680
    32. RY*(   6) O   1                  0.00633
    33. RY*(   7) O   1                  0.00578
    34. RY*(   8) O   1                  0.00507
    35. RY*(   9) O   1                  0.00224
    36. RY*(  10) O   1                  0.00071
    37. RY*(  11) O   1                  0.00070
    38. RY*(  12) O   1                  0.00070
    39. RY*(  13) O   1                  0.00061
    40. RY*(  14) O   1                  0.00058
    41. RY*(  15) O   1                  0.00055
    42. RY*(  16) O   1                  0.00051
    43. RY*(  17) O   1                  0.00049
    44. RY*(  18) O   1                  0.00050
    45. RY*(  19) O   1                  0.00048
    46. RY*(  20) O   1                  0.00047
    47. RY*(  21) O   1                  0.00046
    48. RY*(  22) O   1                  0.00047
    49. RY*(  23) O   1                  0.00042
    50. RY*(  24) O   1                  0.00038
    51. RY*(  25) O   1                  0.00030
    52. RY*(  26) O   1                  0.00018
    53. RY*(  27) O   1                  0.00013
    54. RY*(  28) O   1                  0.00012
    55. RY*(  29) O   1                  0.00012
    56. RY*(  30) O   1                  0.00009
    57. RY*(  31) O   1                  0.00010
    58. RY*(  32) O   1                  0.00009
    59. RY*(  33) O   1                  0.00009
    60. RY*(  34) O   1                  0.00009
    61. RY*(  35) O   1                  0.00009
    62. RY*(  36) O   1                  0.00007
    63. RY*(  37) O   1                  0.00008
    64. RY*(  38) O   1                  0.00005
    65. RY*(  39) O   1                  0.00006
    66. RY*(  40) O   1                  0.00003
    67. RY*(  41) O   1                 -0.00019
    68. RY*(   1)Cl   2                  0.02468
    69. RY*(   2)Cl   2                  0.02085
    70. RY*(   3)Cl   2                  0.01706
    71. RY*(   4)Cl   2                  0.01702
    72. RY*(   5)Cl   2                  0.01285
    73. RY*(   6)Cl   2                  0.00986
    74. RY*(   7)Cl   2                  0.00958
    75. RY*(   8)Cl   2                  0.00674
    76. RY*(   9)Cl   2                  0.00195
    77. RY*(  10)Cl   2                  0.00127
    78. RY*(  11)Cl   2                  0.00127
    79. RY*(  12)Cl   2                  0.00122
    80. RY*(  13)Cl   2                  0.00122
    81. RY*(  14)Cl   2                  0.00119
    82. RY*(  15)Cl   2                  0.00115
    83. RY*(  16)Cl   2                  0.00101
    84. RY*(  17)Cl   2                  0.00081
    85. RY*(  18)Cl   2                  0.00079
    86. RY*(  19)Cl   2                  0.00070
    87. RY*(  20)Cl   2                  0.00065
    88. RY*(  21)Cl   2                  0.00050
    89. RY*(  22)Cl   2                  0.00040
    90. RY*(  23)Cl   2                  0.00037
    91. RY*(  24)Cl   2                  0.00034
    92. RY*(  25)Cl   2                  0.00019
    93. RY*(  26)Cl   2                  0.00017
    94. RY*(  27)Cl   2                  0.00017
    95. RY*(  28)Cl   2                  0.00015
    96. RY*(  29)Cl   2                  0.00013
    97. RY*(  30)Cl   2                  0.00013
    98. RY*(  31)Cl   2                  0.00013
    99. RY*(  32)Cl   2                  0.00012
   100. RY*(  33)Cl   2                  0.00010
   101. RY*(  34)Cl   2                  0.00010
   102. RY*(  35)Cl   2                  0.00010
   103. RY*(  36)Cl   2                  0.00009
   104. RY*(  37)Cl   2                  0.00009
   105. RY*(  38)Cl   2                  0.00005
   106. RY*(  39)Cl   2                  0.00005
   107. RY*(  40)Cl   2                  0.00003
   108. RY*(  41)Cl   2                  0.00001
   173. BD*(   1) O   1 -Cl   2          0.05769
       -------------------------------
              Total Lewis   25.41548  ( 98.8869%)
        Valence non-Lewis    0.05769  (  0.2244%)
        Rydberg non-Lewis    0.22841  (  0.8887%)
       -------------------------------
            Total unit  1   25.70157  (100.0000%)
           Charge unit  1   -0.70157

 Molecular unit  2  (HI)
     2. BD (   1) I   3 - H   4          1.94894
     9. CR (   1) I   3                  1.99927
    10. CR (   2) I   3                  1.99988
    11. CR (   3) I   3                  1.99954
    12. CR (   4) I   3                  1.99990
    13. CR (   5) I   3                  1.99662
    14. CR (   6) I   3                  1.99679
    15. CR (   7) I   3                  1.99672
    16. CR (   8) I   3                  1.99636
    17. CR (   9) I   3                  1.99662
    24. LP (   1) I   3                  1.97525
    25. LP (   2) I   3                  1.95222
    26. LP (   3) I   3                  1.95196
   109. RY*(   1) I   3                  0.01950
   110. RY*(   2) I   3                  0.01950
   111. RY*(   3) I   3                  0.01899
   112. RY*(   4) I   3                  0.01885
   113. RY*(   5) I   3                  0.01777
   114. RY*(   6) I   3                  0.00961
   115. RY*(   7) I   3                  0.00957
   116. RY*(   8) I   3                  0.00774
   117. RY*(   9) I   3                  0.00273
   118. RY*(  10) I   3                  0.00273
   119. RY*(  11) I   3                  0.00269
   120. RY*(  12) I   3                  0.00269
   121. RY*(  13) I   3                  0.00262
   122. RY*(  14) I   3                  0.00257
   123. RY*(  15) I   3                  0.00258
   124. RY*(  16) I   3                  0.00162
   125. RY*(  17) I   3                  0.00156
   126. RY*(  18) I   3                  0.00156
   127. RY*(  19) I   3                  0.00114
   128. RY*(  20) I   3                  0.00109
   129. RY*(  21) I   3                  0.00102
   130. RY*(  22) I   3                  0.00066
   131. RY*(  23) I   3                  0.00066
   132. RY*(  24) I   3                  0.00054
   133. RY*(  25) I   3                  0.00045
   134. RY*(  26) I   3                  0.00042
   135. RY*(  27) I   3                  0.00040
   136. RY*(  28) I   3                  0.00040
   137. RY*(  29) I   3                  0.00039
   138. RY*(  30) I   3                  0.00037
   139. RY*(  31) I   3                  0.00033
   140. RY*(  32) I   3                  0.00025
   141. RY*(  33) I   3                  0.00020
   142. RY*(  34) I   3                  0.00018
   143. RY*(  35) I   3                  0.00013
   144. RY*(  36) I   3                  0.00013
   145. RY*(  37) I   3                  0.00012
   146. RY*(  38) I   3                  0.00010
   147. RY*(  39) I   3                  0.00008
   148. RY*(  40) I   3                  0.00007
   149. RY*(  41) I   3                  0.00005
   150. RY*(  42) I   3                  0.00001
   151. RY*(   1) H   4                  0.00677
   152. RY*(   2) H   4                  0.00651
   153. RY*(   3) H   4                  0.00571
   154. RY*(   4) H   4                  0.00464
   155. RY*(   5) H   4                  0.00308
   156. RY*(   6) H   4                  0.00081
   157. RY*(   7) H   4                  0.00040
   158. RY*(   8) H   4                  0.00034
   159. RY*(   9) H   4                  0.00033
   160. RY*(  10) H   4                  0.00034
   161. RY*(  11) H   4                  0.00028
   162. RY*(  12) H   4                  0.00028
   163. RY*(  13) H   4                  0.00025
   164. RY*(  14) H   4                  0.00015
   165. RY*(  15) H   4                  0.00011
   166. RY*(  16) H   4                  0.00007
   167. RY*(  17) H   4                  0.00008
   168. RY*(  18) H   4                  0.00007
   169. RY*(  19) H   4                  0.00005
   170. RY*(  20) H   4                  0.00005
   171. RY*(  21) H   4                  0.00003
   172. RY*(  22) H   4                  0.00003
   174. BD*(   1) I   3 - H   4          0.30392
       -------------------------------
              Total Lewis   53.81007  ( 99.1006%)
        Valence non-Lewis    0.30392  (  0.5597%)
        Rydberg non-Lewis    0.18444  (  0.3397%)
       -------------------------------
            Total unit  2   54.29843  (100.0000%)
           Charge unit  2   -0.29843
 Leave Link  607 at Tue Oct 12 15:37:27 2021, MaxMem=  1048576000 cpu:        10.5
 (Enter /usr/local/gaussian/g09/l9999.exe)
 1\1\GINC-KRYPTON\SP\RMP2-FC\Gen\Cl1H1I1O1(1-)\CGAVINH\12-Oct-2021\0\\#
 p pop=NBO SP NoSymm mp2/gen Pseudo=read density=current\\title\\-1,1\O
 \X,1,10.\Cl,1,1.68652173,2,90.\I,1,3.31229946,2,90.,3,103.24540347,0\H
 ,1,1.35,2,90.,3,103.24540347,0\\Version=ES64L-G09RevE.01\HF=-829.64099
 35\MP2=-830.3418923\RMSD=8.281e-09\Dipole=0.6616819,0.3243834,0.\Quadr
 upole=5.7688261,-13.9378083,8.1689821,-5.5017486,0.,0.\PG=CS [SG(Cl1H1
 I1O1)]\\@


 LEARN FROM YESTERDAY,
 LIVE FOR TODAY,
 LOOK TO TOMORROW,
 REST THIS AFTERNOON.

           -- SNOOPY
 Job cpu time:       0 days  0 hours  2 minutes 39.2 seconds.
 File lengths (MBytes):  RWF=     13 Int=      0 D2E=      0 Chk=      3 Scr=      1
 Normal termination of Gaussian 09 at Tue Oct 12 15:37:27 2021.
