 Entering Gaussian System, Link 0=g09
 Input=ihocl_rOH_150_sp.gjf
 Output=ihocl_rOH_150_sp.log
 Initial command:
 /usr/local/gaussian/g09/l1.exe "/scratch/Gau-27793.inp" -scrdir="/scratch/"
 Entering Link 1 = /usr/local/gaussian/g09/l1.exe PID=     27794.
  
 Copyright (c) 1988,1990,1992,1993,1995,1998,2003,2009,2015,
            Gaussian, Inc.  All Rights Reserved.
  
 This is part of the Gaussian(R) 09 program.  It is based on
 the Gaussian(R) 03 system (copyright 2003, Gaussian, Inc.),
 the Gaussian(R) 98 system (copyright 1998, Gaussian, Inc.),
 the Gaussian(R) 94 system (copyright 1995, Gaussian, Inc.),
 the Gaussian 92(TM) system (copyright 1992, Gaussian, Inc.),
 the Gaussian 90(TM) system (copyright 1990, Gaussian, Inc.),
 the Gaussian 88(TM) system (copyright 1988, Gaussian, Inc.),
 the Gaussian 86(TM) system (copyright 1986, Carnegie Mellon
 University), and the Gaussian 82(TM) system (copyright 1983,
 Carnegie Mellon University). Gaussian is a federally registered
 trademark of Gaussian, Inc.
  
 This software contains proprietary and confidential information,
 including trade secrets, belonging to Gaussian, Inc.
  
 This software is provided under written license and may be
 used, copied, transmitted, or stored only in accord with that
 written license.
  
 The following legend is applicable only to US Government
 contracts under FAR:
  
                    RESTRICTED RIGHTS LEGEND
  
 Use, reproduction and disclosure by the US Government is
 subject to restrictions as set forth in subparagraphs (a)
 and (c) of the Commercial Computer Software - Restricted
 Rights clause in FAR 52.227-19.
  
 Gaussian, Inc.
 340 Quinnipiac St., Bldg. 40, Wallingford CT 06492
  
  
 ---------------------------------------------------------------
 Warning -- This program may not be used in any manner that
 competes with the business of Gaussian, Inc. or will provide
 assistance to any competitor of Gaussian, Inc.  The licensee
 of this program is prohibited from giving any competitor of
 Gaussian, Inc. access to this program.  By using this program,
 the user acknowledges that Gaussian, Inc. is engaged in the
 business of creating and licensing software in the field of
 computational chemistry and represents and warrants to the
 licensee that it is not a competitor of Gaussian, Inc. and that
 it will not use this program in any manner prohibited above.
 ---------------------------------------------------------------
  

 Cite this work as:
 Gaussian 09, Revision E.01,
 M. J. Frisch, G. W. Trucks, H. B. Schlegel, G. E. Scuseria, 
 M. A. Robb, J. R. Cheeseman, G. Scalmani, V. Barone, B. Mennucci, 
 G. A. Petersson, H. Nakatsuji, M. Caricato, X. Li, H. P. Hratchian, 
 A. F. Izmaylov, J. Bloino, G. Zheng, J. L. Sonnenberg, M. Hada, 
 M. Ehara, K. Toyota, R. Fukuda, J. Hasegawa, M. Ishida, T. Nakajima, 
 Y. Honda, O. Kitao, H. Nakai, T. Vreven, J. A. Montgomery, Jr., 
 J. E. Peralta, F. Ogliaro, M. Bearpark, J. J. Heyd, E. Brothers, 
 K. N. Kudin, V. N. Staroverov, T. Keith, R. Kobayashi, J. Normand, 
 K. Raghavachari, A. Rendell, J. C. Burant, S. S. Iyengar, J. Tomasi, 
 M. Cossi, N. Rega, J. M. Millam, M. Klene, J. E. Knox, J. B. Cross, 
 V. Bakken, C. Adamo, J. Jaramillo, R. Gomperts, R. E. Stratmann, 
 O. Yazyev, A. J. Austin, R. Cammi, C. Pomelli, J. W. Ochterski, 
 R. L. Martin, K. Morokuma, V. G. Zakrzewski, G. A. Voth, 
 P. Salvador, J. J. Dannenberg, S. Dapprich, A. D. Daniels, 
 O. Farkas, J. B. Foresman, J. V. Ortiz, J. Cioslowski, 
 and D. J. Fox, Gaussian, Inc., Wallingford CT, 2013.
 
 ******************************************
 Gaussian 09:  ES64L-G09RevE.01 30-Nov-2015
                12-Oct-2021 
 ******************************************
 %nproc=12
 Will use up to   12 processors via shared memory.
 %mem=8000MB
 %chk=/home/netid.washington.edu/cgavinh/mccoy_hocl/rOH_s_oop_0/ihocl/ihocl_rOH_1
 50_sp.chk
 --------------------------------------------------------
 #p pop=NBO SP NoSymm mp2/gen Pseudo=read density=current
 --------------------------------------------------------
 1/30=1,38=1/1;
 2/12=2,15=1,17=6,18=5,40=1/2;
 3/5=7,11=9,16=1,17=8,25=1,30=1,71=1/1,2,3;
 4//1;
 5/5=2,38=5/2;
 8/6=4,10=1/1;
 9/15=1,16=-3/6;
 10/5=1,13=10,31=1/2;
 6/7=2,8=2,9=2,10=2,22=-1,40=1/1,7;
 99/5=1,9=1/99;
 Leave Link    1 at Tue Oct 12 15:38:02 2021, MaxMem=  1048576000 cpu:         0.2
 (Enter /usr/local/gaussian/g09/l101.exe)
 -----
 title
 -----
 Symbolic Z-matrix:
 Charge = -1 Multiplicity = 1
 O
 X                    1     10. 
 Cl                   1    r1       2     90. 
 I                    1    r2       2     90.      3    a1       0
 H                    1    r3       2    oop      3    a1       0
       Variables:
  r1                    1.68652                  
  r2                    3.3123                   
  r3                    1.5                      
  a1                  103.2454                   
  OOP                  90.                       
 
 NAtoms=      4 NQM=        4 NQMF=       0 NMMI=      0 NMMIF=      0
                NMic=       0 NMicF=      0.
                    Isotopes and Nuclear Properties:
 (Nuclear quadrupole moments (NQMom) in fm**2, nuclear magnetic moments (NMagM)
  in nuclear magnetons)

  Atom         1           2           3           4
 IAtWgt=          16          35         127           1
 AtmWgt=  15.9949146  34.9688527 126.9004000   1.0078250
 NucSpn=           0           3           5           1
 AtZEff=   0.0000000   0.0000000   0.0000000   0.0000000
 NQMom=    0.0000000  -8.1650000 -71.0000000   0.0000000
 NMagM=    0.0000000   0.8218740   2.8132800   2.7928460
 AtZNuc=   8.0000000  17.0000000  53.0000000   1.0000000
 Leave Link  101 at Tue Oct 12 15:38:02 2021, MaxMem=  1048576000 cpu:         0.4
 (Enter /usr/local/gaussian/g09/l202.exe)
                          Input orientation:                          
 ---------------------------------------------------------------------
 Center     Atomic      Atomic             Coordinates (Angstroms)
 Number     Number       Type             X           Y           Z
 ---------------------------------------------------------------------
      1          8           0        0.000000    0.000000    0.000000
      2         17           0        1.686522    0.000000    0.000000
      3         53           0       -0.758922   -3.224184    0.000000
      4          1           0       -0.343683   -1.460096    0.000000
 ---------------------------------------------------------------------
                    Distance matrix (angstroms):
                    1          2          3          4
     1  O    0.000000
     2  Cl   1.686522   0.000000
     3  I    3.312299   4.046673   0.000000
     4  H    1.500000   2.500723   1.812299   0.000000
 Symmetry turned off by external request.
 Stoichiometry    ClHIO(1-)
 Framework group  CS[SG(ClHIO)]
 Deg. of freedom     5
 Full point group                 CS      NOp   2
 Rotational constants (GHZ):     21.9662768      0.9710933      0.9299804
 Leave Link  202 at Tue Oct 12 15:38:02 2021, MaxMem=  1048576000 cpu:         0.0
 (Enter /usr/local/gaussian/g09/l301.exe)
 General basis read from cards:  (5D, 7F)
 Centers:       4      1      2
 aug-cc-pVTZ
 ****
 Centers:       3
 S 11 1.00
     Exponent=  5.5465000000D+03 Coefficients=  1.5600000000D-04
     Exponent=  8.3821400000D+02 Coefficients=  9.8600000000D-04
     Exponent=  1.8218700000D+02 Coefficients=  2.7920000000D-03
     Exponent=  3.1212300000D+01 Coefficients= -4.3251000000D-02
     Exponent=  1.9531400000D+01 Coefficients=  2.3413400000D-01
     Exponent=  8.2409900000D+00 Coefficients= -7.5094300000D-01
     Exponent=  2.1945500000D+00 Coefficients=  8.8296800000D-01
     Exponent=  1.1091100000D+00 Coefficients=  4.6206100000D-01
     Exponent=  3.7464100000D-01 Coefficients=  2.2286000000D-02
     Exponent=  1.7708000000D-01 Coefficients= -4.3530000000D-03
     Exponent=  8.1061000000D-02 Coefficients=  1.1020000000D-03
 S 11 1.00
     Exponent=  5.5465000000D+03 Coefficients= -7.3000000000D-05
     Exponent=  8.3821400000D+02 Coefficients= -5.0800000000D-04
     Exponent=  1.8218700000D+02 Coefficients= -1.1580000000D-03
     Exponent=  3.1212300000D+01 Coefficients=  1.2193000000D-02
     Exponent=  1.9531400000D+01 Coefficients= -8.7854000000D-02
     Exponent=  8.2409900000D+00 Coefficients=  3.3820000000D-01
     Exponent=  2.1945500000D+00 Coefficients= -5.7655000000D-01
     Exponent=  1.1091100000D+00 Coefficients= -4.0929800000D-01
     Exponent=  3.7464100000D-01 Coefficients=  5.6745900000D-01
     Exponent=  1.7708000000D-01 Coefficients=  6.1248900000D-01
     Exponent=  8.1061000000D-02 Coefficients=  1.4323100000D-01
 S 1 1.00
     Exponent=  3.7464100000D-01 Coefficients=  1.0000000000D+00
 S 1 1.00
     Exponent=  1.7708000000D-01 Coefficients=  1.0000000000D+00
 S 1 1.00
     Exponent=  1.0010000000D-01 Coefficients=  1.0000000000D+00
 S 1 1.00
     Exponent=  4.1200000000D-02 Coefficients=  1.0000000000D+00
 P 9 1.00
     Exponent=  1.8898800000D+02 Coefficients=  5.8500000000D-04
     Exponent=  2.1286800000D+01 Coefficients=  3.6923000000D-02
     Exponent=  1.0039600000D+01 Coefficients= -2.3532400000D-01
     Exponent=  3.4518000000D+00 Coefficients=  3.4148300000D-01
     Exponent=  1.9745600000D+00 Coefficients=  5.3478800000D-01
     Exponent=  1.0242000000D+00 Coefficients=  2.6514100000D-01
     Exponent=  4.4943700000D-01 Coefficients=  2.5787000000D-02
     Exponent=  1.8664800000D-01 Coefficients=  5.2200000000D-04
     Exponent=  7.3481000000D-02 Coefficients=  6.0600000000D-04
 P 9 1.00
     Exponent=  1.8898800000D+02 Coefficients= -2.5600000000D-04
     Exponent=  2.1286800000D+01 Coefficients= -1.1682000000D-02
     Exponent=  1.0039600000D+01 Coefficients=  8.3192000000D-02
     Exponent=  3.4518000000D+00 Coefficients= -1.5697000000D-01
     Exponent=  1.9745600000D+00 Coefficients= -2.2451800000D-01
     Exponent=  1.0242000000D+00 Coefficients= -1.1445100000D-01
     Exponent=  4.4943700000D-01 Coefficients=  3.7535600000D-01
     Exponent=  1.8664800000D-01 Coefficients=  5.7513600000D-01
     Exponent=  7.3481000000D-02 Coefficients=  2.4591700000D-01
 P 1 1.00
     Exponent=  5.9810000000D-01 Coefficients=  1.0000000000D+00
 P 1 1.00
     Exponent=  9.6180000000D-02 Coefficients=  1.0000000000D+00
 P 1 1.00
     Exponent=  3.5900000000D-02 Coefficients=  1.0000000000D+00
 D 9 1.00
     Exponent=  1.3266200000D+02 Coefficients=  5.7200000000D-04
     Exponent=  3.7605400000D+01 Coefficients=  4.4020000000D-03
     Exponent=  1.0389100000D+01 Coefficients= -4.0922000000D-02
     Exponent=  6.4901700000D+00 Coefficients=  9.9661000000D-02
     Exponent=  3.4545100000D+00 Coefficients=  3.2266300000D-01
     Exponent=  1.8441300000D+00 Coefficients=  4.0034300000D-01
     Exponent=  9.6247800000D-01 Coefficients=  2.6830600000D-01
     Exponent=  4.7285300000D-01 Coefficients=  8.4847000000D-02
     Exponent=  1.9320000000D-01 Coefficients=  7.6320000000D-03
 D 1 1.00
     Exponent=  4.7285300000D-01 Coefficients=  1.0000000000D+00
 D 1 1.00
     Exponent=  1.9320000000D-01 Coefficients=  1.0000000000D+00
 D 1 1.00
     Exponent=  7.8200000000D-02 Coefficients=  1.0000000000D+00
 F 1 1.00
     Exponent=  4.0640000000D-01 Coefficients=  1.0000000000D+00
 F 1 1.00
     Exponent=  1.8480000000D-01 Coefficients=  1.0000000000D+00
 ****
 ======================================================================================================
                                       Pseudopotential Parameters
 ======================================================================================================
  Center     Atomic      Valence      Angular      Power
  Number     Number     Electrons     Momentum     of R      Exponent        Coefficient   SO-Coeffient
 ======================================================================================================
    1          8
                                   No pseudopotential on this center.
    2         17
                                   No pseudopotential on this center.
    3         53           25
                                      G and up 
                                                     2        1.0000000        0.00000000    0.00000000
                                      S - G
                                                     2       40.0333760       49.98964900    0.00000000
                                                     2       17.3005760      281.00655600    0.00000000
                                                     2        8.8517200       61.41673900    0.00000000
                                      P - G
                                                     2       15.7201410       67.41623900    0.00000000
                                                     2       15.2082220      134.80769600    0.00000000
                                                     2        8.2941860       14.56654800    0.00000000
                                                     2        7.7539490       28.96842200    0.00000000
                                      D - G
                                                     2       13.8177510       35.53875600    0.00000000
                                                     2       13.5878050       53.33975900    0.00000000
                                                     2        6.9476300        9.71646600    0.00000000
                                                     2        6.9600990       14.97750000    0.00000000
                                      F - G
                                                     2       18.5229500      -20.17661800    0.00000000
                                                     2       18.2510350      -26.08807700    0.00000000
                                                     2        7.5579010       -0.22043400    0.00000000
                                                     2        7.5974040       -0.22164600    0.00000000
    4          1
                                   No pseudopotential on this center.
 ======================================================================================================
 Ernie: Thresh=  0.10000D-02 Tol=  0.10000D-05 Strict=F.
 Ernie:  23 primitive shells out of 166 were deleted.
   174 basis functions,   383 primitive gaussians,   204 cartesian basis functions
    26 alpha electrons       26 beta electrons
       nuclear repulsion energy       143.9208069182 Hartrees.
 IExCor=    0 DFT=F Ex=HF Corr=None ExCW=0 ScaHFX=  1.000000
 ScaDFX=  1.000000  1.000000  1.000000  1.000000 ScalE2=  1.000000  1.000000
 IRadAn=      0 IRanWt=     -1 IRanGd=            0 ICorTp=0 IEmpDi=  4
 NAtoms=    4 NActive=    4 NUniq=    4 SFac= 1.00D+00 NAtFMM=   60 NAOKFM=F Big=F
 Integral buffers will be    131072 words long.
 Raffenetti 1 integral format.
 Two-electron integral symmetry is turned off.
 Leave Link  301 at Tue Oct 12 15:38:02 2021, MaxMem=  1048576000 cpu:         0.6
 (Enter /usr/local/gaussian/g09/l302.exe)
 NPDir=0 NMtPBC=     1 NCelOv=     1 NCel=       1 NClECP=     1 NCelD=      1
         NCelK=      1 NCelE2=     1 NClLst=     1 CellRange=     0.0.
 One-electron integrals computed using PRISM.
   1 Symmetry operations used in ECPInt.
 ECPInt:  NShTT=    1596 NPrTT=   10643 LenC2=    1597 LenP2D=    8419.
 LDataN:  DoStor=T MaxTD1= 7 Len=  274
 NBasis=   174 RedAO= T EigKep=  1.16D-04  NBF=   174
 NBsUse=   174 1.00D-06 EigRej= -1.00D+00 NBFU=   174
 Leave Link  302 at Tue Oct 12 15:38:02 2021, MaxMem=  1048576000 cpu:         2.8
 (Enter /usr/local/gaussian/g09/l303.exe)
 DipDrv:  MaxL=1.
 Leave Link  303 at Tue Oct 12 15:38:02 2021, MaxMem=  1048576000 cpu:         0.2
 (Enter /usr/local/gaussian/g09/l401.exe)
 ExpMin= 2.53D-02 ExpMax= 4.56D+05 ExpMxC= 1.44D+03 IAcc=3 IRadAn=         5 AccDes= 0.00D+00
 Harris functional with IExCor=  205 and IRadAn=       5 diagonalized for initial guess.
 HarFok:  IExCor=  205 AccDes= 0.00D+00 IRadAn=         5 IDoV= 1 UseB2=F ITyADJ=14
 ICtDFT=  3500011 ScaDFX=  1.000000  1.000000  1.000000  1.000000
 Defaulting to unpruned grid for atomic number  53.
 Defaulting to unpruned grid for atomic number  53.
 Defaulting to unpruned grid for atomic number  53.
 Defaulting to unpruned grid for atomic number  53.
 Defaulting to unpruned grid for atomic number  53.
 Defaulting to unpruned grid for atomic number  53.
 Defaulting to unpruned grid for atomic number  53.
 Defaulting to unpruned grid for atomic number  53.
 Defaulting to unpruned grid for atomic number  53.
 Defaulting to unpruned grid for atomic number  53.
 Defaulting to unpruned grid for atomic number  53.
 Defaulting to unpruned grid for atomic number  53.
 FoFCou: FMM=F IPFlag=           0 FMFlag=      100000 FMFlg1=           0
         NFxFlg=           0 DoJE=T BraDBF=F KetDBF=T FulRan=T
         wScrn=  0.000000 ICntrl=     500 IOpCl=  0 I1Cent=   200000004 NGrid=           0
         NMat0=    1 NMatS0=      1 NMatT0=    0 NMatD0=    1 NMtDS0=    0 NMtDT0=    0
 Symmetry not used in FoFCou.
 Harris En= -831.024573919714    
 JPrj=0 DoOrth=F DoCkMO=F.
 Leave Link  401 at Tue Oct 12 15:38:02 2021, MaxMem=  1048576000 cpu:         3.1
 (Enter /usr/local/gaussian/g09/l502.exe)
 Closed shell SCF:
 Using DIIS extrapolation, IDIIS=  1040.
 Two-electron integral symmetry not used.
 Keep R1 ints in memory in canonical form, NReq=124441113.
 IVT=      147078 IEndB=      147078 NGot=  1048576000 MDV=   932520998
 LenX=   932520998 LenY=   932478941
 Requested convergence on RMS density matrix=1.00D-08 within 128 cycles.
 Requested convergence on MAX density matrix=1.00D-06.
 Requested convergence on             energy=1.00D-06.
 No special actions if energy rises.
 FoFCou: FMM=F IPFlag=           0 FMFlag=           0 FMFlg1=           0
         NFxFlg=           0 DoJE=F BraDBF=F KetDBF=F FulRan=T
         wScrn=  0.000000 ICntrl=     600 IOpCl=  0 I1Cent=           0 NGrid=           0
         NMat0=    1 NMatS0=  15225 NMatT0=    0 NMatD0=    1 NMtDS0=    0 NMtDT0=    0
 Symmetry not used in FoFCou.

 Cycle   1  Pass 1  IDiag  1:
 E= -829.441186134943    
 DIIS: error= 3.85D-02 at cycle   1 NSaved=   1.
 NSaved= 1 IEnMin= 1 EnMin= -829.441186134943     IErMin= 1 ErrMin= 3.85D-02
 ErrMax= 3.85D-02  0.00D+00 EMaxC= 1.00D-01 BMatC= 5.04D-01 BMatP= 5.04D-01
 IDIUse=3 WtCom= 6.15D-01 WtEn= 3.85D-01
 Coeff-Com:  0.100D+01
 Coeff-En:   0.100D+01
 Coeff:      0.100D+01
 Gap=     0.528 Goal=   None    Shift=    0.000
 GapD=    0.528 DampG=2.000 DampE=0.500 DampFc=1.0000 IDamp=-1.
 RMSDP=4.59D-03 MaxDP=1.94D-01              OVMax= 1.57D-01

 Cycle   2  Pass 1  IDiag  1:
 E= -829.540551670856     Delta-E=       -0.099365535912 Rises=F Damp=F
 DIIS: error= 2.71D-02 at cycle   2 NSaved=   2.
 NSaved= 2 IEnMin= 2 EnMin= -829.540551670856     IErMin= 2 ErrMin= 2.71D-02
 ErrMax= 2.71D-02  0.00D+00 EMaxC= 1.00D-01 BMatC= 1.18D-01 BMatP= 5.04D-01
 IDIUse=3 WtCom= 7.29D-01 WtEn= 2.71D-01
 Coeff-Com:  0.281D+00 0.719D+00
 Coeff-En:   0.201D+00 0.799D+00
 Coeff:      0.259D+00 0.741D+00
 Gap=     0.423 Goal=   None    Shift=    0.000
 RMSDP=2.21D-03 MaxDP=9.45D-02 DE=-9.94D-02 OVMax= 1.12D-01

 Cycle   3  Pass 1  IDiag  1:
 E= -829.609512299379     Delta-E=       -0.068960628524 Rises=F Damp=F
 DIIS: error= 1.07D-02 at cycle   3 NSaved=   3.
 NSaved= 3 IEnMin= 3 EnMin= -829.609512299379     IErMin= 3 ErrMin= 1.07D-02
 ErrMax= 1.07D-02  0.00D+00 EMaxC= 1.00D-01 BMatC= 2.43D-02 BMatP= 1.18D-01
 IDIUse=3 WtCom= 8.93D-01 WtEn= 1.07D-01
 Coeff-Com:  0.602D-02 0.307D+00 0.687D+00
 Coeff-En:   0.000D+00 0.902D-01 0.910D+00
 Coeff:      0.537D-02 0.283D+00 0.711D+00
 Gap=     0.351 Goal=   None    Shift=    0.000
 RMSDP=5.59D-04 MaxDP=2.66D-02 DE=-6.90D-02 OVMax= 4.84D-02

 Cycle   4  Pass 1  IDiag  1:
 E= -829.627177376524     Delta-E=       -0.017665077145 Rises=F Damp=F
 DIIS: error= 1.75D-03 at cycle   4 NSaved=   4.
 NSaved= 4 IEnMin= 4 EnMin= -829.627177376524     IErMin= 4 ErrMin= 1.75D-03
 ErrMax= 1.75D-03  0.00D+00 EMaxC= 1.00D-01 BMatC= 4.73D-04 BMatP= 2.43D-02
 IDIUse=3 WtCom= 9.82D-01 WtEn= 1.75D-02
 Coeff-Com: -0.127D-01 0.227D-02 0.121D+00 0.889D+00
 Coeff-En:   0.000D+00 0.000D+00 0.000D+00 0.100D+01
 Coeff:     -0.125D-01 0.223D-02 0.119D+00 0.891D+00
 Gap=     0.351 Goal=   None    Shift=    0.000
 RMSDP=1.36D-04 MaxDP=6.44D-03 DE=-1.77D-02 OVMax= 5.81D-03

 Cycle   5  Pass 1  IDiag  1:
 E= -829.627672433759     Delta-E=       -0.000495057234 Rises=F Damp=F
 DIIS: error= 2.75D-04 at cycle   5 NSaved=   5.
 NSaved= 5 IEnMin= 5 EnMin= -829.627672433759     IErMin= 5 ErrMin= 2.75D-04
 ErrMax= 2.75D-04  0.00D+00 EMaxC= 1.00D-01 BMatC= 3.17D-05 BMatP= 4.73D-04
 IDIUse=3 WtCom= 9.97D-01 WtEn= 2.75D-03
 Coeff-Com:  0.249D-02-0.269D-01-0.734D-01-0.907D-01 0.119D+01
 Coeff-En:   0.000D+00 0.000D+00 0.000D+00 0.000D+00 0.100D+01
 Coeff:      0.249D-02-0.268D-01-0.732D-01-0.905D-01 0.119D+01
 Gap=     0.351 Goal=   None    Shift=    0.000
 RMSDP=6.91D-05 MaxDP=2.83D-03 DE=-4.95D-04 OVMax= 5.02D-03

 Cycle   6  Pass 1  IDiag  1:
 E= -829.627764847271     Delta-E=       -0.000092413513 Rises=F Damp=F
 DIIS: error= 1.31D-04 at cycle   6 NSaved=   6.
 NSaved= 6 IEnMin= 6 EnMin= -829.627764847271     IErMin= 6 ErrMin= 1.31D-04
 ErrMax= 1.31D-04  0.00D+00 EMaxC= 1.00D-01 BMatC= 4.52D-06 BMatP= 3.17D-05
 IDIUse=3 WtCom= 9.99D-01 WtEn= 1.31D-03
 Coeff-Com:  0.430D-03 0.829D-02 0.126D-01-0.850D-01-0.349D+00 0.141D+01
 Coeff-En:   0.000D+00 0.000D+00 0.000D+00 0.000D+00 0.000D+00 0.100D+01
 Coeff:      0.430D-03 0.828D-02 0.126D-01-0.849D-01-0.349D+00 0.141D+01
 Gap=     0.352 Goal=   None    Shift=    0.000
 RMSDP=2.82D-05 MaxDP=9.66D-04 DE=-9.24D-05 OVMax= 2.70D-03

 Cycle   7  Pass 1  IDiag  1:
 E= -829.627783241088     Delta-E=       -0.000018393816 Rises=F Damp=F
 DIIS: error= 4.30D-05 at cycle   7 NSaved=   7.
 NSaved= 7 IEnMin= 7 EnMin= -829.627783241088     IErMin= 7 ErrMin= 4.30D-05
 ErrMax= 4.30D-05  0.00D+00 EMaxC= 1.00D-01 BMatC= 3.96D-07 BMatP= 4.52D-06
 IDIUse=1 WtCom= 1.00D+00 WtEn= 0.00D+00
 Coeff-Com: -0.326D-03 0.208D-02 0.698D-02 0.181D-01-0.957D-01-0.156D+00
 Coeff-Com:  0.122D+01
 Coeff:     -0.326D-03 0.208D-02 0.698D-02 0.181D-01-0.957D-01-0.156D+00
 Coeff:      0.122D+01
 Gap=     0.352 Goal=   None    Shift=    0.000
 RMSDP=9.76D-06 MaxDP=4.05D-04 DE=-1.84D-05 OVMax= 9.19D-04

 Cycle   8  Pass 1  IDiag  1:
 E= -829.627784999932     Delta-E=       -0.000001758845 Rises=F Damp=F
 DIIS: error= 1.39D-05 at cycle   8 NSaved=   8.
 NSaved= 8 IEnMin= 8 EnMin= -829.627784999932     IErMin= 8 ErrMin= 1.39D-05
 ErrMax= 1.39D-05  0.00D+00 EMaxC= 1.00D-01 BMatC= 4.55D-08 BMatP= 3.96D-07
 IDIUse=1 WtCom= 1.00D+00 WtEn= 0.00D+00
 Coeff-Com: -0.187D-04-0.115D-02-0.162D-02 0.121D-01 0.453D-01-0.201D+00
 Coeff-Com:  0.891D-01 0.106D+01
 Coeff:     -0.187D-04-0.115D-02-0.162D-02 0.121D-01 0.453D-01-0.201D+00
 Coeff:      0.891D-01 0.106D+01
 Gap=     0.352 Goal=   None    Shift=    0.000
 RMSDP=3.21D-06 MaxDP=1.70D-04 DE=-1.76D-06 OVMax= 2.34D-04

 Cycle   9  Pass 1  IDiag  1:
 E= -829.627785134959     Delta-E=       -0.000000135027 Rises=F Damp=F
 DIIS: error= 3.12D-06 at cycle   9 NSaved=   9.
 NSaved= 9 IEnMin= 9 EnMin= -829.627785134959     IErMin= 9 ErrMin= 3.12D-06
 ErrMax= 3.12D-06  0.00D+00 EMaxC= 1.00D-01 BMatC= 3.15D-09 BMatP= 4.55D-08
 IDIUse=1 WtCom= 1.00D+00 WtEn= 0.00D+00
 Coeff-Com:  0.172D-04 0.491D-05-0.941D-04-0.347D-02-0.850D-03 0.413D-01
 Coeff-Com: -0.987D-01-0.154D+00 0.122D+01
 Coeff:      0.172D-04 0.491D-05-0.941D-04-0.347D-02-0.850D-03 0.413D-01
 Coeff:     -0.987D-01-0.154D+00 0.122D+01
 Gap=     0.352 Goal=   None    Shift=    0.000
 RMSDP=1.06D-06 MaxDP=6.50D-05 DE=-1.35D-07 OVMax= 5.85D-05

 Cycle  10  Pass 1  IDiag  1:
 E= -829.627785145183     Delta-E=       -0.000000010224 Rises=F Damp=F
 DIIS: error= 1.16D-06 at cycle  10 NSaved=  10.
 NSaved=10 IEnMin=10 EnMin= -829.627785145183     IErMin=10 ErrMin= 1.16D-06
 ErrMax= 1.16D-06  0.00D+00 EMaxC= 1.00D-01 BMatC= 3.35D-10 BMatP= 3.15D-09
 IDIUse=1 WtCom= 1.00D+00 WtEn= 0.00D+00
 Coeff-Com:  0.498D-06 0.924D-04 0.104D-03-0.603D-03-0.313D-02 0.112D-01
 Coeff-Com:  0.322D-02-0.588D-01-0.163D+00 0.121D+01
 Coeff:      0.498D-06 0.924D-04 0.104D-03-0.603D-03-0.313D-02 0.112D-01
 Coeff:      0.322D-02-0.588D-01-0.163D+00 0.121D+01
 Gap=     0.352 Goal=   None    Shift=    0.000
 RMSDP=2.90D-07 MaxDP=1.06D-05 DE=-1.02D-08 OVMax= 2.37D-05

 Cycle  11  Pass 1  IDiag  1:
 E= -829.627785146726     Delta-E=       -0.000000001543 Rises=F Damp=F
 DIIS: error= 7.03D-07 at cycle  11 NSaved=  11.
 NSaved=11 IEnMin=11 EnMin= -829.627785146726     IErMin=11 ErrMin= 7.03D-07
 ErrMax= 7.03D-07  0.00D+00 EMaxC= 1.00D-01 BMatC= 9.16D-11 BMatP= 3.35D-10
 IDIUse=1 WtCom= 1.00D+00 WtEn= 0.00D+00
 Coeff-Com: -0.312D-05-0.231D-04-0.253D-04 0.912D-03 0.101D-02-0.111D-01
 Coeff-Com:  0.181D-01 0.473D-01-0.211D+00-0.275D+00 0.143D+01
 Coeff:     -0.312D-05-0.231D-04-0.253D-04 0.912D-03 0.101D-02-0.111D-01
 Coeff:      0.181D-01 0.473D-01-0.211D+00-0.275D+00 0.143D+01
 Gap=     0.352 Goal=   None    Shift=    0.000
 RMSDP=1.76D-07 MaxDP=4.04D-06 DE=-1.54D-09 OVMax= 1.75D-05

 Cycle  12  Pass 1  IDiag  1:
 E= -829.627785147222     Delta-E=       -0.000000000496 Rises=F Damp=F
 DIIS: error= 2.85D-07 at cycle  12 NSaved=  12.
 NSaved=12 IEnMin=12 EnMin= -829.627785147222     IErMin=12 ErrMin= 2.85D-07
 ErrMax= 2.85D-07  0.00D+00 EMaxC= 1.00D-01 BMatC= 1.32D-11 BMatP= 9.16D-11
 IDIUse=1 WtCom= 1.00D+00 WtEn= 0.00D+00
 Coeff-Com: -0.473D-06-0.911D-05 0.425D-05 0.569D-05 0.169D-03-0.219D-03
 Coeff-Com: -0.273D-02 0.473D-02 0.547D-01-0.186D+00-0.205D+00 0.133D+01
 Coeff:     -0.473D-06-0.911D-05 0.425D-05 0.569D-05 0.169D-03-0.219D-03
 Coeff:     -0.273D-02 0.473D-02 0.547D-01-0.186D+00-0.205D+00 0.133D+01
 Gap=     0.352 Goal=   None    Shift=    0.000
 RMSDP=8.07D-08 MaxDP=1.84D-06 DE=-4.96D-10 OVMax= 8.28D-06

 Cycle  13  Pass 1  IDiag  1:
 E= -829.627785147309     Delta-E=       -0.000000000087 Rises=F Damp=F
 DIIS: error= 1.15D-07 at cycle  13 NSaved=  13.
 NSaved=13 IEnMin=13 EnMin= -829.627785147309     IErMin=13 ErrMin= 1.15D-07
 ErrMax= 1.15D-07  0.00D+00 EMaxC= 1.00D-01 BMatC= 1.86D-12 BMatP= 1.32D-11
 IDIUse=1 WtCom= 1.00D+00 WtEn= 0.00D+00
 Coeff-Com:  0.667D-06 0.184D-05-0.328D-05-0.937D-04-0.666D-04 0.990D-03
 Coeff-Com: -0.121D-02-0.457D-02 0.490D-02 0.886D-01-0.131D+00-0.346D+00
 Coeff-Com:  0.139D+01
 Coeff:      0.667D-06 0.184D-05-0.328D-05-0.937D-04-0.666D-04 0.990D-03
 Coeff:     -0.121D-02-0.457D-02 0.490D-02 0.886D-01-0.131D+00-0.346D+00
 Coeff:      0.139D+01
 Gap=     0.352 Goal=   None    Shift=    0.000
 RMSDP=3.08D-08 MaxDP=1.03D-06 DE=-8.73D-11 OVMax= 2.89D-06

 Cycle  14  Pass 1  IDiag  1:
 E= -829.627785147318     Delta-E=       -0.000000000008 Rises=F Damp=F
 DIIS: error= 3.99D-08 at cycle  14 NSaved=  14.
 NSaved=14 IEnMin=14 EnMin= -829.627785147318     IErMin=14 ErrMin= 3.99D-08
 ErrMax= 3.99D-08  0.00D+00 EMaxC= 1.00D-01 BMatC= 2.32D-13 BMatP= 1.86D-12
 IDIUse=1 WtCom= 1.00D+00 WtEn= 0.00D+00
 Coeff-Com: -0.149D-06 0.117D-05 0.993D-06 0.164D-04-0.176D-04-0.119D-03
 Coeff-Com:  0.596D-03 0.135D-03-0.102D-01 0.206D-01 0.382D-01-0.136D+00
 Coeff-Com: -0.265D+00 0.135D+01
 Coeff:     -0.149D-06 0.117D-05 0.993D-06 0.164D-04-0.176D-04-0.119D-03
 Coeff:      0.596D-03 0.135D-03-0.102D-01 0.206D-01 0.382D-01-0.136D+00
 Coeff:     -0.265D+00 0.135D+01
 Gap=     0.352 Goal=   None    Shift=    0.000
 RMSDP=1.26D-08 MaxDP=3.80D-07 DE=-8.07D-12 OVMax= 1.08D-06

 Cycle  15  Pass 1  IDiag  1:
 E= -829.627785147317     Delta-E=        0.000000000001 Rises=F Damp=F
 DIIS: error= 1.04D-08 at cycle  15 NSaved=  15.
 NSaved=15 IEnMin=14 EnMin= -829.627785147318     IErMin=15 ErrMin= 1.04D-08
 ErrMax= 1.04D-08  0.00D+00 EMaxC= 1.00D-01 BMatC= 1.72D-14 BMatP= 2.32D-13
 IDIUse=1 WtCom= 1.00D+00 WtEn= 0.00D+00
 Coeff-Com: -0.688D-07-0.271D-06 0.711D-06 0.934D-05 0.431D-05-0.943D-04
 Coeff-Com:  0.111D-03 0.448D-03-0.495D-03-0.888D-02 0.107D-01 0.448D-01
 Coeff-Com: -0.139D+00-0.578D-02 0.110D+01
 Coeff:     -0.688D-07-0.271D-06 0.711D-06 0.934D-05 0.431D-05-0.943D-04
 Coeff:      0.111D-03 0.448D-03-0.495D-03-0.888D-02 0.107D-01 0.448D-01
 Coeff:     -0.139D+00-0.578D-02 0.110D+01
 Gap=     0.352 Goal=   None    Shift=    0.000
 RMSDP=2.21D-09 MaxDP=6.57D-08 DE= 5.68D-13 OVMax= 1.54D-07

 SCF Done:  E(RHF) =  -829.627785147     A.U. after   15 cycles
            NFock= 15  Conv=0.22D-08     -V/T= 2.2852
 KE= 6.455032126473D+02 PE=-2.196624089383D+03 EE= 5.775722846700D+02
 Leave Link  502 at Tue Oct 12 15:38:06 2021, MaxMem=  1048576000 cpu:        17.9
 (Enter /usr/local/gaussian/g09/l801.exe)
 ExpMin= 2.53D-02 ExpMax= 4.56D+05 ExpMxC= 1.44D+03 IAcc=3 IRadAn=         5 AccDes= 0.00D+00
 HarFok:  IExCor=  205 AccDes= 0.00D+00 IRadAn=         5 IDoV=-2 UseB2=F ITyADJ=14
 ICtDFT= 12500011 ScaDFX=  1.000000  1.000000  1.000000  1.000000
 Defaulting to unpruned grid for atomic number  53.
 Defaulting to unpruned grid for atomic number  53.
 Defaulting to unpruned grid for atomic number  53.
 Defaulting to unpruned grid for atomic number  53.
 Defaulting to unpruned grid for atomic number  53.
 Defaulting to unpruned grid for atomic number  53.
 Defaulting to unpruned grid for atomic number  53.
 Defaulting to unpruned grid for atomic number  53.
 Defaulting to unpruned grid for atomic number  53.
 Defaulting to unpruned grid for atomic number  53.
 Defaulting to unpruned grid for atomic number  53.
 Defaulting to unpruned grid for atomic number  53.
 Largest valence mixing into a core orbital is  4.45D-04
 Largest core mixing into a valence orbital is  1.52D-04
 Range of M.O.s used for correlation:    11   174
 NBasis=   174 NAE=    26 NBE=    26 NFC=    10 NFV=     0
 NROrb=    164 NOA=    16 NOB=    16 NVA=   148 NVB=   148

 **** Warning!!: The largest alpha MO coefficient is  0.22347283D+02

 Leave Link  801 at Tue Oct 12 15:38:06 2021, MaxMem=  1048576000 cpu:         0.8
 (Enter /usr/local/gaussian/g09/l906.exe)
 Frozen-core derivative calculation, NFC=  10 NFV=   0.
 FulOut=F Deriv=T AODrv=F NAtomX=     4
   MMem=         239  MDisk=          16 MDiskD=          16
  W3Min=      922896 MinDsk=     1491158 NBas6D=         204
 NBas2D=       21411    NTT=       20910    LW2=    26219120
    MDV=  1048172595 MDiskM=       25641 NBas2p=       21407
 Fully in-core method, ICMem=   539113593.
 IMap=   1   2   3   4   5   6   7   8   9  10  11  12  13  14  15  16  17  18  19  20
 IMap=  21  22  23  24  25  26
 JobTyp=1 Pass  1 fully in-core, NPsUse= 12.
 Compute canonical integrals.
 FoFCou: FMM=F IPFlag=           0 FMFlag=           0 FMFlg1=           0
         NFxFlg=           0 DoJE=F BraDBF=F KetDBF=F FulRan=T
         wScrn=  0.000000 ICntrl=     600 IOpCl=  1 I1Cent=           0 NGrid=           0
         NMat0=    1 NMatS0=  21411 NMatT0=    0 NMatD0=    1 NMtDS0=    0 NMtDT0=    0
 Symmetry not used in FoFCou.
 Spin components of T(2) and E(2):
     alpha-alpha T2 =       0.3372355473D-01 E2=     -0.9513837668D-01
     alpha-beta  T2 =       0.1757958074D+00 E2=     -0.5119424520D+00
     beta-beta   T2 =       0.3372355473D-01 E2=     -0.9513837668D-01
 The integrals were generated   1 times.
 ANorm=    0.1115008034D+01
 E2 =    -0.7022192054D+00 EUMP2 =    -0.83033000435270D+03
 Leave Link  906 at Tue Oct 12 15:38:14 2021, MaxMem=  1048576000 cpu:       103.6
 (Enter /usr/local/gaussian/g09/l1002.exe)
 Minotr:  Closed shell wavefunction.
          Computing MP2/KS-MP2 derivatives.
          Using Z-Vector for PSCF gradient.
          Skipping F1 and S1 gradient terms here.
          Frozen-core window.
          Direct CPHF calculation.
          Differentiating once with respect to electric field.
                with respect to dipole field.
          Electric field/nuclear overlap derivatives assumed to be zero.
          Requested convergence is 1.0D-10 RMS, and 1.0D-09 maximum.
          NewPWx=F KeepS1=T KeepF1=T KeepIn=T MapXYZ=F SortEE=F KeepMc=T.
          MDV=    1048575800 using IRadAn=       0.
 Keep R1 ints in memory in canonical form, NReq=124351718.
 FoFCou: FMM=F IPFlag=           0 FMFlag=           0 FMFlg1=           0
         NFxFlg=           0 DoJE=F BraDBF=F KetDBF=F FulRan=T
         wScrn=  0.000000 ICntrl=     600 IOpCl=  0 I1Cent=           0 NGrid=           0
         NMat0=    1 NMatS0=  15225 NMatT0=    0 NMatD0=    1 NMtDS0=    0 NMtDT0=    0
 Symmetry not used in FoFCou.
          Solving linear equations separately, MaxMat=       0.
          There are     1 degrees of freedom in the 1st order CPHF.  IDoFFX=0 NUNeed=     1.
 LinEq1:  Iter=  0 NonCon=     1 RMS=3.85D-03 Max=6.05D-02 NDo=     1
 AX will form     1 AO Fock derivatives at one time.
 LinEq1:  Iter=  1 NonCon=     1 RMS=6.87D-04 Max=1.32D-02 NDo=     1
 LinEq1:  Iter=  2 NonCon=     1 RMS=2.72D-04 Max=3.04D-03 NDo=     1
 LinEq1:  Iter=  3 NonCon=     1 RMS=1.03D-04 Max=1.55D-03 NDo=     1
 LinEq1:  Iter=  4 NonCon=     1 RMS=5.97D-05 Max=1.06D-03 NDo=     1
 LinEq1:  Iter=  5 NonCon=     1 RMS=1.41D-05 Max=1.84D-04 NDo=     1
 LinEq1:  Iter=  6 NonCon=     1 RMS=3.13D-06 Max=3.88D-05 NDo=     1
 LinEq1:  Iter=  7 NonCon=     1 RMS=1.20D-06 Max=1.70D-05 NDo=     1
 LinEq1:  Iter=  8 NonCon=     1 RMS=3.69D-07 Max=4.86D-06 NDo=     1
 LinEq1:  Iter=  9 NonCon=     1 RMS=9.72D-08 Max=1.39D-06 NDo=     1
 LinEq1:  Iter= 10 NonCon=     1 RMS=2.19D-08 Max=2.43D-07 NDo=     1
 LinEq1:  Iter= 11 NonCon=     1 RMS=5.51D-09 Max=5.65D-08 NDo=     1
 LinEq1:  Iter= 12 NonCon=     1 RMS=1.20D-09 Max=1.14D-08 NDo=     1
 LinEq1:  Iter= 13 NonCon=     1 RMS=3.22D-10 Max=4.20D-09 NDo=     1
 LinEq1:  Iter= 14 NonCon=     0 RMS=7.42D-11 Max=7.25D-10 NDo=     1
 Linear equations converged to 1.000D-10 1.000D-09 after    14 iterations.
 End of Minotr F.D. properties file   721 does not exist.
 End of Minotr F.D. properties file   722 does not exist.
 End of Minotr F.D. properties file   788 does not exist.
 Leave Link 1002 at Tue Oct 12 15:38:18 2021, MaxMem=  1048576000 cpu:        16.5
 (Enter /usr/local/gaussian/g09/l601.exe)
 Copying SCF densities to generalized density rwf, IOpCl= 0 IROHF=0.

 **********************************************************************

            Population analysis using the MP2 density.

 **********************************************************************

 Alpha  occ. eigenvalues -- -104.67698 -20.38495 -10.39680  -7.86386  -7.86177
 Alpha  occ. eigenvalues --   -7.86172  -7.53419  -5.36218  -5.35836  -5.35832
 Alpha  occ. eigenvalues --   -2.09078  -2.08840  -2.08836  -2.08423  -2.08423
 Alpha  occ. eigenvalues --   -1.11908  -0.82183  -0.70777  -0.41869  -0.37107
 Alpha  occ. eigenvalues --   -0.36167  -0.27781  -0.21849  -0.20183  -0.19998
 Alpha  occ. eigenvalues --   -0.19484
 Alpha virt. eigenvalues --    0.15686   0.19109   0.21183   0.22778   0.23517
 Alpha virt. eigenvalues --    0.24895   0.25405   0.28902   0.30578   0.31910
 Alpha virt. eigenvalues --    0.32369   0.32818   0.35470   0.35666   0.36991
 Alpha virt. eigenvalues --    0.38384   0.38662   0.41870   0.46060   0.50396
 Alpha virt. eigenvalues --    0.52161   0.54729   0.56093   0.57689   0.59951
 Alpha virt. eigenvalues --    0.62864   0.63166   0.68245   0.69636   0.72622
 Alpha virt. eigenvalues --    0.72947   0.75156   0.75237   0.76638   0.78650
 Alpha virt. eigenvalues --    0.79573   0.80241   0.81052   0.83706   0.83782
 Alpha virt. eigenvalues --    0.84873   0.86011   0.89358   0.94152   0.94881
 Alpha virt. eigenvalues --    0.95731   0.97058   0.98811   1.01088   1.03827
 Alpha virt. eigenvalues --    1.10124   1.12147   1.13575   1.16499   1.17796
 Alpha virt. eigenvalues --    1.19226   1.23251   1.23486   1.26042   1.26350
 Alpha virt. eigenvalues --    1.32797   1.33220   1.38393   1.43145   1.46238
 Alpha virt. eigenvalues --    1.52328   1.54499   1.55397   1.57331   1.59473
 Alpha virt. eigenvalues --    1.61108   1.69339   1.69425   1.70018   1.70538
 Alpha virt. eigenvalues --    1.72505   1.72815   1.74497   1.77813   1.85743
 Alpha virt. eigenvalues --    1.90631   1.91869   1.92508   1.98748   2.00752
 Alpha virt. eigenvalues --    2.01044   2.08132   2.08954   2.17684   2.32063
 Alpha virt. eigenvalues --    2.42555   2.44954   2.54280   2.55520   2.58546
 Alpha virt. eigenvalues --    2.59164   2.63211   2.66949   2.68579   2.70790
 Alpha virt. eigenvalues --    2.76049   2.77009   2.79994   2.81655   2.87946
 Alpha virt. eigenvalues --    2.90686   3.13587   3.14755   3.19677   3.26139
 Alpha virt. eigenvalues --    3.27586   3.32537   3.33616   3.36964   3.46854
 Alpha virt. eigenvalues --    3.58624   3.61035   3.62729   3.69457   3.71174
 Alpha virt. eigenvalues --    3.99976   4.13851   4.22834   4.38122   4.47611
 Alpha virt. eigenvalues --    4.50903   4.55945   4.61886   4.64439   4.78565
 Alpha virt. eigenvalues --    5.38313   5.53730   5.86278   6.53849   6.85673
 Alpha virt. eigenvalues --    6.92526   6.97181   6.97857   7.10122   7.20106
 Alpha virt. eigenvalues --    7.21893   7.39142   7.43397   7.45470   7.70247
 Alpha virt. eigenvalues --    8.14279  12.92962  59.15420
          Condensed to atoms (all electrons):
               1          2          3          4
     1  O    8.821506  -0.171529  -0.179611   0.187072
     2  Cl  -0.171529  17.199998   0.029484  -0.031241
     3  I   -0.179611   0.029484  25.593129  -0.059516
     4  H    0.187072  -0.031241  -0.059516   0.836049
 Mulliken charges:
               1
     1  O   -0.657438
     2  Cl  -0.026711
     3  I   -0.383486
     4  H    0.067635
 Sum of Mulliken charges =  -1.00000
 Mulliken charges with hydrogens summed into heavy atoms:
               1
     1  O   -0.589803
     2  Cl  -0.026711
     3  I   -0.383486
 Electronic spatial extent (au):  <R**2>=           1297.8576
 Charge=             -1.0000 electrons
 Dipole moment (field-independent basis, Debye):
    X=              0.1036    Y=              6.9388    Z=              0.0000  Tot=              6.9395
 Quadrupole moment (field-independent basis, Debye-Ang):
   XX=            -56.0443   YY=            -76.7472   ZZ=            -52.3715
   XY=             -6.1077   XZ=             -0.0000   YZ=             -0.0000
 Traceless Quadrupole moment (field-independent basis, Debye-Ang):
   XX=              5.6767   YY=            -15.0262   ZZ=              9.3495
   XY=             -6.1077   XZ=             -0.0000   YZ=             -0.0000
 Octapole moment (field-independent basis, Debye-Ang**2):
  XXX=              0.3673  YYY=            378.5600  ZZZ=             -0.0000  XYY=             18.5811
  XXY=            105.5893  XXZ=              0.0000  XZZ=             -0.0347  YZZ=            101.0971
  YYZ=              0.0000  XYZ=              0.0000
 Hexadecapole moment (field-independent basis, Debye-Ang**3):
 XXXX=           -417.3392 YYYY=          -2227.9492 ZZZZ=            -80.1757 XXXY=           -233.3772
 XXXZ=             -0.0000 YYYX=           -279.7774 YYYZ=             -0.0000 ZZZX=             -0.0000
 ZZZY=              0.0000 XXYY=           -422.9399 XXZZ=            -86.5618 YYZZ=           -351.4475
 XXYZ=             -0.0000 YYXZ=             -0.0000 ZZXY=            -76.8290
 N-N= 1.439208069182D+02 E-N=-2.196006873892D+03  KE= 6.458481542852D+02
 No NMR shielding tensors so no spin-rotation constants.
 Leave Link  601 at Tue Oct 12 15:38:18 2021, MaxMem=  1048576000 cpu:         2.2
 (Enter /usr/local/gaussian/g09/l607.exe)
 ******************************Gaussian NBO Version 3.1******************************
             N A T U R A L   A T O M I C   O R B I T A L   A N D
          N A T U R A L   B O N D   O R B I T A L   A N A L Y S I S
 ******************************Gaussian NBO Version 3.1******************************
       /RESON  / : Allow strongly delocalized NBO set

 Analyzing the MP2 density

 Job title: title                                                           

 Storage needed:     91686 in NPA,    121697 in NBO (1048575904 available)


 NATURAL POPULATIONS:  Natural atomic orbital occupancies 
                                                          
   NAO  Atom  No  lang   Type(AO)    Occupancy
 --------------------------------------------
     1    O    1  S      Cor( 1S)     1.99986
     2    O    1  S      Val( 2S)     1.86580
     3    O    1  S      Ryd( 3S)     0.01341
     4    O    1  S      Ryd( 4S)     0.00113
     5    O    1  S      Ryd( 5S)     0.00013
     6    O    1  px     Val( 2p)     1.16255
     7    O    1  px     Ryd( 3p)     0.00842
     8    O    1  px     Ryd( 4p)     0.00079
     9    O    1  px     Ryd( 5p)     0.00068
    10    O    1  py     Val( 2p)     1.76810
    11    O    1  py     Ryd( 3p)     0.01627
    12    O    1  py     Ryd( 4p)     0.00059
    13    O    1  py     Ryd( 5p)     0.00028
    14    O    1  pz     Val( 2p)     1.94142
    15    O    1  pz     Ryd( 3p)     0.02433
    16    O    1  pz     Ryd( 4p)     0.00057
    17    O    1  pz     Ryd( 5p)     0.00042
    18    O    1  dxy    Ryd( 3d)     0.00865
    19    O    1  dxy    Ryd( 4d)     0.00059
    20    O    1  dxy    Ryd( 5d)     0.00015
    21    O    1  dxz    Ryd( 3d)     0.00874
    22    O    1  dxz    Ryd( 4d)     0.00058
    23    O    1  dxz    Ryd( 5d)     0.00013
    24    O    1  dyz    Ryd( 3d)     0.00652
    25    O    1  dyz    Ryd( 4d)     0.00064
    26    O    1  dyz    Ryd( 5d)     0.00025
    27    O    1  dx2y2  Ryd( 3d)     0.00910
    28    O    1  dx2y2  Ryd( 4d)     0.00040
    29    O    1  dx2y2  Ryd( 5d)     0.00011
    30    O    1  dz2    Ryd( 3d)     0.00744
    31    O    1  dz2    Ryd( 4d)     0.00064
    32    O    1  dz2    Ryd( 5d)     0.00013
    33    O    1  f(0)   Ryd( 4f)     0.00062
    34    O    1  f(0)   Ryd( 5f)     0.00012
    35    O    1  f(C1)  Ryd( 4f)     0.00064
    36    O    1  f(C1)  Ryd( 5f)     0.00012
    37    O    1  f(S1)  Ryd( 4f)     0.00054
    38    O    1  f(S1)  Ryd( 5f)     0.00013
    39    O    1  f(C2)  Ryd( 4f)     0.00069
    40    O    1  f(C2)  Ryd( 5f)     0.00014
    41    O    1  f(S2)  Ryd( 4f)     0.00055
    42    O    1  f(S2)  Ryd( 5f)     0.00012
    43    O    1  f(C3)  Ryd( 4f)     0.00064
    44    O    1  f(C3)  Ryd( 5f)     0.00014
    45    O    1  f(S3)  Ryd( 4f)     0.00064
    46    O    1  f(S3)  Ryd( 5f)     0.00013

    47   Cl    2  S      Cor( 1S)     2.00000
    48   Cl    2  S      Cor( 2S)     1.99974
    49   Cl    2  S      Val( 3S)     1.87400
    50   Cl    2  S      Ryd( 4S)     0.00905
    51   Cl    2  S      Ryd( 5S)     0.00058
    52   Cl    2  S      Ryd( 6S)     0.00017
    53   Cl    2  px     Cor( 2p)     1.99995
    54   Cl    2  px     Val( 3p)     0.96057
    55   Cl    2  px     Ryd( 4p)     0.00745
    56   Cl    2  px     Ryd( 5p)     0.00059
    57   Cl    2  px     Ryd( 6p)     0.00017
    58   Cl    2  py     Cor( 2p)     2.00003
    59   Cl    2  py     Val( 3p)     1.95022
    60   Cl    2  py     Ryd( 4p)     0.01189
    61   Cl    2  py     Ryd( 5p)     0.00069
    62   Cl    2  py     Ryd( 6p)     0.00006
    63   Cl    2  pz     Cor( 2p)     2.00003
    64   Cl    2  pz     Val( 3p)     1.95239
    65   Cl    2  pz     Ryd( 4p)     0.01203
    66   Cl    2  pz     Ryd( 5p)     0.00077
    67   Cl    2  pz     Ryd( 6p)     0.00004
    68   Cl    2  dxy    Ryd( 3d)     0.02168
    69   Cl    2  dxy    Ryd( 4d)     0.00116
    70   Cl    2  dxy    Ryd( 5d)     0.00036
    71   Cl    2  dxz    Ryd( 3d)     0.02458
    72   Cl    2  dxz    Ryd( 4d)     0.00148
    73   Cl    2  dxz    Ryd( 5d)     0.00041
    74   Cl    2  dyz    Ryd( 3d)     0.01712
    75   Cl    2  dyz    Ryd( 4d)     0.00070
    76   Cl    2  dyz    Ryd( 5d)     0.00025
    77   Cl    2  dx2y2  Ryd( 3d)     0.01930
    78   Cl    2  dx2y2  Ryd( 4d)     0.00053
    79   Cl    2  dx2y2  Ryd( 5d)     0.00021
    80   Cl    2  dz2    Ryd( 3d)     0.01806
    81   Cl    2  dz2    Ryd( 4d)     0.00062
    82   Cl    2  dz2    Ryd( 5d)     0.00024
    83   Cl    2  f(0)   Ryd( 4f)     0.00133
    84   Cl    2  f(0)   Ryd( 5f)     0.00015
    85   Cl    2  f(C1)  Ryd( 4f)     0.00154
    86   Cl    2  f(C1)  Ryd( 5f)     0.00015
    87   Cl    2  f(S1)  Ryd( 4f)     0.00128
    88   Cl    2  f(S1)  Ryd( 5f)     0.00013
    89   Cl    2  f(C2)  Ryd( 4f)     0.00137
    90   Cl    2  f(C2)  Ryd( 5f)     0.00015
    91   Cl    2  f(S2)  Ryd( 4f)     0.00123
    92   Cl    2  f(S2)  Ryd( 5f)     0.00014
    93   Cl    2  f(C3)  Ryd( 4f)     0.00172
    94   Cl    2  f(C3)  Ryd( 5f)     0.00015
    95   Cl    2  f(S3)  Ryd( 4f)     0.00136
    96   Cl    2  f(S3)  Ryd( 5f)     0.00016

    97    I    3  S      Cor( 4S)     1.99905
    98    I    3  S      Val( 5S)     1.90989
    99    I    3  S      Ryd( 6S)     0.00584
   100    I    3  S      Ryd( 7S)     0.00083
   101    I    3  S      Ryd( 8S)     0.00034
   102    I    3  S      Ryd( 9S)     0.00003
   103    I    3  px     Cor( 4p)     1.99983
   104    I    3  px     Val( 5p)     1.92983
   105    I    3  px     Ryd( 6p)     0.00913
   106    I    3  px     Ryd( 7p)     0.00063
   107    I    3  px     Ryd( 8p)     0.00013
   108    I    3  py     Cor( 4p)     1.99942
   109    I    3  py     Val( 5p)     1.55821
   110    I    3  py     Ryd( 6p)     0.00711
   111    I    3  py     Ryd( 7p)     0.00055
   112    I    3  py     Ryd( 8p)     0.00014
   113    I    3  pz     Cor( 4p)     1.99986
   114    I    3  pz     Val( 5p)     1.95254
   115    I    3  pz     Ryd( 6p)     0.00920
   116    I    3  pz     Ryd( 7p)     0.00060
   117    I    3  pz     Ryd( 8p)     0.00011
   118    I    3  dxy    Cor( 4d)     1.99657
   119    I    3  dxy    Ryd( 5d)     0.01752
   120    I    3  dxy    Ryd( 6d)     0.00109
   121    I    3  dxy    Ryd( 7d)     0.00022
   122    I    3  dxz    Cor( 4d)     1.99680
   123    I    3  dxz    Ryd( 5d)     0.01881
   124    I    3  dxz    Ryd( 6d)     0.00146
   125    I    3  dxz    Ryd( 7d)     0.00019
   126    I    3  dyz    Cor( 4d)     1.99671
   127    I    3  dyz    Ryd( 5d)     0.01756
   128    I    3  dyz    Ryd( 6d)     0.00113
   129    I    3  dyz    Ryd( 7d)     0.00024
   130    I    3  dx2y2  Cor( 4d)     1.99620
   131    I    3  dx2y2  Ryd( 5d)     0.01836
   132    I    3  dx2y2  Ryd( 6d)     0.00105
   133    I    3  dx2y2  Ryd( 7d)     0.00026
   134    I    3  dz2    Cor( 4d)     1.99656
   135    I    3  dz2    Ryd( 5d)     0.01880
   136    I    3  dz2    Ryd( 6d)     0.00131
   137    I    3  dz2    Ryd( 7d)     0.00016
   138    I    3  f(0)   Ryd( 4f)     0.00234
   139    I    3  f(0)   Ryd( 5f)     0.00041
   140    I    3  f(C1)  Ryd( 4f)     0.00261
   141    I    3  f(C1)  Ryd( 5f)     0.00041
   142    I    3  f(S1)  Ryd( 4f)     0.00249
   143    I    3  f(S1)  Ryd( 5f)     0.00037
   144    I    3  f(C2)  Ryd( 4f)     0.00219
   145    I    3  f(C2)  Ryd( 5f)     0.00039
   146    I    3  f(S2)  Ryd( 4f)     0.00239
   147    I    3  f(S2)  Ryd( 5f)     0.00035
   148    I    3  f(C3)  Ryd( 4f)     0.00208
   149    I    3  f(C3)  Ryd( 5f)     0.00038
   150    I    3  f(S3)  Ryd( 4f)     0.00221
   151    I    3  f(S3)  Ryd( 5f)     0.00037

   152    H    4  S      Val( 1S)     0.72823
   153    H    4  S      Ryd( 2S)     0.00704
   154    H    4  S      Ryd( 3S)     0.00034
   155    H    4  S      Ryd( 4S)     0.00015
   156    H    4  px     Ryd( 2p)     0.00520
   157    H    4  px     Ryd( 3p)     0.00036
   158    H    4  px     Ryd( 4p)     0.00011
   159    H    4  py     Ryd( 2p)     0.00480
   160    H    4  py     Ryd( 3p)     0.00053
   161    H    4  py     Ryd( 4p)     0.00029
   162    H    4  pz     Ryd( 2p)     0.00689
   163    H    4  pz     Ryd( 3p)     0.00074
   164    H    4  pz     Ryd( 4p)     0.00017
   165    H    4  dxy    Ryd( 3d)     0.00252
   166    H    4  dxy    Ryd( 4d)     0.00015
   167    H    4  dxz    Ryd( 3d)     0.00103
   168    H    4  dxz    Ryd( 4d)     0.00005
   169    H    4  dyz    Ryd( 3d)     0.00225
   170    H    4  dyz    Ryd( 4d)     0.00011
   171    H    4  dx2y2  Ryd( 3d)     0.00199
   172    H    4  dx2y2  Ryd( 4d)     0.00022
   173    H    4  dz2    Ryd( 3d)     0.00131
   174    H    4  dz2    Ryd( 4d)     0.00012

 [ 28 electrons found in the effective core potential]

 WARNING:  5 low occupancy (<1.9990e) core orbitals found on  I    3


 Summary of Natural Population Analysis:                  
                                                          
                                       Natural Population 
                Natural  -----------------------------------------------
    Atom  No    Charge         Core      Valence    Rydberg      Total
 -----------------------------------------------------------------------
      O    1   -0.85409      1.99986     6.73788    0.11635     8.85409
     Cl    2    0.10197      9.99975     6.73718    0.16109    16.89803
      I    3   -0.48329     45.98099     7.35047    0.15182    53.48329
      H    4    0.23540      0.00000     0.72823    0.03637     0.76460
 =======================================================================
   * Total *   -1.00000     57.98060    21.55376    0.46563    80.00000

                                 Natural Population      
 --------------------------------------------------------
   Effective Core            28.00000
   Core                      29.98060 ( 99.9353% of  30)
   Valence                   21.55376 ( 97.9716% of  22)
   Natural Minimal Basis     79.53437 ( 99.4180% of  80)
   Natural Rydberg Basis      0.46563 (  0.5820% of  80)
 --------------------------------------------------------

    Atom  No          Natural Electron Configuration
 ----------------------------------------------------------------------------
      O    1      [core]2S( 1.87)2p( 4.87)3S( 0.01)3p( 0.05)3d( 0.04)
     Cl    2      [core]3S( 1.87)3p( 4.86)4S( 0.01)3d( 0.10)4p( 0.03)4f( 0.01)
      I    3      [core]5S( 1.91)5p( 5.44)6S( 0.01)4f( 0.02)5d( 0.09)6p( 0.03)6d( 0.01)
      H    4            1S( 0.73)2S( 0.01)2p( 0.02)3d( 0.01)


 NATURAL BOND ORBITAL ANALYSIS:
 Warning:  a bond orbital has occupanc of -0.00004
 Warning:  a bond orbital has occupanc of -0.00029

                       Occupancies       Lewis Structure    Low   High
           Occ.    -------------------  -----------------   occ   occ
  Cycle   Thresh.   Lewis   Non-Lewis     CR  BD  3C  LP    (L)   (NL)   Dev
 =============================================================================
   1(1)    1.90    79.01229   0.98771     15   2   0   9     1      1    0.59
 Warning:  a bond orbital has occupanc of -0.00004
 Warning:  a bond orbital has occupanc of -0.00029
   2(2)    1.90    79.26139   0.73861     15   2   0   9     1      1    0.28
 Warning:  a bond orbital has occupanc of -0.00004
 Warning:  a bond orbital has occupanc of -0.00029
   3(3)    1.90    79.01229   0.98771     15   2   0   9     1      1    0.59
 Warning:  a bond orbital has occupanc of -0.00004
 Warning:  a bond orbital has occupanc of -0.00029
   4(4)    1.90    79.26139   0.73861     15   2   0   9     1      1    0.28
 Warning:  a bond orbital has occupanc of -0.00004
 Warning:  a bond orbital has occupanc of -0.00029
   5(1)    1.80    79.26139   0.73861     15   2   0   9     1      1    0.28
 Warning:  a bond orbital has occupanc of -0.00004
 Warning:  a bond orbital has occupanc of -0.00029
   6(2)    1.80    79.01229   0.98771     15   2   0   9     1      1    0.59
 Warning:  a bond orbital has occupanc of -0.00004
 Warning:  a bond orbital has occupanc of -0.00029
   7(3)    1.80    79.26139   0.73861     15   2   0   9     1      1    0.28
 Warning:  a bond orbital has occupanc of -0.00004
 Warning:  a bond orbital has occupanc of -0.00029
   8(1)    1.70    79.27390   0.72610     15   2   0   9     0      1    0.28
 Warning:  a bond orbital has occupanc of -0.00004
 Warning:  a bond orbital has occupanc of -0.00029
   9(2)    1.70    79.27390   0.72610     15   2   0   9     0      1    0.28
 Warning:  a bond orbital has occupanc of -0.00004
 Warning:  a bond orbital has occupanc of -0.00029
  10(1)    1.60    79.27390   0.72610     15   2   0   9     0      1    0.28
 Warning:  a bond orbital has occupanc of -0.00004
 Warning:  a bond orbital has occupanc of -0.00029
  11(2)    1.60    79.27390   0.72610     15   2   0   9     0      1    0.28
 Warning:  a bond orbital has occupanc of -0.00004
 Warning:  a bond orbital has occupanc of -0.00029
  12(1)    1.50    79.27390   0.72610     15   2   0   9     0      1    0.28
 Warning:  a bond orbital has occupanc of -0.00004
 Warning:  a bond orbital has occupanc of -0.00029
  13(2)    1.50    79.27390   0.72610     15   2   0   9     0      1    0.28
 Warning:  a bond orbital has occupanc of -0.00004
 Warning:  a bond orbital has occupanc of -0.00029
  14(1)    1.70    79.27390   0.72610     15   2   0   9     0      1    0.28
 -----------------------------------------------------------------------------

 Structure accepted: RESONANCE keyword permits strongly delocalized structure

 WARNING:  5 low occupancy (<1.9990e) core orbitals found on  I    3

 --------------------------------------------------------
   Effective Core           28.00000
   Core                     29.98061 ( 99.935% of  30)
   Valence Lewis            21.29329 ( 96.788% of  22)
  ==================       ============================
   Total Lewis              79.27390 ( 99.092% of  80)
  -----------------------------------------------------
   Valence non-Lewis         0.30841 (  0.386% of  80)
   Rydberg non-Lewis         0.41769 (  0.522% of  80)
  ==================       ============================
   Total non-Lewis           0.72610 (  0.908% of  80)
 --------------------------------------------------------


       (Occupancy)   Bond orbital/ Coefficients/ Hybrids
 ---------------------------------------------------------------------------------
     1. (1.93444) BD ( 1) O   1 -Cl   2  
                ( 56.30%)   0.7504* O   1 s(  8.39%)p10.87( 91.13%)d 0.05(  0.46%)
                                                  f 0.00(  0.02%)
                                            0.0003  0.2815 -0.0667  0.0134 -0.0010
                                            0.9528 -0.0496 -0.0152 -0.0166  0.0119
                                           -0.0176 -0.0018  0.0034  0.0000  0.0000
                                            0.0000  0.0000 -0.0093 -0.0008  0.0007
                                            0.0000  0.0000  0.0000  0.0000  0.0000
                                            0.0000  0.0553  0.0024  0.0001 -0.0378
                                           -0.0024  0.0007  0.0000  0.0000 -0.0099
                                            0.0005  0.0002 -0.0003  0.0000  0.0000
                                            0.0000  0.0000  0.0094  0.0002 -0.0007
                                            0.0012
                ( 43.70%)   0.6610*Cl   2 s(  9.75%)p 9.14( 89.09%)d 0.11(  1.04%)
                                                  f 0.01(  0.12%)
                                           -0.0000  0.0007  0.3057 -0.0625 -0.0113
                                           -0.0018 -0.0004 -0.9415  0.0657  0.0124
                                           -0.0011 -0.0000 -0.0080 -0.0053  0.0026
                                           -0.0023  0.0000  0.0000  0.0000  0.0000
                                            0.0000  0.0072 -0.0012 -0.0010  0.0000
                                            0.0000  0.0000  0.0000  0.0000  0.0000
                                            0.0846 -0.0139 -0.0028 -0.0536  0.0089
                                            0.0025  0.0000  0.0000  0.0215 -0.0024
                                            0.0003 -0.0002  0.0000  0.0000  0.0000
                                            0.0000 -0.0268  0.0027 -0.0009  0.0005
     2. (1.95204) BD ( 1) I   3 - H   4  
                ( 72.00%)   0.8485* I   3 s( 13.11%)p 6.60( 86.55%)d 0.02(  0.30%)
                                                  f 0.00(  0.03%)
                                            0.0005  0.3620 -0.0081 -0.0052  0.0002
                                            0.0005  0.0002  0.2156 -0.0052 -0.0013
                                           -0.0003  0.0010  0.9046 -0.0260 -0.0068
                                           -0.0006  0.0000  0.0000  0.0000  0.0000
                                            0.0000  0.0000  0.0209  0.0005 -0.0011
                                            0.0000  0.0000  0.0000  0.0000  0.0000
                                            0.0000  0.0000  0.0000 -0.0000 -0.0424
                                           -0.0021  0.0017 -0.0000 -0.0282 -0.0007
                                            0.0009  0.0000  0.0000 -0.0026  0.0001
                                           -0.0111  0.0004  0.0000  0.0000  0.0000
                                            0.0000 -0.0090  0.0004 -0.0110  0.0009
                ( 28.00%)   0.5291* H   4 s( 99.69%)p 0.00(  0.28%)d 0.00(  0.03%)
                                            0.9983 -0.0176 -0.0091  0.0014 -0.0111
                                           -0.0001 -0.0043 -0.0471 -0.0181 -0.0080
                                            0.0000  0.0000  0.0000  0.0045  0.0055
                                            0.0000  0.0000  0.0000  0.0000 -0.0091
                                           -0.0090 -0.0090 -0.0068
     3. (1.99986) CR ( 1) O   1           s(100.00%)p 0.00(  0.00%)
                                            1.0000 -0.0002  0.0000  0.0000  0.0000
                                           -0.0003  0.0000  0.0000  0.0000 -0.0004
                                            0.0000 -0.0000  0.0000  0.0000  0.0000
                                            0.0000  0.0000 -0.0000 -0.0000  0.0000
                                            0.0000  0.0000  0.0000  0.0000  0.0000
                                            0.0000 -0.0000 -0.0000  0.0000  0.0000
                                            0.0000  0.0000  0.0000  0.0000  0.0000
                                           -0.0000  0.0000 -0.0000  0.0000  0.0000
                                            0.0000  0.0000 -0.0000  0.0000 -0.0000
                                           -0.0000
     4. (2.00000) CR ( 1)Cl   2           s(100.00%)
                                            1.0000  0.0000  0.0000 -0.0000 -0.0000
                                           -0.0000 -0.0000 -0.0000  0.0000  0.0000
                                           -0.0000  0.0000 -0.0000 -0.0000  0.0000
                                           -0.0000  0.0000  0.0000  0.0000  0.0000
                                            0.0000  0.0000 -0.0000 -0.0000  0.0000
                                            0.0000  0.0000  0.0000  0.0000  0.0000
                                            0.0000 -0.0000 -0.0000 -0.0000  0.0000
                                            0.0000  0.0000  0.0000  0.0000 -0.0000
                                            0.0000 -0.0000  0.0000  0.0000  0.0000
                                            0.0000 -0.0000  0.0000 -0.0000  0.0000
     5. (1.99974) CR ( 2)Cl   2           s(100.00%)p 0.00(  0.00%)
                                            0.0000  1.0000 -0.0005  0.0000  0.0000
                                            0.0000  0.0000  0.0006 -0.0000 -0.0000
                                            0.0000 -0.0000  0.0000  0.0000 -0.0000
                                            0.0000  0.0000  0.0000  0.0000  0.0000
                                            0.0000 -0.0000  0.0000  0.0000  0.0000
                                            0.0000  0.0000  0.0000  0.0000  0.0000
                                           -0.0001  0.0000  0.0000  0.0000 -0.0000
                                           -0.0000  0.0000  0.0000 -0.0000  0.0000
                                           -0.0000  0.0000  0.0000  0.0000  0.0000
                                            0.0000  0.0000 -0.0000  0.0000 -0.0000
     6. (1.99995) CR ( 3)Cl   2           s(  0.00%)p 1.00(100.00%)
                                           -0.0000  0.0000  0.0001 -0.0000 -0.0000
                                           -0.0000  1.0000 -0.0004  0.0000  0.0000
                                           -0.0000  0.0000 -0.0000 -0.0000  0.0000
                                           -0.0000  0.0000  0.0000  0.0000  0.0000
                                            0.0000  0.0000 -0.0000 -0.0000  0.0000
                                            0.0000  0.0000  0.0000  0.0000  0.0000
                                            0.0000 -0.0000 -0.0000 -0.0000  0.0000
                                            0.0000  0.0000  0.0000  0.0000 -0.0000
                                            0.0000 -0.0000  0.0000  0.0000  0.0000
                                            0.0000 -0.0000  0.0000 -0.0000  0.0000
     7. (2.00003) CR ( 4)Cl   2           s(  0.00%)p 1.00(100.00%)
                                            0.0000 -0.0000 -0.0000  0.0000  0.0000
                                           -0.0000  0.0000 -0.0000  0.0000  0.0000
                                           -0.0000  1.0000  0.0001  0.0000  0.0000
                                            0.0000  0.0000  0.0000  0.0000  0.0000
                                            0.0000  0.0000  0.0000  0.0000  0.0000
                                            0.0000  0.0000  0.0000  0.0000  0.0000
                                           -0.0000 -0.0000 -0.0000  0.0000 -0.0000
                                            0.0000  0.0000  0.0000  0.0000  0.0000
                                           -0.0000  0.0000  0.0000  0.0000  0.0000
                                            0.0000 -0.0000  0.0000  0.0000 -0.0000
     8. (2.00003) CR ( 5)Cl   2           s(  0.00%)p 1.00(100.00%)
                                            0.0000  0.0000  0.0000  0.0000  0.0000
                                            0.0000  0.0000  0.0000  0.0000  0.0000
                                            0.0000  0.0000  0.0000  0.0000  0.0000
                                            0.0000  1.0000  0.0001  0.0000  0.0000
                                           -0.0000  0.0000  0.0000  0.0000  0.0000
                                            0.0000  0.0000  0.0000  0.0000 -0.0000
                                            0.0000  0.0000  0.0000  0.0000  0.0000
                                            0.0000 -0.0000  0.0000  0.0000  0.0000
                                            0.0000  0.0000  0.0000 -0.0000  0.0000
                                           -0.0000  0.0000  0.0000  0.0000  0.0000
     9. (1.99905) CR ( 1) I   3           s(100.00%)p 0.00(  0.00%)
                                            1.0000 -0.0008  0.0000  0.0000 -0.0000
                                           -0.0000 -0.0000 -0.0001  0.0000  0.0000
                                           -0.0000 -0.0000 -0.0002  0.0000  0.0000
                                           -0.0000  0.0000  0.0000  0.0000  0.0000
                                            0.0000  0.0000 -0.0000 -0.0000  0.0000
                                            0.0000  0.0000  0.0000  0.0000  0.0000
                                            0.0000  0.0000  0.0000 -0.0000  0.0000
                                            0.0000 -0.0000 -0.0000  0.0000  0.0000
                                           -0.0000  0.0000  0.0000  0.0000 -0.0000
                                            0.0000 -0.0000  0.0000  0.0000  0.0000
                                            0.0000  0.0000 -0.0000  0.0000 -0.0000
    10. (1.99983) CR ( 2) I   3           s(  0.00%)p 1.00(100.00%)
                                           -0.0000  0.0000  0.0000  0.0000 -0.0000
                                           -0.0000  1.0000 -0.0008 -0.0000 -0.0000
                                           -0.0000 -0.0000 -0.0001  0.0000  0.0000
                                            0.0000  0.0000  0.0000  0.0000  0.0000
                                            0.0000  0.0000 -0.0000 -0.0000  0.0000
                                            0.0000  0.0000  0.0000  0.0000  0.0000
                                            0.0000  0.0000  0.0000  0.0000  0.0000
                                           -0.0000  0.0000  0.0000  0.0000  0.0000
                                           -0.0000  0.0000  0.0000  0.0000  0.0000
                                            0.0000 -0.0000  0.0000  0.0000  0.0000
                                            0.0000  0.0000  0.0000 -0.0000 -0.0000
    11. (1.99943) CR ( 3) I   3           s(  0.00%)p 1.00(100.00%)
                                           -0.0000  0.0001  0.0000  0.0000  0.0000
                                           -0.0000 -0.0000 -0.0001  0.0000  0.0000
                                            0.0000  1.0000 -0.0012  0.0000  0.0000
                                            0.0000  0.0000  0.0000  0.0000  0.0000
                                            0.0000 -0.0000 -0.0000  0.0000 -0.0000
                                            0.0000  0.0000  0.0000  0.0000  0.0000
                                            0.0000  0.0000  0.0000  0.0000  0.0000
                                            0.0000 -0.0000  0.0000  0.0000  0.0000
                                           -0.0000  0.0000  0.0000  0.0000 -0.0000
                                            0.0000 -0.0000  0.0000  0.0000  0.0000
                                            0.0000  0.0000 -0.0000  0.0000 -0.0000
    12. (1.99985) CR ( 4) I   3           s(  0.00%)p 1.00(100.00%)
                                            0.0000  0.0000  0.0000  0.0000  0.0000
                                            0.0000  0.0000  0.0000  0.0000  0.0000
                                            0.0000  0.0000  0.0000  0.0000  0.0000
                                            0.0000  1.0000 -0.0008 -0.0000 -0.0000
                                           -0.0000  0.0000  0.0000  0.0000  0.0000
                                            0.0000 -0.0000 -0.0000  0.0000  0.0000
                                           -0.0000 -0.0000  0.0000  0.0000  0.0000
                                            0.0000  0.0000  0.0000  0.0000  0.0000
                                            0.0000  0.0000  0.0000  0.0000  0.0000
                                            0.0000  0.0000  0.0000  0.0000 -0.0000
                                           -0.0000  0.0000  0.0000  0.0000  0.0000
    13. (1.99657) CR ( 5) I   3           s(  0.00%)p 0.00(  0.00%)d 1.00(100.00%)
                                            0.0000  0.0001  0.0000  0.0000  0.0000
                                           -0.0000  0.0000  0.0001  0.0000  0.0000
                                            0.0000 -0.0000 -0.0000  0.0000  0.0000
                                            0.0000  0.0000  0.0000  0.0000  0.0000
                                            0.0000  1.0000  0.0000  0.0000 -0.0000
                                            0.0000  0.0000  0.0000  0.0000  0.0000
                                            0.0000  0.0000  0.0000  0.0000  0.0000
                                            0.0000 -0.0000  0.0000  0.0000 -0.0000
                                            0.0000  0.0000  0.0000 -0.0000 -0.0000
                                            0.0000  0.0000  0.0000  0.0000  0.0000
                                            0.0000 -0.0000 -0.0000  0.0000  0.0000
    14. (1.99680) CR ( 6) I   3           s(  0.00%)p 0.00(  0.00%)d 1.00(100.00%)
                                            0.0000  0.0000  0.0000  0.0000  0.0000
                                            0.0000  0.0000  0.0000  0.0000  0.0000
                                            0.0000  0.0000  0.0000  0.0000  0.0000
                                            0.0000  0.0000  0.0000  0.0000  0.0000
                                            0.0000  0.0000  0.0000  0.0000  0.0000
                                            1.0000  0.0000  0.0000 -0.0000 -0.0000
                                            0.0000  0.0000 -0.0000  0.0000  0.0000
                                            0.0000  0.0000  0.0000  0.0000  0.0000
                                            0.0000 -0.0000 -0.0000  0.0000  0.0000
                                            0.0000  0.0000 -0.0000 -0.0000  0.0000
                                            0.0000  0.0000  0.0000  0.0000  0.0000
    15. (1.99671) CR ( 7) I   3           s(  0.00%)p 0.00(  0.00%)d 1.00(100.00%)
                                            0.0000  0.0000  0.0000  0.0000  0.0000
                                            0.0000  0.0000  0.0000  0.0000  0.0000
                                            0.0000  0.0000  0.0000  0.0000  0.0000
                                            0.0000  0.0000  0.0001  0.0000  0.0000
                                            0.0000  0.0000  0.0000  0.0000  0.0000
                                           -0.0000  0.0000  0.0000 -0.0000  1.0000
                                            0.0000  0.0000 -0.0000  0.0000  0.0000
                                            0.0000  0.0000  0.0000  0.0000  0.0000
                                            0.0000 -0.0000 -0.0000  0.0000  0.0000
                                            0.0000  0.0000 -0.0000 -0.0000  0.0000
                                            0.0000  0.0000  0.0000  0.0000  0.0000
    16. (1.99620) CR ( 8) I   3           s(  0.00%)p 0.00(  0.00%)d 1.00(100.00%)
                                            0.0000  0.0002  0.0000  0.0000  0.0000
                                           -0.0000 -0.0000 -0.0000 -0.0000 -0.0000
                                            0.0000 -0.0000 -0.0001  0.0000  0.0000
                                            0.0000 -0.0000 -0.0000 -0.0000 -0.0000
                                           -0.0000 -0.0000 -0.0000 -0.0000  0.0000
                                           -0.0000 -0.0000 -0.0000 -0.0000 -0.0000
                                           -0.0000 -0.0000 -0.0000 -1.0000  0.0000
                                           -0.0000  0.0000  0.0000  0.0000 -0.0000
                                            0.0000 -0.0000 -0.0000  0.0000  0.0000
                                            0.0000 -0.0000 -0.0000 -0.0000 -0.0000
                                           -0.0000  0.0000  0.0000  0.0000 -0.0000
    17. (1.99656) CR ( 9) I   3           s(  0.00%)p 0.00(  0.00%)d 1.00(100.00%)
                                           -0.0000 -0.0001 -0.0000 -0.0000 -0.0000
                                            0.0000  0.0000  0.0000 -0.0000 -0.0000
                                           -0.0000  0.0000  0.0000 -0.0000 -0.0000
                                           -0.0000  0.0000  0.0000  0.0000  0.0000
                                            0.0000  0.0000  0.0000 -0.0000  0.0000
                                            0.0000  0.0000  0.0000  0.0000  0.0000
                                            0.0000  0.0000  0.0000 -0.0000 -0.0000
                                            0.0000 -0.0000  1.0000 -0.0000  0.0000
                                           -0.0000  0.0000  0.0000 -0.0000 -0.0000
                                           -0.0000 -0.0000  0.0000  0.0000  0.0000
                                            0.0000 -0.0000 -0.0000 -0.0000 -0.0000
    18. (1.96728) LP ( 1) O   1           s( 76.70%)p 0.30( 23.26%)d 0.00(  0.03%)
                                                  f 0.00(  0.00%)
                                            0.0002  0.8757  0.0136 -0.0065 -0.0007
                                           -0.2624  0.0029 -0.0030  0.0019  0.4046
                                            0.0045  0.0042 -0.0006  0.0000  0.0000
                                            0.0000  0.0000  0.0173  0.0029 -0.0016
                                            0.0000  0.0000  0.0000  0.0000  0.0000
                                            0.0000  0.0026 -0.0002 -0.0017  0.0025
                                           -0.0006  0.0011  0.0000  0.0000 -0.0004
                                            0.0006 -0.0008 -0.0001  0.0000  0.0000
                                            0.0000  0.0000  0.0031 -0.0019  0.0045
                                           -0.0010
    19. (1.94549) LP ( 2) O   1           s(  0.00%)p 1.00( 99.86%)d 0.00(  0.13%)
                                                  f 0.00(  0.01%)
                                            0.0000  0.0000  0.0000  0.0000  0.0000
                                            0.0000  0.0000  0.0000  0.0000  0.0000
                                            0.0000  0.0000  0.0000  0.9989  0.0188
                                            0.0056  0.0170  0.0000  0.0000  0.0000
                                            0.0324  0.0038 -0.0036 -0.0107  0.0049
                                            0.0084  0.0000  0.0000  0.0000  0.0000
                                            0.0000  0.0000 -0.0074 -0.0005  0.0000
                                            0.0000  0.0000  0.0000  0.0087 -0.0028
                                           -0.0008  0.0016  0.0000  0.0000  0.0000
                                            0.0000
    20. (1.73389) LP ( 3) O   1           s( 15.35%)p 5.51( 84.51%)d 0.01(  0.13%)
                                                  f 0.00(  0.01%)
                                           -0.0003  0.3916 -0.0056  0.0106  0.0022
                                           -0.1041  0.0060  0.0017  0.0069 -0.9132
                                           -0.0124 -0.0008  0.0084 -0.0000 -0.0000
                                           -0.0000 -0.0000 -0.0244 -0.0061  0.0001
                                           -0.0000 -0.0000 -0.0000 -0.0000 -0.0000
                                           -0.0000 -0.0227 -0.0019  0.0004 -0.0137
                                            0.0002  0.0025 -0.0000 -0.0000 -0.0004
                                            0.0008  0.0053 -0.0013 -0.0000 -0.0000
                                           -0.0000 -0.0000  0.0002  0.0004 -0.0068
                                            0.0004
    21. (1.97408) LP ( 1)Cl   2           s( 90.53%)p 0.10(  9.44%)d 0.00(  0.03%)
                                                  f 0.00(  0.00%)
                                            0.0000  0.0003  0.9514  0.0084  0.0015
                                            0.0003  0.0001  0.3061 -0.0064 -0.0031
                                            0.0008  0.0000 -0.0247  0.0008  0.0003
                                           -0.0007  0.0000  0.0000  0.0000  0.0000
                                            0.0000 -0.0004 -0.0002 -0.0002  0.0000
                                            0.0000  0.0000  0.0000  0.0000  0.0000
                                           -0.0145 -0.0001  0.0007  0.0087  0.0003
                                           -0.0002  0.0000  0.0000 -0.0025 -0.0002
                                            0.0000  0.0001  0.0000  0.0000  0.0000
                                            0.0000  0.0037  0.0001 -0.0002  0.0001
    22. (1.95431) LP ( 2)Cl   2           s(  0.00%)p 1.00( 99.93%)d 0.00(  0.07%)
                                                  f 0.00(  0.01%)
                                            0.0000  0.0000  0.0000  0.0000  0.0000
                                            0.0000  0.0000  0.0000  0.0000  0.0000
                                            0.0000  0.0000  0.0000  0.0000  0.0000
                                            0.0000 -0.0001  0.9995  0.0149  0.0048
                                           -0.0020  0.0000  0.0000  0.0000  0.0135
                                            0.0205  0.0074  0.0012  0.0010 -0.0000
                                            0.0000  0.0000  0.0000  0.0000  0.0000
                                            0.0000 -0.0055  0.0017  0.0000  0.0000
                                            0.0000  0.0000  0.0064 -0.0017  0.0004
                                           -0.0002  0.0000  0.0000  0.0000  0.0000
    23. (1.95190) LP ( 3)Cl   2           s(  0.07%)p99.99( 99.87%)d 0.68(  0.05%)
                                                  f 0.11(  0.01%)
                                            0.0000 -0.0000  0.0260  0.0022  0.0039
                                           -0.0034  0.0000 -0.0005  0.0017  0.0002
                                           -0.0003 -0.0001  0.9992  0.0151  0.0015
                                            0.0012  0.0000  0.0000  0.0000  0.0000
                                            0.0000  0.0074  0.0187  0.0071  0.0000
                                            0.0000  0.0000  0.0000  0.0000  0.0000
                                           -0.0032 -0.0029 -0.0019  0.0010 -0.0006
                                            0.0002  0.0000  0.0000 -0.0000  0.0001
                                           -0.0025  0.0006  0.0000  0.0000  0.0000
                                            0.0000 -0.0009  0.0004  0.0082 -0.0021
    24. (1.97409) LP ( 1) I   3           s( 86.87%)p 0.15( 13.12%)d 0.00(  0.01%)
                                                  f 0.00(  0.00%)
                                            0.0006  0.9320  0.0029  0.0023  0.0005
                                           -0.0001 -0.0001 -0.0902  0.0006  0.0002
                                            0.0002 -0.0006 -0.3508  0.0050  0.0017
                                            0.0012  0.0000  0.0000  0.0000  0.0000
                                            0.0000 -0.0001 -0.0030  0.0005 -0.0001
                                            0.0000  0.0000  0.0000  0.0000  0.0000
                                            0.0000  0.0000  0.0000  0.0002  0.0058
                                           -0.0008  0.0001  0.0001  0.0041 -0.0007
                                            0.0004  0.0000  0.0000  0.0004  0.0001
                                            0.0016  0.0001  0.0000  0.0000  0.0000
                                            0.0000  0.0014  0.0000  0.0017  0.0001
    25. (1.95299) LP ( 2) I   3           s(  0.00%)p 1.00( 99.99%)d 0.00(  0.01%)
                                                  f 0.00(  0.00%)
                                            0.0000  0.0000  0.0000  0.0000  0.0000
                                            0.0000  0.0000  0.0000  0.0000  0.0000
                                            0.0000  0.0000  0.0000  0.0000  0.0000
                                            0.0000  0.0008  0.9999  0.0087  0.0021
                                            0.0000  0.0000  0.0000  0.0000  0.0000
                                           -0.0000  0.0003  0.0016 -0.0023 -0.0001
                                            0.0062  0.0033 -0.0066  0.0000  0.0000
                                            0.0000  0.0000  0.0000  0.0000  0.0000
                                            0.0000 -0.0040 -0.0015  0.0000  0.0000
                                            0.0000  0.0000 -0.0047 -0.0018  0.0022
                                            0.0007  0.0000  0.0000  0.0000  0.0000
    26. (1.95278) LP ( 3) I   3           s(  0.00%)p 1.00( 99.98%)d 0.00(  0.01%)
                                                  f 0.00(  0.00%)
                                            0.0000  0.0059 -0.0031 -0.0016  0.0001
                                            0.0001  0.0008  0.9721  0.0081  0.0020
[...]
                                           -0.0167 -0.4987 -0.0067
   157. (0.00166) RY*( 7) H   4           s(  0.00%)p 1.00( 14.26%)d 6.01( 85.74%)
                                            0.0000  0.0000  0.0000  0.0000  0.0000
                                            0.0000  0.0000  0.0000  0.0000  0.0000
                                            0.3211 -0.1691  0.1046  0.0000  0.0000
                                            0.2095  0.0142  0.9013  0.0292  0.0000
                                            0.0000  0.0000  0.0000
   158. (0.00095) RY*( 8) H   4           s(  0.00%)p 1.00(  6.04%)d15.57( 93.96%)
                                            0.0000  0.0000  0.0000  0.0000  0.0000
                                            0.0000  0.0000  0.0000  0.0000  0.0000
                                            0.0607  0.2190 -0.0932  0.0000  0.0000
                                            0.9451 -0.1041 -0.1868 -0.0282  0.0000
                                            0.0000  0.0000  0.0000
   159. (0.00088) RY*( 9) H   4           s(  0.13%)p20.12(  2.63%)d99.99( 97.24%)
                                            0.0009 -0.0151  0.0105  0.0311 -0.1145
                                           -0.0462  0.0210  0.0784  0.0662 -0.0094
                                           -0.0000 -0.0000 -0.0000 -0.3875  0.0296
                                           -0.0000 -0.0000 -0.0000 -0.0000  0.3417
                                           -0.0182 -0.8355  0.0787
   160. (0.00072) RY*(10) H   4           s(  0.00%)p 1.00( 88.30%)d 0.13( 11.70%)
                                            0.0000  0.0000  0.0000  0.0000  0.0000
                                            0.0000  0.0000  0.0000  0.0000  0.0000
                                            0.1512  0.8770 -0.3019  0.0000  0.0000
                                           -0.2122 -0.0370  0.2013 -0.1733  0.0000
                                            0.0000  0.0000  0.0000
   161. (0.00073) RY*(11) H   4           s( 26.53%)p 2.57( 68.05%)d 0.20(  5.42%)
                                            0.0093 -0.0357  0.5062 -0.0875 -0.0014
                                            0.2632  0.1357 -0.1661  0.4941  0.5667
                                            0.0000  0.0000  0.0000 -0.0083  0.0685
                                            0.0000  0.0000  0.0000  0.0000  0.1021
                                           -0.1506  0.0503 -0.1174
   162. (0.00035) RY*(12) H   4           s(  0.09%)p99.99( 94.64%)d59.51(  5.27%)
                                           -0.0057  0.0262 -0.0043 -0.0121 -0.0285
                                            0.8763 -0.0386  0.0569 -0.4144 -0.0333
                                           -0.0000 -0.0000 -0.0000 -0.0368 -0.1702
                                           -0.0000 -0.0000 -0.0000 -0.0000  0.0120
                                           -0.1370 -0.0564 -0.0176
   163. (0.00026) RY*(13) H   4           s( 32.40%)p 1.22( 39.62%)d 0.86( 27.97%)
                                            0.0100 -0.0572 -0.2999  0.4803  0.0500
                                            0.2917  0.0614 -0.0391  0.5397 -0.1097
                                            0.0000  0.0000  0.0000  0.0712 -0.2184
                                            0.0000  0.0000  0.0000  0.0000  0.0121
                                            0.3812  0.0167  0.2850
   164. (0.00016) RY*(14) H   4           s( 81.56%)p 0.17( 13.77%)d 0.06(  4.67%)
                                            0.0008  0.0354  0.6859  0.5864 -0.0540
                                           -0.1310 -0.1897 -0.0243 -0.2323 -0.1647
                                            0.0000  0.0000  0.0000 -0.0700 -0.1599
                                            0.0000  0.0000  0.0000  0.0000 -0.0079
                                            0.0776  0.0509  0.0867
   165. (0.00011) RY*(15) H   4           s(  3.32%)p 4.99( 16.56%)d24.12( 80.12%)
                                            0.0008  0.0151  0.1808 -0.0168  0.0544
                                            0.1986  0.2280  0.0098 -0.0473 -0.2625
                                            0.0000  0.0000  0.0000  0.0276  0.7808
                                            0.0000  0.0000  0.0000  0.0000  0.0474
                                            0.4323  0.0098 -0.0397
   166. (0.00009) RY*(16) H   4           s(  0.00%)p 1.00( 99.37%)d 0.01(  0.63%)
   167. (0.00009) RY*(17) H   4           s(  0.00%)p 1.00(  3.57%)d27.00( 96.43%)
   168. (0.00006) RY*(18) H   4           s( 35.05%)p 0.13(  4.41%)d 1.73( 60.53%)
   169. (0.00007) RY*(19) H   4           s( 11.23%)p 6.44( 72.29%)d 1.47( 16.48%)
   170. (0.00005) RY*(20) H   4           s(  7.72%)p11.36( 87.64%)d 0.60(  4.65%)
   171. (0.00003) RY*(21) H   4           s(  0.00%)p 1.00(  0.41%)d99.99( 99.59%)
   172. (0.00003) RY*(22) H   4           s(  0.25%)p 7.61(  1.87%)d99.99( 97.89%)
   173. (0.05555) BD*( 1) O   1 -Cl   2  
                ( 43.70%)   0.6610* O   1 s(  8.39%)p10.87( 91.13%)d 0.05(  0.46%)
                                                  f 0.00(  0.02%)
                                           -0.0003 -0.2815  0.0667 -0.0134  0.0010
                                           -0.9528  0.0496  0.0152  0.0166 -0.0119
                                            0.0176  0.0018 -0.0034 -0.0000 -0.0000
                                           -0.0000 -0.0000  0.0093  0.0008 -0.0007
                                           -0.0000 -0.0000 -0.0000 -0.0000 -0.0000
                                           -0.0000 -0.0553 -0.0024 -0.0001  0.0378
                                            0.0024 -0.0007 -0.0000 -0.0000  0.0099
                                           -0.0005 -0.0002  0.0003 -0.0000 -0.0000
                                           -0.0000 -0.0000 -0.0094 -0.0002  0.0007
                                           -0.0012
                ( 56.30%)  -0.7504*Cl   2 s(  9.75%)p 9.14( 89.09%)d 0.11(  1.04%)
                                                  f 0.01(  0.12%)
                                            0.0000 -0.0007 -0.3057  0.0625  0.0113
                                            0.0018  0.0004  0.9415 -0.0657 -0.0124
                                            0.0011  0.0000  0.0080  0.0053 -0.0026
                                            0.0023 -0.0000 -0.0000 -0.0000 -0.0000
                                           -0.0000 -0.0072  0.0012  0.0010 -0.0000
                                           -0.0000 -0.0000 -0.0000 -0.0000 -0.0000
                                           -0.0846  0.0139  0.0028  0.0536 -0.0089
                                           -0.0025 -0.0000 -0.0000 -0.0215  0.0024
                                           -0.0003  0.0002 -0.0000 -0.0000 -0.0000
                                           -0.0000  0.0268 -0.0027  0.0009 -0.0005
   174. (0.25286) BD*( 1) I   3 - H   4  
                ( 28.00%)   0.5291* I   3 s( 13.11%)p 6.60( 86.55%)d 0.02(  0.30%)
                                                  f 0.00(  0.03%)
                                           -0.0005 -0.3620  0.0081  0.0052 -0.0002
                                           -0.0005 -0.0002 -0.2156  0.0052  0.0013
                                            0.0003 -0.0010 -0.9046  0.0260  0.0068
                                            0.0006 -0.0000 -0.0000 -0.0000 -0.0000
                                           -0.0000 -0.0000 -0.0209 -0.0005  0.0011
                                           -0.0000 -0.0000 -0.0000 -0.0000 -0.0000
                                           -0.0000 -0.0000 -0.0000  0.0000  0.0424
                                            0.0021 -0.0017  0.0000  0.0282  0.0007
                                           -0.0009 -0.0000 -0.0000  0.0026 -0.0001
                                            0.0111 -0.0004 -0.0000 -0.0000 -0.0000
                                           -0.0000  0.0090 -0.0004  0.0110 -0.0009
                ( 72.00%)  -0.8485* H   4 s( 99.69%)p 0.00(  0.28%)d 0.00(  0.03%)
                                           -0.9983  0.0176  0.0091 -0.0014  0.0111
                                            0.0001  0.0043  0.0471  0.0181  0.0080
                                           -0.0000 -0.0000 -0.0000 -0.0045 -0.0055
                                           -0.0000 -0.0000 -0.0000 -0.0000  0.0091
                                            0.0090  0.0090  0.0068


 NHO Directionality and "Bond Bending" (deviations from line of nuclear centers)

         [Thresholds for printing:  angular deviation  >  1.0 degree]
                                    hybrid p-character > 25.0%
                                    orbital occupancy  >  0.10e

                                Line of Centers        Hybrid 1              Hybrid 2
                                ---------------  -------------------   ------------------
                NBO               Theta   Phi    Theta   Phi    Dev    Theta   Phi    Dev
 ========================================================================================
    19. LP (   2) O   1             --     --      0.0    0.0   --       --     --    --
    20. LP (   3) O   1             --     --     90.0  264.4   --       --     --    --
    22. LP (   2)Cl   2             --     --      0.0    0.0   --       --     --    --
    23. LP (   3)Cl   2             --     --     90.0   89.9   --       --     --    --
    25. LP (   2) I   3             --     --      0.0    0.0   --       --     --    --
    26. LP (   3) I   3             --     --     90.0  346.4   --       --     --    --


 Natural Bond Orbitals (Summary):

           NBO                  Occupancy  
 -----------------------------------------------
 Molecular unit  1  (OCl)
     1. BD (   1) O   1 -Cl   2          1.93444
     3. CR (   1) O   1                  1.99986
     4. CR (   1)Cl   2                  2.00000
     5. CR (   2)Cl   2                  1.99974
     6. CR (   3)Cl   2                  1.99995
     7. CR (   4)Cl   2                  2.00003
     8. CR (   5)Cl   2                  2.00003
    18. LP (   1) O   1                  1.96728
    19. LP (   2) O   1                  1.94549
    20. LP (   3) O   1                  1.73389
    21. LP (   1)Cl   2                  1.97408
    22. LP (   2)Cl   2                  1.95431
    23. LP (   3)Cl   2                  1.95190
    27. RY*(   1) O   1                  0.02379
    28. RY*(   2) O   1                  0.01946
    29. RY*(   3) O   1                  0.00887
    30. RY*(   4) O   1                  0.00684
    31. RY*(   5) O   1                  0.00677
    32. RY*(   6) O   1                  0.00635
    33. RY*(   7) O   1                  0.00586
    34. RY*(   8) O   1                  0.00516
    35. RY*(   9) O   1                  0.00211
    36. RY*(  10) O   1                  0.00071
    37. RY*(  11) O   1                  0.00067
    38. RY*(  12) O   1                  0.00066
    39. RY*(  13) O   1                  0.00061
    40. RY*(  14) O   1                  0.00054
    41. RY*(  15) O   1                  0.00053
    42. RY*(  16) O   1                  0.00051
    43. RY*(  17) O   1                  0.00049
    44. RY*(  18) O   1                  0.00048
    45. RY*(  19) O   1                  0.00047
    46. RY*(  20) O   1                  0.00048
    47. RY*(  21) O   1                  0.00046
    48. RY*(  22) O   1                  0.00044
    49. RY*(  23) O   1                  0.00042
    50. RY*(  24) O   1                  0.00029
    51. RY*(  25) O   1                  0.00027
    52. RY*(  26) O   1                  0.00013
    53. RY*(  27) O   1                  0.00013
    54. RY*(  28) O   1                  0.00012
    55. RY*(  29) O   1                  0.00010
    56. RY*(  30) O   1                  0.00010
    57. RY*(  31) O   1                  0.00009
    58. RY*(  32) O   1                  0.00008
    59. RY*(  33) O   1                  0.00009
    60. RY*(  34) O   1                  0.00009
    61. RY*(  35) O   1                  0.00009
    62. RY*(  36) O   1                  0.00008
    63. RY*(  37) O   1                  0.00008
    64. RY*(  38) O   1                  0.00004
    65. RY*(  39) O   1                  0.00004
    66. RY*(  40) O   1                 -0.00004
    67. RY*(  41) O   1                 -0.00029
    68. RY*(   1)Cl   2                  0.02619
    69. RY*(   2)Cl   2                  0.02344
    70. RY*(   3)Cl   2                  0.01715
    71. RY*(   4)Cl   2                  0.01713
    72. RY*(   5)Cl   2                  0.01344
    73. RY*(   6)Cl   2                  0.01021
    74. RY*(   7)Cl   2                  0.00995
    75. RY*(   8)Cl   2                  0.00707
    76. RY*(   9)Cl   2                  0.00197
    77. RY*(  10)Cl   2                  0.00127
    78. RY*(  11)Cl   2                  0.00127
    79. RY*(  12)Cl   2                  0.00123
    80. RY*(  13)Cl   2                  0.00124
    81. RY*(  14)Cl   2                  0.00119
    82. RY*(  15)Cl   2                  0.00117
    83. RY*(  16)Cl   2                  0.00102
    84. RY*(  17)Cl   2                  0.00082
    85. RY*(  18)Cl   2                  0.00081
    86. RY*(  19)Cl   2                  0.00076
    87. RY*(  20)Cl   2                  0.00075
    88. RY*(  21)Cl   2                  0.00046
    89. RY*(  22)Cl   2                  0.00038
    90. RY*(  23)Cl   2                  0.00035
    91. RY*(  24)Cl   2                  0.00032
    92. RY*(  25)Cl   2                  0.00018
    93. RY*(  26)Cl   2                  0.00018
    94. RY*(  27)Cl   2                  0.00015
    95. RY*(  28)Cl   2                  0.00015
    96. RY*(  29)Cl   2                  0.00013
    97. RY*(  30)Cl   2                  0.00013
    98. RY*(  31)Cl   2                  0.00013
    99. RY*(  32)Cl   2                  0.00013
   100. RY*(  33)Cl   2                  0.00011
   101. RY*(  34)Cl   2                  0.00011
   102. RY*(  35)Cl   2                  0.00010
   103. RY*(  36)Cl   2                  0.00009
   104. RY*(  37)Cl   2                  0.00008
   105. RY*(  38)Cl   2                  0.00005
   106. RY*(  39)Cl   2                  0.00003
   107. RY*(  40)Cl   2                  0.00004
   108. RY*(  41)Cl   2                  0.00002
   173. BD*(   1) O   1 -Cl   2          0.05555
       -------------------------------
              Total Lewis   25.46100  ( 98.8696%)
        Valence non-Lewis    0.05555  (  0.2157%)
        Rydberg non-Lewis    0.23556  (  0.9147%)
       -------------------------------
            Total unit  1   25.75211  (100.0000%)
           Charge unit  1   -0.75211

 Molecular unit  2  (HI)
     2. BD (   1) I   3 - H   4          1.95204
     9. CR (   1) I   3                  1.99905
    10. CR (   2) I   3                  1.99983
    11. CR (   3) I   3                  1.99943
    12. CR (   4) I   3                  1.99985
    13. CR (   5) I   3                  1.99657
    14. CR (   6) I   3                  1.99680
    15. CR (   7) I   3                  1.99671
    16. CR (   8) I   3                  1.99620
    17. CR (   9) I   3                  1.99656
    24. LP (   1) I   3                  1.97409
    25. LP (   2) I   3                  1.95299
    26. LP (   3) I   3                  1.95278
   109. RY*(   1) I   3                  0.01895
   110. RY*(   2) I   3                  0.01894
   111. RY*(   3) I   3                  0.01738
   112. RY*(   4) I   3                  0.01722
   113. RY*(   5) I   3                  0.01633
   114. RY*(   6) I   3                  0.00907
   115. RY*(   7) I   3                  0.00906
   116. RY*(   8) I   3                  0.00801
   117. RY*(   9) I   3                  0.00341
   118. RY*(  10) I   3                  0.00271
   119. RY*(  11) I   3                  0.00271
   120. RY*(  12) I   3                  0.00246
   121. RY*(  13) I   3                  0.00246
   122. RY*(  14) I   3                  0.00201
   123. RY*(  15) I   3                  0.00202
   124. RY*(  16) I   3                  0.00199
   125. RY*(  17) I   3                  0.00147
   126. RY*(  18) I   3                  0.00147
   127. RY*(  19) I   3                  0.00111
   128. RY*(  20) I   3                  0.00093
   129. RY*(  21) I   3                  0.00091
   130. RY*(  22) I   3                  0.00070
   131. RY*(  23) I   3                  0.00056
   132. RY*(  24) I   3                  0.00056
   133. RY*(  25) I   3                  0.00039
   134. RY*(  26) I   3                  0.00039
   135. RY*(  27) I   3                  0.00037
   136. RY*(  28) I   3                  0.00034
   137. RY*(  29) I   3                  0.00031
   138. RY*(  30) I   3                  0.00030
   139. RY*(  31) I   3                  0.00029
   140. RY*(  32) I   3                  0.00026
   141. RY*(  33) I   3                  0.00019
   142. RY*(  34) I   3                  0.00017
   143. RY*(  35) I   3                  0.00015
   144. RY*(  36) I   3                  0.00012
   145. RY*(  37) I   3                  0.00011
   146. RY*(  38) I   3                  0.00009
   147. RY*(  39) I   3                  0.00008
   148. RY*(  40) I   3                  0.00007
   149. RY*(  41) I   3                  0.00007
   150. RY*(  42) I   3                  0.00001
   151. RY*(   1) H   4                  0.00893
   152. RY*(   2) H   4                  0.00769
   153. RY*(   3) H   4                  0.00572
   154. RY*(   4) H   4                  0.00391
   155. RY*(   5) H   4                  0.00177
   156. RY*(   6) H   4                  0.00170
   157. RY*(   7) H   4                  0.00166
   158. RY*(   8) H   4                  0.00095
   159. RY*(   9) H   4                  0.00088
   160. RY*(  10) H   4                  0.00072
   161. RY*(  11) H   4                  0.00073
   162. RY*(  12) H   4                  0.00035
   163. RY*(  13) H   4                  0.00026
   164. RY*(  14) H   4                  0.00016
   165. RY*(  15) H   4                  0.00011
   166. RY*(  16) H   4                  0.00009
   167. RY*(  17) H   4                  0.00009
   168. RY*(  18) H   4                  0.00006
   169. RY*(  19) H   4                  0.00007
   170. RY*(  20) H   4                  0.00005
   171. RY*(  21) H   4                  0.00003
   172. RY*(  22) H   4                  0.00003
   174. BD*(   1) I   3 - H   4          0.25286
       -------------------------------
              Total Lewis   53.81290  ( 99.1982%)
        Valence non-Lewis    0.25286  (  0.4661%)
        Rydberg non-Lewis    0.18213  (  0.3357%)
       -------------------------------
            Total unit  2   54.24789  (100.0000%)
           Charge unit  2   -0.24789
 Leave Link  607 at Tue Oct 12 15:38:19 2021, MaxMem=  1048576000 cpu:        10.0
 (Enter /usr/local/gaussian/g09/l9999.exe)
 1\1\GINC-KRYPTON\SP\RMP2-FC\Gen\Cl1H1I1O1(1-)\CGAVINH\12-Oct-2021\0\\#
 p pop=NBO SP NoSymm mp2/gen Pseudo=read density=current\\title\\-1,1\O
 \X,1,10.\Cl,1,1.68652173,2,90.\I,1,3.31229946,2,90.,3,103.24540347,0\H
 ,1,1.5,2,90.,3,103.24540347,0\\Version=ES64L-G09RevE.01\HF=-829.627785
 1\MP2=-830.3300044\RMSD=2.208e-09\Dipole=0.3873661,-0.3108577,0.\Quadr
 upole=4.2204852,-11.1716077,6.9511226,-4.5409439,0.,0.\PG=CS [SG(Cl1H1
 I1O1)]\\@


 DIATOMIC MOLECULES ARE PECULIAR BECAUSE THEY ONLY HAVE TWO ENDS,
 AND THESE ENDS ARE VERY CLOSE TOGETHER.
 KLAUS RUEDENBERG, REV.MOD.PHYS. PG 176, 32, (1960)
 Job cpu time:       0 days  0 hours  2 minutes 38.6 seconds.
 File lengths (MBytes):  RWF=     13 Int=      0 D2E=      0 Chk=      3 Scr=      1
 Normal termination of Gaussian 09 at Tue Oct 12 15:38:19 2021.
