 Entering Gaussian System, Link 0=g09
 Input=ihocl_rOH_130_sp.gjf
 Output=ihocl_rOH_130_sp.log
 Initial command:
 /usr/local/gaussian/g09/l1.exe "/scratch/Gau-27096.inp" -scrdir="/scratch/"
 Entering Link 1 = /usr/local/gaussian/g09/l1.exe PID=     27097.
  
 Copyright (c) 1988,1990,1992,1993,1995,1998,2003,2009,2015,
            Gaussian, Inc.  All Rights Reserved.
  
 This is part of the Gaussian(R) 09 program.  It is based on
 the Gaussian(R) 03 system (copyright 2003, Gaussian, Inc.),
 the Gaussian(R) 98 system (copyright 1998, Gaussian, Inc.),
 the Gaussian(R) 94 system (copyright 1995, Gaussian, Inc.),
 the Gaussian 92(TM) system (copyright 1992, Gaussian, Inc.),
 the Gaussian 90(TM) system (copyright 1990, Gaussian, Inc.),
 the Gaussian 88(TM) system (copyright 1988, Gaussian, Inc.),
 the Gaussian 86(TM) system (copyright 1986, Carnegie Mellon
 University), and the Gaussian 82(TM) system (copyright 1983,
 Carnegie Mellon University). Gaussian is a federally registered
 trademark of Gaussian, Inc.
  
 This software contains proprietary and confidential information,
 including trade secrets, belonging to Gaussian, Inc.
  
 This software is provided under written license and may be
 used, copied, transmitted, or stored only in accord with that
 written license.
  
 The following legend is applicable only to US Government
 contracts under FAR:
  
                    RESTRICTED RIGHTS LEGEND
  
 Use, reproduction and disclosure by the US Government is
 subject to restrictions as set forth in subparagraphs (a)
 and (c) of the Commercial Computer Software - Restricted
 Rights clause in FAR 52.227-19.
  
 Gaussian, Inc.
 340 Quinnipiac St., Bldg. 40, Wallingford CT 06492
  
  
 ---------------------------------------------------------------
 Warning -- This program may not be used in any manner that
 competes with the business of Gaussian, Inc. or will provide
 assistance to any competitor of Gaussian, Inc.  The licensee
 of this program is prohibited from giving any competitor of
 Gaussian, Inc. access to this program.  By using this program,
 the user acknowledges that Gaussian, Inc. is engaged in the
 business of creating and licensing software in the field of
 computational chemistry and represents and warrants to the
 licensee that it is not a competitor of Gaussian, Inc. and that
 it will not use this program in any manner prohibited above.
 ---------------------------------------------------------------
  

 Cite this work as:
 Gaussian 09, Revision E.01,
 M. J. Frisch, G. W. Trucks, H. B. Schlegel, G. E. Scuseria, 
 M. A. Robb, J. R. Cheeseman, G. Scalmani, V. Barone, B. Mennucci, 
 G. A. Petersson, H. Nakatsuji, M. Caricato, X. Li, H. P. Hratchian, 
 A. F. Izmaylov, J. Bloino, G. Zheng, J. L. Sonnenberg, M. Hada, 
 M. Ehara, K. Toyota, R. Fukuda, J. Hasegawa, M. Ishida, T. Nakajima, 
 Y. Honda, O. Kitao, H. Nakai, T. Vreven, J. A. Montgomery, Jr., 
 J. E. Peralta, F. Ogliaro, M. Bearpark, J. J. Heyd, E. Brothers, 
 K. N. Kudin, V. N. Staroverov, T. Keith, R. Kobayashi, J. Normand, 
 K. Raghavachari, A. Rendell, J. C. Burant, S. S. Iyengar, J. Tomasi, 
 M. Cossi, N. Rega, J. M. Millam, M. Klene, J. E. Knox, J. B. Cross, 
 V. Bakken, C. Adamo, J. Jaramillo, R. Gomperts, R. E. Stratmann, 
 O. Yazyev, A. J. Austin, R. Cammi, C. Pomelli, J. W. Ochterski, 
 R. L. Martin, K. Morokuma, V. G. Zakrzewski, G. A. Voth, 
 P. Salvador, J. J. Dannenberg, S. Dapprich, A. D. Daniels, 
 O. Farkas, J. B. Foresman, J. V. Ortiz, J. Cioslowski, 
 and D. J. Fox, Gaussian, Inc., Wallingford CT, 2013.
 
 ******************************************
 Gaussian 09:  ES64L-G09RevE.01 30-Nov-2015
                12-Oct-2021 
 ******************************************
 %nproc=12
 Will use up to   12 processors via shared memory.
 %mem=8000MB
 %chk=/home/netid.washington.edu/cgavinh/mccoy_hocl/rOH_s_oop_0/ihocl/ihocl_rOH_1
 30_sp.chk
 --------------------------------------------------------
 #p pop=NBO SP NoSymm mp2/gen Pseudo=read density=current
 --------------------------------------------------------
 1/30=1,38=1/1;
 2/12=2,15=1,17=6,18=5,40=1/2;
 3/5=7,11=9,16=1,17=8,25=1,30=1,71=1/1,2,3;
 4//1;
 5/5=2,38=5/2;
 8/6=4,10=1/1;
 9/15=1,16=-3/6;
 10/5=1,13=10,31=1/2;
 6/7=2,8=2,9=2,10=2,22=-1,40=1/1,7;
 99/5=1,9=1/99;
 Leave Link    1 at Tue Oct 12 15:36:52 2021, MaxMem=  1048576000 cpu:         0.2
 (Enter /usr/local/gaussian/g09/l101.exe)
 -----
 title
 -----
 Symbolic Z-matrix:
 Charge = -1 Multiplicity = 1
 O
 X                    1     10. 
 Cl                   1    r1       2     90. 
 I                    1    r2       2     90.      3    a1       0
 H                    1    r3       2    oop      3    a1       0
       Variables:
  r1                    1.68652                  
  r2                    3.3123                   
  r3                    1.3                      
  a1                  103.2454                   
  OOP                  90.                       
 
 NAtoms=      4 NQM=        4 NQMF=       0 NMMI=      0 NMMIF=      0
                NMic=       0 NMicF=      0.
                    Isotopes and Nuclear Properties:
 (Nuclear quadrupole moments (NQMom) in fm**2, nuclear magnetic moments (NMagM)
  in nuclear magnetons)

  Atom         1           2           3           4
 IAtWgt=          16          35         127           1
 AtmWgt=  15.9949146  34.9688527 126.9004000   1.0078250
 NucSpn=           0           3           5           1
 AtZEff=   0.0000000   0.0000000   0.0000000   0.0000000
 NQMom=    0.0000000  -8.1650000 -71.0000000   0.0000000
 NMagM=    0.0000000   0.8218740   2.8132800   2.7928460
 AtZNuc=   8.0000000  17.0000000  53.0000000   1.0000000
 Leave Link  101 at Tue Oct 12 15:36:52 2021, MaxMem=  1048576000 cpu:         0.5
 (Enter /usr/local/gaussian/g09/l202.exe)
                          Input orientation:                          
 ---------------------------------------------------------------------
 Center     Atomic      Atomic             Coordinates (Angstroms)
 Number     Number       Type             X           Y           Z
 ---------------------------------------------------------------------
      1          8           0        0.000000    0.000000    0.000000
      2         17           0        1.686522    0.000000    0.000000
      3         53           0       -0.758922   -3.224184    0.000000
      4          1           0       -0.297859   -1.265417    0.000000
 ---------------------------------------------------------------------
                    Distance matrix (angstroms):
                    1          2          3          4
     1  O    0.000000
     2  Cl   1.686522   0.000000
     3  I    3.312299   4.046673   0.000000
     4  H    1.300000   2.353518   2.012299   0.000000
 Symmetry turned off by external request.
 Stoichiometry    ClHIO(1-)
 Framework group  CS[SG(ClHIO)]
 Deg. of freedom     5
 Full point group                 CS      NOp   2
 Rotational constants (GHZ):     21.8924690      0.9705747      0.9293722
 Leave Link  202 at Tue Oct 12 15:36:52 2021, MaxMem=  1048576000 cpu:         0.0
 (Enter /usr/local/gaussian/g09/l301.exe)
 General basis read from cards:  (5D, 7F)
 Centers:       4      1      2
 aug-cc-pVTZ
 ****
 Centers:       3
 S 11 1.00
     Exponent=  5.5465000000D+03 Coefficients=  1.5600000000D-04
     Exponent=  8.3821400000D+02 Coefficients=  9.8600000000D-04
     Exponent=  1.8218700000D+02 Coefficients=  2.7920000000D-03
     Exponent=  3.1212300000D+01 Coefficients= -4.3251000000D-02
     Exponent=  1.9531400000D+01 Coefficients=  2.3413400000D-01
     Exponent=  8.2409900000D+00 Coefficients= -7.5094300000D-01
     Exponent=  2.1945500000D+00 Coefficients=  8.8296800000D-01
     Exponent=  1.1091100000D+00 Coefficients=  4.6206100000D-01
     Exponent=  3.7464100000D-01 Coefficients=  2.2286000000D-02
     Exponent=  1.7708000000D-01 Coefficients= -4.3530000000D-03
     Exponent=  8.1061000000D-02 Coefficients=  1.1020000000D-03
 S 11 1.00
     Exponent=  5.5465000000D+03 Coefficients= -7.3000000000D-05
     Exponent=  8.3821400000D+02 Coefficients= -5.0800000000D-04
     Exponent=  1.8218700000D+02 Coefficients= -1.1580000000D-03
     Exponent=  3.1212300000D+01 Coefficients=  1.2193000000D-02
     Exponent=  1.9531400000D+01 Coefficients= -8.7854000000D-02
     Exponent=  8.2409900000D+00 Coefficients=  3.3820000000D-01
     Exponent=  2.1945500000D+00 Coefficients= -5.7655000000D-01
     Exponent=  1.1091100000D+00 Coefficients= -4.0929800000D-01
     Exponent=  3.7464100000D-01 Coefficients=  5.6745900000D-01
     Exponent=  1.7708000000D-01 Coefficients=  6.1248900000D-01
     Exponent=  8.1061000000D-02 Coefficients=  1.4323100000D-01
 S 1 1.00
     Exponent=  3.7464100000D-01 Coefficients=  1.0000000000D+00
 S 1 1.00
     Exponent=  1.7708000000D-01 Coefficients=  1.0000000000D+00
 S 1 1.00
     Exponent=  1.0010000000D-01 Coefficients=  1.0000000000D+00
 S 1 1.00
     Exponent=  4.1200000000D-02 Coefficients=  1.0000000000D+00
 P 9 1.00
     Exponent=  1.8898800000D+02 Coefficients=  5.8500000000D-04
     Exponent=  2.1286800000D+01 Coefficients=  3.6923000000D-02
     Exponent=  1.0039600000D+01 Coefficients= -2.3532400000D-01
     Exponent=  3.4518000000D+00 Coefficients=  3.4148300000D-01
     Exponent=  1.9745600000D+00 Coefficients=  5.3478800000D-01
     Exponent=  1.0242000000D+00 Coefficients=  2.6514100000D-01
     Exponent=  4.4943700000D-01 Coefficients=  2.5787000000D-02
     Exponent=  1.8664800000D-01 Coefficients=  5.2200000000D-04
     Exponent=  7.3481000000D-02 Coefficients=  6.0600000000D-04
 P 9 1.00
     Exponent=  1.8898800000D+02 Coefficients= -2.5600000000D-04
     Exponent=  2.1286800000D+01 Coefficients= -1.1682000000D-02
     Exponent=  1.0039600000D+01 Coefficients=  8.3192000000D-02
     Exponent=  3.4518000000D+00 Coefficients= -1.5697000000D-01
     Exponent=  1.9745600000D+00 Coefficients= -2.2451800000D-01
     Exponent=  1.0242000000D+00 Coefficients= -1.1445100000D-01
     Exponent=  4.4943700000D-01 Coefficients=  3.7535600000D-01
     Exponent=  1.8664800000D-01 Coefficients=  5.7513600000D-01
     Exponent=  7.3481000000D-02 Coefficients=  2.4591700000D-01
 P 1 1.00
     Exponent=  5.9810000000D-01 Coefficients=  1.0000000000D+00
 P 1 1.00
     Exponent=  9.6180000000D-02 Coefficients=  1.0000000000D+00
 P 1 1.00
     Exponent=  3.5900000000D-02 Coefficients=  1.0000000000D+00
 D 9 1.00
     Exponent=  1.3266200000D+02 Coefficients=  5.7200000000D-04
     Exponent=  3.7605400000D+01 Coefficients=  4.4020000000D-03
     Exponent=  1.0389100000D+01 Coefficients= -4.0922000000D-02
     Exponent=  6.4901700000D+00 Coefficients=  9.9661000000D-02
     Exponent=  3.4545100000D+00 Coefficients=  3.2266300000D-01
     Exponent=  1.8441300000D+00 Coefficients=  4.0034300000D-01
     Exponent=  9.6247800000D-01 Coefficients=  2.6830600000D-01
     Exponent=  4.7285300000D-01 Coefficients=  8.4847000000D-02
     Exponent=  1.9320000000D-01 Coefficients=  7.6320000000D-03
 D 1 1.00
     Exponent=  4.7285300000D-01 Coefficients=  1.0000000000D+00
 D 1 1.00
     Exponent=  1.9320000000D-01 Coefficients=  1.0000000000D+00
 D 1 1.00
     Exponent=  7.8200000000D-02 Coefficients=  1.0000000000D+00
 F 1 1.00
     Exponent=  4.0640000000D-01 Coefficients=  1.0000000000D+00
 F 1 1.00
     Exponent=  1.8480000000D-01 Coefficients=  1.0000000000D+00
 ****
 ======================================================================================================
                                       Pseudopotential Parameters
 ======================================================================================================
  Center     Atomic      Valence      Angular      Power
  Number     Number     Electrons     Momentum     of R      Exponent        Coefficient   SO-Coeffient
 ======================================================================================================
    1          8
                                   No pseudopotential on this center.
    2         17
                                   No pseudopotential on this center.
    3         53           25
                                      G and up 
                                                     2        1.0000000        0.00000000    0.00000000
                                      S - G
                                                     2       40.0333760       49.98964900    0.00000000
                                                     2       17.3005760      281.00655600    0.00000000
                                                     2        8.8517200       61.41673900    0.00000000
                                      P - G
                                                     2       15.7201410       67.41623900    0.00000000
                                                     2       15.2082220      134.80769600    0.00000000
                                                     2        8.2941860       14.56654800    0.00000000
                                                     2        7.7539490       28.96842200    0.00000000
                                      D - G
                                                     2       13.8177510       35.53875600    0.00000000
                                                     2       13.5878050       53.33975900    0.00000000
                                                     2        6.9476300        9.71646600    0.00000000
                                                     2        6.9600990       14.97750000    0.00000000
                                      F - G
                                                     2       18.5229500      -20.17661800    0.00000000
                                                     2       18.2510350      -26.08807700    0.00000000
                                                     2        7.5579010       -0.22043400    0.00000000
                                                     2        7.5974040       -0.22164600    0.00000000
    4          1
                                   No pseudopotential on this center.
 ======================================================================================================
 Ernie: Thresh=  0.10000D-02 Tol=  0.10000D-05 Strict=F.
 Ernie:  23 primitive shells out of 166 were deleted.
   174 basis functions,   383 primitive gaussians,   204 cartesian basis functions
    26 alpha electrons       26 beta electrons
       nuclear repulsion energy       143.8544884177 Hartrees.
 IExCor=    0 DFT=F Ex=HF Corr=None ExCW=0 ScaHFX=  1.000000
 ScaDFX=  1.000000  1.000000  1.000000  1.000000 ScalE2=  1.000000  1.000000
 IRadAn=      0 IRanWt=     -1 IRanGd=            0 ICorTp=0 IEmpDi=  4
 NAtoms=    4 NActive=    4 NUniq=    4 SFac= 1.00D+00 NAtFMM=   60 NAOKFM=F Big=F
 Integral buffers will be    131072 words long.
 Raffenetti 1 integral format.
 Two-electron integral symmetry is turned off.
 Leave Link  301 at Tue Oct 12 15:36:53 2021, MaxMem=  1048576000 cpu:         0.6
 (Enter /usr/local/gaussian/g09/l302.exe)
 NPDir=0 NMtPBC=     1 NCelOv=     1 NCel=       1 NClECP=     1 NCelD=      1
         NCelK=      1 NCelE2=     1 NClLst=     1 CellRange=     0.0.
 One-electron integrals computed using PRISM.
   1 Symmetry operations used in ECPInt.
 ECPInt:  NShTT=    1596 NPrTT=   10643 LenC2=    1597 LenP2D=    8417.
 LDataN:  DoStor=T MaxTD1= 7 Len=  274
 NBasis=   174 RedAO= T EigKep=  1.84D-04  NBF=   174
 NBsUse=   174 1.00D-06 EigRej= -1.00D+00 NBFU=   174
 Leave Link  302 at Tue Oct 12 15:36:53 2021, MaxMem=  1048576000 cpu:         2.8
 (Enter /usr/local/gaussian/g09/l303.exe)
 DipDrv:  MaxL=1.
 Leave Link  303 at Tue Oct 12 15:36:53 2021, MaxMem=  1048576000 cpu:         0.2
 (Enter /usr/local/gaussian/g09/l401.exe)
 ExpMin= 2.53D-02 ExpMax= 4.56D+05 ExpMxC= 1.44D+03 IAcc=3 IRadAn=         5 AccDes= 0.00D+00
 Harris functional with IExCor=  205 and IRadAn=       5 diagonalized for initial guess.
 HarFok:  IExCor=  205 AccDes= 0.00D+00 IRadAn=         5 IDoV= 1 UseB2=F ITyADJ=14
 ICtDFT=  3500011 ScaDFX=  1.000000  1.000000  1.000000  1.000000
 Defaulting to unpruned grid for atomic number  53.
 Defaulting to unpruned grid for atomic number  53.
 Defaulting to unpruned grid for atomic number  53.
 Defaulting to unpruned grid for atomic number  53.
 Defaulting to unpruned grid for atomic number  53.
 Defaulting to unpruned grid for atomic number  53.
 Defaulting to unpruned grid for atomic number  53.
 Defaulting to unpruned grid for atomic number  53.
 Defaulting to unpruned grid for atomic number  53.
 Defaulting to unpruned grid for atomic number  53.
 Defaulting to unpruned grid for atomic number  53.
 Defaulting to unpruned grid for atomic number  53.
 FoFCou: FMM=F IPFlag=           0 FMFlag=      100000 FMFlg1=           0
         NFxFlg=           0 DoJE=T BraDBF=F KetDBF=T FulRan=T
         wScrn=  0.000000 ICntrl=     500 IOpCl=  0 I1Cent=   200000004 NGrid=           0
         NMat0=    1 NMatS0=      1 NMatT0=    0 NMatD0=    1 NMtDS0=    0 NMtDT0=    0
 Symmetry not used in FoFCou.
 Harris En= -831.033957885618    
 JPrj=0 DoOrth=F DoCkMO=F.
 Leave Link  401 at Tue Oct 12 15:36:53 2021, MaxMem=  1048576000 cpu:         3.1
 (Enter /usr/local/gaussian/g09/l502.exe)
 Closed shell SCF:
 Using DIIS extrapolation, IDIIS=  1040.
 Two-electron integral symmetry not used.
 Keep R1 ints in memory in canonical form, NReq=124441309.
 IVT=      147078 IEndB=      147078 NGot=  1048576000 MDV=   932520998
 LenX=   932520998 LenY=   932478941
 Requested convergence on RMS density matrix=1.00D-08 within 128 cycles.
 Requested convergence on MAX density matrix=1.00D-06.
 Requested convergence on             energy=1.00D-06.
 No special actions if energy rises.
 FoFCou: FMM=F IPFlag=           0 FMFlag=           0 FMFlg1=           0
         NFxFlg=           0 DoJE=F BraDBF=F KetDBF=F FulRan=T
         wScrn=  0.000000 ICntrl=     600 IOpCl=  0 I1Cent=           0 NGrid=           0
         NMat0=    1 NMatS0=  15225 NMatT0=    0 NMatD0=    1 NMtDS0=    0 NMtDT0=    0
 Symmetry not used in FoFCou.

 Cycle   1  Pass 1  IDiag  1:
 E= -829.486926593716    
 DIIS: error= 2.94D-02 at cycle   1 NSaved=   1.
 NSaved= 1 IEnMin= 1 EnMin= -829.486926593716     IErMin= 1 ErrMin= 2.94D-02
 ErrMax= 2.94D-02  0.00D+00 EMaxC= 1.00D-01 BMatC= 4.66D-01 BMatP= 4.66D-01
 IDIUse=3 WtCom= 7.06D-01 WtEn= 2.94D-01
 Coeff-Com:  0.100D+01
 Coeff-En:   0.100D+01
 Coeff:      0.100D+01
 Gap=     0.528 Goal=   None    Shift=    0.000
 GapD=    0.528 DampG=2.000 DampE=0.500 DampFc=1.0000 IDamp=-1.
 RMSDP=4.08D-03 MaxDP=1.63D-01              OVMax= 1.39D-01

 Cycle   2  Pass 1  IDiag  1:
 E= -829.593488901873     Delta-E=       -0.106562308156 Rises=F Damp=F
 DIIS: error= 2.44D-02 at cycle   2 NSaved=   2.
 NSaved= 2 IEnMin= 2 EnMin= -829.593488901873     IErMin= 2 ErrMin= 2.44D-02
 ErrMax= 2.44D-02  0.00D+00 EMaxC= 1.00D-01 BMatC= 7.60D-02 BMatP= 4.66D-01
 IDIUse=3 WtCom= 7.56D-01 WtEn= 2.44D-01
 Coeff-Com:  0.231D+00 0.769D+00
 Coeff-En:   0.000D+00 0.100D+01
 Coeff:      0.175D+00 0.825D+00
 Gap=     0.382 Goal=   None    Shift=    0.000
 RMSDP=1.92D-03 MaxDP=9.08D-02 DE=-1.07D-01 OVMax= 9.53D-02

 Cycle   3  Pass 1  IDiag  1:
 E= -829.629905912959     Delta-E=       -0.036417011086 Rises=F Damp=F
 DIIS: error= 1.22D-02 at cycle   3 NSaved=   3.
 NSaved= 3 IEnMin= 3 EnMin= -829.629905912959     IErMin= 3 ErrMin= 1.22D-02
 ErrMax= 1.22D-02  0.00D+00 EMaxC= 1.00D-01 BMatC= 2.37D-02 BMatP= 7.60D-02
 IDIUse=3 WtCom= 8.78D-01 WtEn= 1.22D-01
 Coeff-Com:  0.287D-02 0.354D+00 0.643D+00
 Coeff-En:   0.000D+00 0.186D+00 0.814D+00
 Coeff:      0.252D-02 0.333D+00 0.664D+00
 Gap=     0.331 Goal=   None    Shift=    0.000
 RMSDP=5.33D-04 MaxDP=2.97D-02 DE=-3.64D-02 OVMax= 4.49D-02

 Cycle   4  Pass 1  IDiag  1:
 E= -829.646696092876     Delta-E=       -0.016790179917 Rises=F Damp=F
 DIIS: error= 1.97D-03 at cycle   4 NSaved=   4.
 NSaved= 4 IEnMin= 4 EnMin= -829.646696092876     IErMin= 4 ErrMin= 1.97D-03
 ErrMax= 1.97D-03  0.00D+00 EMaxC= 1.00D-01 BMatC= 3.50D-04 BMatP= 2.37D-02
 IDIUse=3 WtCom= 9.80D-01 WtEn= 1.97D-02
 Coeff-Com: -0.110D-01 0.711D-02 0.113D+00 0.891D+00
 Coeff-En:   0.000D+00 0.000D+00 0.000D+00 0.100D+01
 Coeff:     -0.108D-01 0.697D-02 0.111D+00 0.893D+00
 Gap=     0.335 Goal=   None    Shift=    0.000
 RMSDP=1.09D-04 MaxDP=6.41D-03 DE=-1.68D-02 OVMax= 4.56D-03

 Cycle   5  Pass 1  IDiag  1:
 E= -829.647035077014     Delta-E=       -0.000338984138 Rises=F Damp=F
 DIIS: error= 2.48D-04 at cycle   5 NSaved=   5.
 NSaved= 5 IEnMin= 5 EnMin= -829.647035077014     IErMin= 5 ErrMin= 2.48D-04
 ErrMax= 2.48D-04  0.00D+00 EMaxC= 1.00D-01 BMatC= 2.10D-05 BMatP= 3.50D-04
 IDIUse=3 WtCom= 9.98D-01 WtEn= 2.48D-03
 Coeff-Com:  0.201D-02-0.312D-01-0.621D-01-0.537D-01 0.115D+01
 Coeff-En:   0.000D+00 0.000D+00 0.000D+00 0.000D+00 0.100D+01
 Coeff:      0.200D-02-0.311D-01-0.620D-01-0.536D-01 0.114D+01
 Gap=     0.334 Goal=   None    Shift=    0.000
 RMSDP=5.21D-05 MaxDP=2.59D-03 DE=-3.39D-04 OVMax= 3.52D-03

 Cycle   6  Pass 1  IDiag  1:
 E= -829.647086201753     Delta-E=       -0.000051124739 Rises=F Damp=F
 DIIS: error= 1.26D-04 at cycle   6 NSaved=   6.
 NSaved= 6 IEnMin= 6 EnMin= -829.647086201753     IErMin= 6 ErrMin= 1.26D-04
 ErrMax= 1.26D-04  0.00D+00 EMaxC= 1.00D-01 BMatC= 2.53D-06 BMatP= 2.10D-05
 IDIUse=3 WtCom= 9.99D-01 WtEn= 1.26D-03
 Coeff-Com:  0.240D-03 0.909D-02 0.110D-01-0.860D-01-0.315D+00 0.138D+01
 Coeff-En:   0.000D+00 0.000D+00 0.000D+00 0.000D+00 0.000D+00 0.100D+01
 Coeff:      0.239D-03 0.908D-02 0.109D-01-0.859D-01-0.315D+00 0.138D+01
 Gap=     0.334 Goal=   None    Shift=    0.000
 RMSDP=1.98D-05 MaxDP=6.66D-04 DE=-5.11D-05 OVMax= 1.82D-03

 Cycle   7  Pass 1  IDiag  1:
 E= -829.647095268048     Delta-E=       -0.000009066295 Rises=F Damp=F
 DIIS: error= 3.53D-05 at cycle   7 NSaved=   7.
 NSaved= 7 IEnMin= 7 EnMin= -829.647095268048     IErMin= 7 ErrMin= 3.53D-05
 ErrMax= 3.53D-05  0.00D+00 EMaxC= 1.00D-01 BMatC= 2.10D-07 BMatP= 2.53D-06
 IDIUse=1 WtCom= 1.00D+00 WtEn= 0.00D+00
 Coeff-Com: -0.219D-03 0.121D-02 0.425D-02 0.196D-01-0.581D-01-0.231D+00
 Coeff-Com:  0.126D+01
 Coeff:     -0.219D-03 0.121D-02 0.425D-02 0.196D-01-0.581D-01-0.231D+00
 Coeff:      0.126D+01
 Gap=     0.334 Goal=   None    Shift=    0.000
 RMSDP=6.18D-06 MaxDP=2.19D-04 DE=-9.07D-06 OVMax= 6.41D-04

 Cycle   8  Pass 1  IDiag  1:
 E= -829.647096168780     Delta-E=       -0.000000900732 Rises=F Damp=F
 DIIS: error= 1.07D-05 at cycle   8 NSaved=   8.
 NSaved= 8 IEnMin= 8 EnMin= -829.647096168780     IErMin= 8 ErrMin= 1.07D-05
 ErrMax= 1.07D-05  0.00D+00 EMaxC= 1.00D-01 BMatC= 2.80D-08 BMatP= 2.10D-07
 IDIUse=1 WtCom= 1.00D+00 WtEn= 0.00D+00
 Coeff-Com: -0.130D-04-0.134D-02-0.137D-02 0.127D-01 0.413D-01-0.205D+00
 Coeff-Com:  0.923D-01 0.106D+01
 Coeff:     -0.130D-04-0.134D-02-0.137D-02 0.127D-01 0.413D-01-0.205D+00
 Coeff:      0.923D-01 0.106D+01
 Gap=     0.334 Goal=   None    Shift=    0.000
 RMSDP=2.27D-06 MaxDP=1.05D-04 DE=-9.01D-07 OVMax= 1.83D-04

 Cycle   9  Pass 1  IDiag  1:
 E= -829.647096259234     Delta-E=       -0.000000090455 Rises=F Damp=F
 DIIS: error= 3.03D-06 at cycle   9 NSaved=   9.
 NSaved= 9 IEnMin= 9 EnMin= -829.647096259234     IErMin= 9 ErrMin= 3.03D-06
 ErrMax= 3.03D-06  0.00D+00 EMaxC= 1.00D-01 BMatC= 2.64D-09 BMatP= 2.80D-08
 IDIUse=1 WtCom= 1.00D+00 WtEn= 0.00D+00
 Coeff-Com:  0.186D-04 0.168D-03-0.381D-04-0.544D-02-0.353D-02 0.690D-01
 Coeff-Com: -0.139D+00-0.254D+00 0.133D+01
 Coeff:      0.186D-04 0.168D-03-0.381D-04-0.544D-02-0.353D-02 0.690D-01
 Coeff:     -0.139D+00-0.254D+00 0.133D+01
 Gap=     0.334 Goal=   None    Shift=    0.000
 RMSDP=1.01D-06 MaxDP=5.07D-05 DE=-9.05D-08 OVMax= 6.12D-05

 Cycle  10  Pass 1  IDiag  1:
 E= -829.647096270282     Delta-E=       -0.000000011047 Rises=F Damp=F
 DIIS: error= 1.64D-06 at cycle  10 NSaved=  10.
 NSaved=10 IEnMin=10 EnMin= -829.647096270282     IErMin=10 ErrMin= 1.64D-06
 ErrMax= 1.64D-06  0.00D+00 EMaxC= 1.00D-01 BMatC= 3.33D-10 BMatP= 2.64D-09
 IDIUse=1 WtCom= 1.00D+00 WtEn= 0.00D+00
 Coeff-Com: -0.112D-05 0.109D-03 0.115D-03-0.332D-03-0.346D-02 0.101D-01
 Coeff-Com:  0.114D-01-0.613D-01-0.215D+00 0.126D+01
 Coeff:     -0.112D-05 0.109D-03 0.115D-03-0.332D-03-0.346D-02 0.101D-01
 Coeff:      0.114D-01-0.613D-01-0.215D+00 0.126D+01
 Gap=     0.334 Goal=   None    Shift=    0.000
 RMSDP=2.98D-07 MaxDP=9.74D-06 DE=-1.10D-08 OVMax= 2.33D-05

 Cycle  11  Pass 1  IDiag  1:
 E= -829.647096271860     Delta-E=       -0.000000001578 Rises=F Damp=F
 DIIS: error= 5.72D-07 at cycle  11 NSaved=  11.
 NSaved=11 IEnMin=11 EnMin= -829.647096271860     IErMin=11 ErrMin= 5.72D-07
 ErrMax= 5.72D-07  0.00D+00 EMaxC= 1.00D-01 BMatC= 6.91D-11 BMatP= 3.33D-10
 IDIUse=1 WtCom= 1.00D+00 WtEn= 0.00D+00
 Coeff-Com: -0.372D-05-0.383D-04-0.202D-05 0.116D-02 0.751D-03-0.142D-01
 Coeff-Com:  0.262D-01 0.556D-01-0.255D+00-0.892D-01 0.127D+01
 Coeff:     -0.372D-05-0.383D-04-0.202D-05 0.116D-02 0.751D-03-0.142D-01
 Coeff:      0.262D-01 0.556D-01-0.255D+00-0.892D-01 0.127D+01
 Gap=     0.334 Goal=   None    Shift=    0.000
 RMSDP=1.50D-07 MaxDP=3.31D-06 DE=-1.58D-09 OVMax= 1.26D-05

 Cycle  12  Pass 1  IDiag  1:
 E= -829.647096272199     Delta-E=       -0.000000000339 Rises=F Damp=F
 DIIS: error= 2.69D-07 at cycle  12 NSaved=  12.
 NSaved=12 IEnMin=12 EnMin= -829.647096272199     IErMin=12 ErrMin= 2.69D-07
 ErrMax= 2.69D-07  0.00D+00 EMaxC= 1.00D-01 BMatC= 7.43D-12 BMatP= 6.91D-11
 IDIUse=1 WtCom= 1.00D+00 WtEn= 0.00D+00
 Coeff-Com:  0.159D-06-0.958D-05-0.746D-05-0.655D-04 0.322D-03 0.103D-03
 Coeff-Com: -0.408D-02 0.341D-02 0.524D-01-0.154D+00-0.175D+00 0.128D+01
 Coeff:      0.159D-06-0.958D-05-0.746D-05-0.655D-04 0.322D-03 0.103D-03
 Coeff:     -0.408D-02 0.341D-02 0.524D-01-0.154D+00-0.175D+00 0.128D+01
 Gap=     0.334 Goal=   None    Shift=    0.000
 RMSDP=6.03D-08 MaxDP=1.93D-06 DE=-3.39D-10 OVMax= 4.91D-06

 Cycle  13  Pass 1  IDiag  1:
 E= -829.647096272242     Delta-E=       -0.000000000043 Rises=F Damp=F
 DIIS: error= 1.08D-07 at cycle  13 NSaved=  13.
 NSaved=13 IEnMin=13 EnMin= -829.647096272242     IErMin=13 ErrMin= 1.08D-07
 ErrMax= 1.08D-07  0.00D+00 EMaxC= 1.00D-01 BMatC= 9.62D-13 BMatP= 7.43D-12
 IDIUse=1 WtCom= 1.00D+00 WtEn= 0.00D+00
 Coeff-Com:  0.388D-06 0.559D-05 0.972D-06-0.986D-04-0.144D-03 0.136D-02
 Coeff-Com: -0.153D-02-0.603D-02 0.826D-02 0.691D-01-0.105D+00-0.393D+00
 Coeff-Com:  0.143D+01
 Coeff:      0.388D-06 0.559D-05 0.972D-06-0.986D-04-0.144D-03 0.136D-02
 Coeff:     -0.153D-02-0.603D-02 0.826D-02 0.691D-01-0.105D+00-0.393D+00
 Coeff:      0.143D+01
 Gap=     0.334 Goal=   None    Shift=    0.000
 RMSDP=2.35D-08 MaxDP=1.16D-06 DE=-4.30D-11 OVMax= 1.86D-06

 Cycle  14  Pass 1  IDiag  1:
 E= -829.647096272246     Delta-E=       -0.000000000005 Rises=F Damp=F
 DIIS: error= 2.68D-08 at cycle  14 NSaved=  14.
 NSaved=14 IEnMin=14 EnMin= -829.647096272246     IErMin=14 ErrMin= 2.68D-08
 ErrMax= 2.68D-08  0.00D+00 EMaxC= 1.00D-01 BMatC= 9.20D-14 BMatP= 9.62D-13
 IDIUse=1 WtCom= 1.00D+00 WtEn= 0.00D+00
 Coeff-Com: -0.898D-07 0.610D-06 0.145D-05 0.171D-04-0.264D-04-0.126D-03
 Coeff-Com:  0.599D-03 0.185D-03-0.700D-02 0.123D-01 0.214D-01-0.864D-01
 Coeff-Com: -0.195D+00 0.125D+01
 Coeff:     -0.898D-07 0.610D-06 0.145D-05 0.171D-04-0.264D-04-0.126D-03
 Coeff:      0.599D-03 0.185D-03-0.700D-02 0.123D-01 0.214D-01-0.864D-01
 Coeff:     -0.195D+00 0.125D+01
 Gap=     0.334 Goal=   None    Shift=    0.000
 RMSDP=6.87D-09 MaxDP=2.30D-07 DE=-4.55D-12 OVMax= 5.62D-07

 SCF Done:  E(RHF) =  -829.647096272     A.U. after   14 cycles
            NFock= 14  Conv=0.69D-08     -V/T= 2.2854
 KE= 6.454589453965D+02 PE=-2.196272164668D+03 EE= 5.773116345813D+02
 Leave Link  502 at Tue Oct 12 15:36:56 2021, MaxMem=  1048576000 cpu:        17.6
 (Enter /usr/local/gaussian/g09/l801.exe)
 ExpMin= 2.53D-02 ExpMax= 4.56D+05 ExpMxC= 1.44D+03 IAcc=3 IRadAn=         5 AccDes= 0.00D+00
 HarFok:  IExCor=  205 AccDes= 0.00D+00 IRadAn=         5 IDoV=-2 UseB2=F ITyADJ=14
 ICtDFT= 12500011 ScaDFX=  1.000000  1.000000  1.000000  1.000000
 Defaulting to unpruned grid for atomic number  53.
 Defaulting to unpruned grid for atomic number  53.
 Defaulting to unpruned grid for atomic number  53.
 Defaulting to unpruned grid for atomic number  53.
 Defaulting to unpruned grid for atomic number  53.
 Defaulting to unpruned grid for atomic number  53.
 Defaulting to unpruned grid for atomic number  53.
 Defaulting to unpruned grid for atomic number  53.
 Defaulting to unpruned grid for atomic number  53.
 Defaulting to unpruned grid for atomic number  53.
 Defaulting to unpruned grid for atomic number  53.
 Defaulting to unpruned grid for atomic number  53.
 Largest valence mixing into a core orbital is  4.46D-04
 Largest core mixing into a valence orbital is  1.55D-04
 Range of M.O.s used for correlation:    11   174
 NBasis=   174 NAE=    26 NBE=    26 NFC=    10 NFV=     0
 NROrb=    164 NOA=    16 NOB=    16 NVA=   148 NVB=   148

 **** Warning!!: The largest alpha MO coefficient is  0.17130357D+02

 Leave Link  801 at Tue Oct 12 15:36:56 2021, MaxMem=  1048576000 cpu:         0.8
 (Enter /usr/local/gaussian/g09/l906.exe)
 Frozen-core derivative calculation, NFC=  10 NFV=   0.
 FulOut=F Deriv=T AODrv=F NAtomX=     4
   MMem=         239  MDisk=          16 MDiskD=          16
  W3Min=      922896 MinDsk=     1491158 NBas6D=         204
 NBas2D=       21411    NTT=       20910    LW2=    26219120
    MDV=  1048172343 MDiskM=       25641 NBas2p=       21407
 Fully in-core method, ICMem=   539113593.
 IMap=   1   2   3   4   5   6   7   8   9  10  11  12  13  14  15  16  17  18  19  20
 IMap=  21  22  23  24  25  26
 JobTyp=1 Pass  1 fully in-core, NPsUse= 12.
 Compute canonical integrals.
 FoFCou: FMM=F IPFlag=           0 FMFlag=           0 FMFlg1=           0
         NFxFlg=           0 DoJE=F BraDBF=F KetDBF=F FulRan=T
         wScrn=  0.000000 ICntrl=     600 IOpCl=  1 I1Cent=           0 NGrid=           0
         NMat0=    1 NMatS0=  21411 NMatT0=    0 NMatD0=    1 NMtDS0=    0 NMtDT0=    0
 Symmetry not used in FoFCou.
 Spin components of T(2) and E(2):
     alpha-alpha T2 =       0.3344356036D-01 E2=     -0.9470165383D-01
     alpha-beta  T2 =       0.1744934442D+00 E2=     -0.5098667016D+00
     beta-beta   T2 =       0.3344356036D-01 E2=     -0.9470165383D-01
 The integrals were generated   1 times.
 ANorm=    0.1114172592D+01
 E2 =    -0.6992700093D+00 EUMP2 =    -0.83034636628152D+03
 Leave Link  906 at Tue Oct 12 15:37:05 2021, MaxMem=  1048576000 cpu:       104.1
 (Enter /usr/local/gaussian/g09/l1002.exe)
 Minotr:  Closed shell wavefunction.
          Computing MP2/KS-MP2 derivatives.
          Using Z-Vector for PSCF gradient.
          Skipping F1 and S1 gradient terms here.
          Frozen-core window.
          Direct CPHF calculation.
          Differentiating once with respect to electric field.
                with respect to dipole field.
          Electric field/nuclear overlap derivatives assumed to be zero.
          Requested convergence is 1.0D-10 RMS, and 1.0D-09 maximum.
          NewPWx=F KeepS1=T KeepF1=T KeepIn=T MapXYZ=F SortEE=F KeepMc=T.
          MDV=    1048575800 using IRadAn=       0.
 Keep R1 ints in memory in canonical form, NReq=124351832.
 FoFCou: FMM=F IPFlag=           0 FMFlag=           0 FMFlg1=           0
         NFxFlg=           0 DoJE=F BraDBF=F KetDBF=F FulRan=T
         wScrn=  0.000000 ICntrl=     600 IOpCl=  0 I1Cent=           0 NGrid=           0
         NMat0=    1 NMatS0=  15225 NMatT0=    0 NMatD0=    1 NMtDS0=    0 NMtDT0=    0
 Symmetry not used in FoFCou.
          Solving linear equations separately, MaxMat=       0.
          There are     1 degrees of freedom in the 1st order CPHF.  IDoFFX=0 NUNeed=     1.
 LinEq1:  Iter=  0 NonCon=     1 RMS=3.43D-03 Max=6.30D-02 NDo=     1
 AX will form     1 AO Fock derivatives at one time.
 LinEq1:  Iter=  1 NonCon=     1 RMS=5.64D-04 Max=6.57D-03 NDo=     1
 LinEq1:  Iter=  2 NonCon=     1 RMS=2.33D-04 Max=3.10D-03 NDo=     1
 LinEq1:  Iter=  3 NonCon=     1 RMS=7.32D-05 Max=1.42D-03 NDo=     1
 LinEq1:  Iter=  4 NonCon=     1 RMS=2.80D-05 Max=5.30D-04 NDo=     1
 LinEq1:  Iter=  5 NonCon=     1 RMS=1.07D-05 Max=1.39D-04 NDo=     1
 LinEq1:  Iter=  6 NonCon=     1 RMS=2.90D-06 Max=3.36D-05 NDo=     1
 LinEq1:  Iter=  7 NonCon=     1 RMS=9.63D-07 Max=1.63D-05 NDo=     1
 LinEq1:  Iter=  8 NonCon=     1 RMS=2.89D-07 Max=3.42D-06 NDo=     1
 LinEq1:  Iter=  9 NonCon=     1 RMS=8.67D-08 Max=1.39D-06 NDo=     1
 LinEq1:  Iter= 10 NonCon=     1 RMS=2.18D-08 Max=3.73D-07 NDo=     1
 LinEq1:  Iter= 11 NonCon=     1 RMS=4.79D-09 Max=5.98D-08 NDo=     1
 LinEq1:  Iter= 12 NonCon=     1 RMS=7.88D-10 Max=9.51D-09 NDo=     1
 LinEq1:  Iter= 13 NonCon=     1 RMS=1.47D-10 Max=1.32D-09 NDo=     1
 LinEq1:  Iter= 14 NonCon=     0 RMS=4.42D-11 Max=5.41D-10 NDo=     1
 Linear equations converged to 1.000D-10 1.000D-09 after    14 iterations.
 End of Minotr F.D. properties file   721 does not exist.
 End of Minotr F.D. properties file   722 does not exist.
 End of Minotr F.D. properties file   788 does not exist.
 Leave Link 1002 at Tue Oct 12 15:37:09 2021, MaxMem=  1048576000 cpu:        16.5
 (Enter /usr/local/gaussian/g09/l601.exe)
 Copying SCF densities to generalized density rwf, IOpCl= 0 IROHF=0.

 **********************************************************************

            Population analysis using the MP2 density.

 **********************************************************************

 Alpha  occ. eigenvalues -- -104.70637 -20.43293 -10.42605  -7.89316  -7.89081
 Alpha  occ. eigenvalues --   -7.89072  -7.50704  -5.33396  -5.33170  -5.33166
 Alpha  occ. eigenvalues --   -2.06196  -2.06066  -2.06062  -2.05817  -2.05817
 Alpha  occ. eigenvalues --   -1.16645  -0.85667  -0.67600  -0.46322  -0.40835
 Alpha  occ. eigenvalues --   -0.39940  -0.28309  -0.25238  -0.19012  -0.17781
 Alpha  occ. eigenvalues --   -0.17750
 Alpha virt. eigenvalues --    0.15684   0.18645   0.21324   0.23038   0.23977
 Alpha virt. eigenvalues --    0.24604   0.25032   0.29035   0.30178   0.31550
 Alpha virt. eigenvalues --    0.31779   0.31946   0.35402   0.36416   0.37011
 Alpha virt. eigenvalues --    0.38733   0.38975   0.41979   0.46910   0.49733
 Alpha virt. eigenvalues --    0.51336   0.54653   0.54862   0.57362   0.58196
 Alpha virt. eigenvalues --    0.61180   0.64433   0.66615   0.72924   0.74236
 Alpha virt. eigenvalues --    0.74394   0.75949   0.77024   0.77103   0.78078
 Alpha virt. eigenvalues --    0.80056   0.80281   0.81991   0.83477   0.85303
 Alpha virt. eigenvalues --    0.85536   0.86923   0.87722   0.92399   0.93618
 Alpha virt. eigenvalues --    0.94384   0.96324   0.96723   0.99865   1.01500
 Alpha virt. eigenvalues --    1.08512   1.11021   1.12178   1.12838   1.16267
 Alpha virt. eigenvalues --    1.17006   1.21805   1.21821   1.23729   1.25830
 Alpha virt. eigenvalues --    1.29983   1.31237   1.36503   1.41666   1.45429
 Alpha virt. eigenvalues --    1.52119   1.52992   1.55311   1.57307   1.59759
 Alpha virt. eigenvalues --    1.63062   1.69375   1.70671   1.71860   1.71993
 Alpha virt. eigenvalues --    1.73715   1.74198   1.75190   1.78131   1.84127
 Alpha virt. eigenvalues --    1.88416   1.91482   1.91723   1.99390   2.02934
 Alpha virt. eigenvalues --    2.02945   2.07688   2.12782   2.15685   2.32101
 Alpha virt. eigenvalues --    2.41350   2.48411   2.52679   2.53158   2.56159
 Alpha virt. eigenvalues --    2.56755   2.61969   2.64540   2.67428   2.69170
 Alpha virt. eigenvalues --    2.73687   2.75826   2.78418   2.79760   2.92996
 Alpha virt. eigenvalues --    2.93441   3.10816   3.11199   3.19696   3.23738
 Alpha virt. eigenvalues --    3.25094   3.30935   3.32186   3.34962   3.43450
 Alpha virt. eigenvalues --    3.47611   3.56108   3.57345   3.59348   3.64340
 Alpha virt. eigenvalues --    3.93802   4.16465   4.29292   4.39738   4.49546
 Alpha virt. eigenvalues --    4.53884   4.63889   4.71241   4.76429   4.76910
 Alpha virt. eigenvalues --    5.23922   5.38188   6.27064   6.53357   6.83637
 Alpha virt. eigenvalues --    6.89937   6.94172   6.97498   7.06223   7.15510
 Alpha virt. eigenvalues --    7.33832   7.36492   7.48861   7.51163   7.83075
 Alpha virt. eigenvalues --    8.15763  12.81923  59.17816
          Condensed to atoms (all electrons):
               1          2          3          4
     1  O    8.690282  -0.137674  -0.150578   0.165054
     2  Cl  -0.137674  17.131463   0.023938  -0.027438
     3  I   -0.150578   0.023938  25.744130  -0.020268
     4  H    0.165054  -0.027438  -0.020268   0.728058
 Mulliken charges:
               1
     1  O   -0.567084
     2  Cl   0.009711
     3  I   -0.597221
     4  H    0.154594
 Sum of Mulliken charges =  -1.00000
 Mulliken charges with hydrogens summed into heavy atoms:
               1
     1  O   -0.412490
     2  Cl   0.009711
     3  I   -0.597221
 Electronic spatial extent (au):  <R**2>=           1301.6808
 Charge=             -1.0000 electrons
 Dipole moment (field-independent basis, Debye):
    X=              1.0227    Y=              9.0558    Z=              0.0000  Tot=              9.1134
 Quadrupole moment (field-independent basis, Debye-Ang):
   XX=            -55.8946   YY=            -84.2915   ZZ=            -52.8091
   XY=             -7.8188   XZ=             -0.0000   YZ=             -0.0000
 Traceless Quadrupole moment (field-independent basis, Debye-Ang):
   XX=              8.4371   YY=            -19.9597   ZZ=             11.5226
   XY=             -7.8188   XZ=             -0.0000   YZ=             -0.0000
 Octapole moment (field-independent basis, Debye-Ang**2):
  XXX=              6.3275  YYY=            411.6279  ZZZ=              0.0000  XYY=             25.3963
  XXY=            109.6409  XXZ=              0.0000  XZZ=              1.1010  YZZ=            103.9554
  YYZ=              0.0000  XYZ=              0.0000
 Hexadecapole moment (field-independent basis, Debye-Ang**3):
 XXXX=           -413.4495 YYYY=          -2374.3552 ZZZZ=            -83.0445 XXXY=           -241.0103
 XXXZ=             -0.0000 YYYX=           -306.9895 YYYZ=              0.0000 ZZZX=             -0.0000
 ZZZY=             -0.0000 XXYY=           -436.9894 XXZZ=            -86.9106 YYZZ=           -361.4159
 XXYZ=              0.0000 YYXZ=             -0.0000 ZZXY=            -78.9821
 N-N= 1.438544884177D+02 E-N=-2.195762814359D+03  KE= 6.458455974136D+02
 No NMR shielding tensors so no spin-rotation constants.
 Leave Link  601 at Tue Oct 12 15:37:09 2021, MaxMem=  1048576000 cpu:         2.1
 (Enter /usr/local/gaussian/g09/l607.exe)
 ******************************Gaussian NBO Version 3.1******************************
             N A T U R A L   A T O M I C   O R B I T A L   A N D
          N A T U R A L   B O N D   O R B I T A L   A N A L Y S I S
 ******************************Gaussian NBO Version 3.1******************************
       /RESON  / : Allow strongly delocalized NBO set

 Analyzing the MP2 density

 Job title: title                                                           

 Storage needed:     91686 in NPA,    121697 in NBO (1048575904 available)


 NATURAL POPULATIONS:  Natural atomic orbital occupancies 
                                                          
   NAO  Atom  No  lang   Type(AO)    Occupancy
 --------------------------------------------
     1    O    1  S      Cor( 1S)     1.99982
     2    O    1  S      Val( 2S)     1.84373
     3    O    1  S      Ryd( 3S)     0.01187
     4    O    1  S      Ryd( 4S)     0.00128
     5    O    1  S      Ryd( 5S)     0.00017
     6    O    1  px     Val( 2p)     1.18388
     7    O    1  px     Ryd( 3p)     0.00806
     8    O    1  px     Ryd( 4p)     0.00068
     9    O    1  px     Ryd( 5p)     0.00061
    10    O    1  py     Val( 2p)     1.73186
    11    O    1  py     Ryd( 3p)     0.01454
    12    O    1  py     Ryd( 4p)     0.00066
    13    O    1  py     Ryd( 5p)     0.00052
    14    O    1  pz     Val( 2p)     1.94462
    15    O    1  pz     Ryd( 3p)     0.02277
    16    O    1  pz     Ryd( 4p)     0.00060
    17    O    1  pz     Ryd( 5p)     0.00022
    18    O    1  dxy    Ryd( 3d)     0.00858
    19    O    1  dxy    Ryd( 4d)     0.00058
    20    O    1  dxy    Ryd( 5d)     0.00013
    21    O    1  dxz    Ryd( 3d)     0.00888
    22    O    1  dxz    Ryd( 4d)     0.00062
    23    O    1  dxz    Ryd( 5d)     0.00011
    24    O    1  dyz    Ryd( 3d)     0.00689
    25    O    1  dyz    Ryd( 4d)     0.00068
    26    O    1  dyz    Ryd( 5d)     0.00025
    27    O    1  dx2y2  Ryd( 3d)     0.01097
    28    O    1  dx2y2  Ryd( 4d)     0.00043
    29    O    1  dx2y2  Ryd( 5d)     0.00015
    30    O    1  dz2    Ryd( 3d)     0.00821
    31    O    1  dz2    Ryd( 4d)     0.00066
    32    O    1  dz2    Ryd( 5d)     0.00016
    33    O    1  f(0)   Ryd( 4f)     0.00067
    34    O    1  f(0)   Ryd( 5f)     0.00011
    35    O    1  f(C1)  Ryd( 4f)     0.00066
    36    O    1  f(C1)  Ryd( 5f)     0.00012
    37    O    1  f(S1)  Ryd( 4f)     0.00063
    38    O    1  f(S1)  Ryd( 5f)     0.00012
    39    O    1  f(C2)  Ryd( 4f)     0.00065
    40    O    1  f(C2)  Ryd( 5f)     0.00013
    41    O    1  f(S2)  Ryd( 4f)     0.00056
    42    O    1  f(S2)  Ryd( 5f)     0.00012
    43    O    1  f(C3)  Ryd( 4f)     0.00065
    44    O    1  f(C3)  Ryd( 5f)     0.00014
    45    O    1  f(S3)  Ryd( 4f)     0.00061
    46    O    1  f(S3)  Ryd( 5f)     0.00013

    47   Cl    2  S      Cor( 1S)     2.00000
    48   Cl    2  S      Cor( 2S)     1.99974
    49   Cl    2  S      Val( 3S)     1.87669
    50   Cl    2  S      Ryd( 4S)     0.00816
    51   Cl    2  S      Ryd( 5S)     0.00056
    52   Cl    2  S      Ryd( 6S)     0.00020
    53   Cl    2  px     Cor( 2p)     1.99995
    54   Cl    2  px     Val( 3p)     0.93597
    55   Cl    2  px     Ryd( 4p)     0.00696
    56   Cl    2  px     Ryd( 5p)     0.00055
    57   Cl    2  px     Ryd( 6p)     0.00021
    58   Cl    2  py     Cor( 2p)     2.00003
    59   Cl    2  py     Val( 3p)     1.95141
    60   Cl    2  py     Ryd( 4p)     0.01079
    61   Cl    2  py     Ryd( 5p)     0.00057
    62   Cl    2  py     Ryd( 6p)     0.00010
    63   Cl    2  pz     Cor( 2p)     2.00003
    64   Cl    2  pz     Val( 3p)     1.95349
    65   Cl    2  pz     Ryd( 4p)     0.01140
    66   Cl    2  pz     Ryd( 5p)     0.00072
    67   Cl    2  pz     Ryd( 6p)     0.00003
    68   Cl    2  dxy    Ryd( 3d)     0.01892
    69   Cl    2  dxy    Ryd( 4d)     0.00101
    70   Cl    2  dxy    Ryd( 5d)     0.00036
    71   Cl    2  dxz    Ryd( 3d)     0.02266
    72   Cl    2  dxz    Ryd( 4d)     0.00126
    73   Cl    2  dxz    Ryd( 5d)     0.00038
    74   Cl    2  dyz    Ryd( 3d)     0.01698
    75   Cl    2  dyz    Ryd( 4d)     0.00072
    76   Cl    2  dyz    Ryd( 5d)     0.00022
    77   Cl    2  dx2y2  Ryd( 3d)     0.01892
    78   Cl    2  dx2y2  Ryd( 4d)     0.00052
    79   Cl    2  dx2y2  Ryd( 5d)     0.00019
    80   Cl    2  dz2    Ryd( 3d)     0.01779
    81   Cl    2  dz2    Ryd( 4d)     0.00061
    82   Cl    2  dz2    Ryd( 5d)     0.00020
    83   Cl    2  f(0)   Ryd( 4f)     0.00133
    84   Cl    2  f(0)   Ryd( 5f)     0.00015
    85   Cl    2  f(C1)  Ryd( 4f)     0.00153
    86   Cl    2  f(C1)  Ryd( 5f)     0.00015
    87   Cl    2  f(S1)  Ryd( 4f)     0.00128
    88   Cl    2  f(S1)  Ryd( 5f)     0.00013
    89   Cl    2  f(C2)  Ryd( 4f)     0.00136
    90   Cl    2  f(C2)  Ryd( 5f)     0.00014
    91   Cl    2  f(S2)  Ryd( 4f)     0.00121
    92   Cl    2  f(S2)  Ryd( 5f)     0.00014
    93   Cl    2  f(C3)  Ryd( 4f)     0.00169
    94   Cl    2  f(C3)  Ryd( 5f)     0.00014
    95   Cl    2  f(S3)  Ryd( 4f)     0.00133
    96   Cl    2  f(S3)  Ryd( 5f)     0.00015

    97    I    3  S      Cor( 4S)     1.99934
    98    I    3  S      Val( 5S)     1.93738
    99    I    3  S      Ryd( 6S)     0.00133
   100    I    3  S      Ryd( 7S)     0.00067
   101    I    3  S      Ryd( 8S)     0.00018
   102    I    3  S      Ryd( 9S)     0.00001
   103    I    3  px     Cor( 4p)     1.99990
   104    I    3  px     Val( 5p)     1.93629
   105    I    3  px     Ryd( 6p)     0.00976
   106    I    3  px     Ryd( 7p)     0.00069
   107    I    3  px     Ryd( 8p)     0.00011
   108    I    3  py     Cor( 4p)     1.99957
   109    I    3  py     Val( 5p)     1.68379
   110    I    3  py     Ryd( 6p)     0.00840
   111    I    3  py     Ryd( 7p)     0.00062
   112    I    3  py     Ryd( 8p)     0.00013
   113    I    3  pz     Cor( 4p)     1.99992
   114    I    3  pz     Val( 5p)     1.95171
   115    I    3  pz     Ryd( 6p)     0.00984
   116    I    3  pz     Ryd( 7p)     0.00068
   117    I    3  pz     Ryd( 8p)     0.00011
   118    I    3  dxy    Cor( 4d)     1.99664
   119    I    3  dxy    Ryd( 5d)     0.01929
   120    I    3  dxy    Ryd( 6d)     0.00120
   121    I    3  dxy    Ryd( 7d)     0.00022
   122    I    3  dxz    Cor( 4d)     1.99679
   123    I    3  dxz    Ryd( 5d)     0.01956
   124    I    3  dxz    Ryd( 6d)     0.00156
   125    I    3  dxz    Ryd( 7d)     0.00020
   126    I    3  dyz    Cor( 4d)     1.99672
   127    I    3  dyz    Ryd( 5d)     0.01936
   128    I    3  dyz    Ryd( 6d)     0.00120
   129    I    3  dyz    Ryd( 7d)     0.00023
   130    I    3  dx2y2  Cor( 4d)     1.99640
   131    I    3  dx2y2  Ryd( 5d)     0.01961
   132    I    3  dx2y2  Ryd( 6d)     0.00140
   133    I    3  dx2y2  Ryd( 7d)     0.00023
   134    I    3  dz2    Cor( 4d)     1.99663
   135    I    3  dz2    Ryd( 5d)     0.01964
   136    I    3  dz2    Ryd( 6d)     0.00154
   137    I    3  dz2    Ryd( 7d)     0.00016
   138    I    3  f(0)   Ryd( 4f)     0.00266
   139    I    3  f(0)   Ryd( 5f)     0.00042
   140    I    3  f(C1)  Ryd( 4f)     0.00272
   141    I    3  f(C1)  Ryd( 5f)     0.00041
   142    I    3  f(S1)  Ryd( 4f)     0.00282
   143    I    3  f(S1)  Ryd( 5f)     0.00046
   144    I    3  f(C2)  Ryd( 4f)     0.00263
   145    I    3  f(C2)  Ryd( 5f)     0.00041
   146    I    3  f(S2)  Ryd( 4f)     0.00269
   147    I    3  f(S2)  Ryd( 5f)     0.00042
   148    I    3  f(C3)  Ryd( 4f)     0.00269
   149    I    3  f(C3)  Ryd( 5f)     0.00043
   150    I    3  f(S3)  Ryd( 4f)     0.00274
   151    I    3  f(S3)  Ryd( 5f)     0.00044

   152    H    4  S      Val( 1S)     0.63167
   153    H    4  S      Ryd( 2S)     0.00617
   154    H    4  S      Ryd( 3S)     0.00090
   155    H    4  S      Ryd( 4S)     0.00020
   156    H    4  px     Ryd( 2p)     0.00508
   157    H    4  px     Ryd( 3p)     0.00049
   158    H    4  px     Ryd( 4p)     0.00011
   159    H    4  py     Ryd( 2p)     0.00541
   160    H    4  py     Ryd( 3p)     0.00165
   161    H    4  py     Ryd( 4p)     0.00024
   162    H    4  pz     Ryd( 2p)     0.00657
   163    H    4  pz     Ryd( 3p)     0.00042
   164    H    4  pz     Ryd( 4p)     0.00022
   165    H    4  dxy    Ryd( 3d)     0.00042
   166    H    4  dxy    Ryd( 4d)     0.00010
   167    H    4  dxz    Ryd( 3d)     0.00030
   168    H    4  dxz    Ryd( 4d)     0.00006
   169    H    4  dyz    Ryd( 3d)     0.00050
   170    H    4  dyz    Ryd( 4d)     0.00009
   171    H    4  dx2y2  Ryd( 3d)     0.00035
   172    H    4  dx2y2  Ryd( 4d)     0.00016
   173    H    4  dz2    Ryd( 3d)     0.00031
   174    H    4  dz2    Ryd( 4d)     0.00011

 [ 28 electrons found in the effective core potential]

 WARNING:  5 low occupancy (<1.9990e) core orbitals found on  I    3


 Summary of Natural Population Analysis:                  
                                                          
                                       Natural Population 
                Natural  -----------------------------------------------
    Atom  No    Charge         Core      Valence    Rydberg      Total
 -----------------------------------------------------------------------
      O    1   -0.81848      1.99982     6.70409    0.11457     8.81848
     Cl    2    0.13097      9.99974     6.71757    0.15171    16.86903
      I    3   -0.65096     45.98190     7.50917    0.15989    53.65096
      H    4    0.33847      0.00000     0.63167    0.02986     0.66153
 =======================================================================
   * Total *   -1.00000     57.98146    21.56250    0.45604    80.00000

                                 Natural Population      
 --------------------------------------------------------
   Effective Core            28.00000
   Core                      29.98146 ( 99.9382% of  30)
   Valence                   21.56250 ( 98.0113% of  22)
   Natural Minimal Basis     79.54396 ( 99.4299% of  80)
   Natural Rydberg Basis      0.45604 (  0.5701% of  80)
 --------------------------------------------------------

    Atom  No          Natural Electron Configuration
 ----------------------------------------------------------------------------
      O    1      [core]2S( 1.84)2p( 4.86)3S( 0.01)3p( 0.05)3d( 0.04)
     Cl    2      [core]3S( 1.88)3p( 4.84)4S( 0.01)3d( 0.10)4p( 0.03)4f( 0.01)
      I    3      [core]5S( 1.94)5p( 5.57)4f( 0.02)5d( 0.10)6p( 0.03)6d( 0.01)
      H    4            1S( 0.63)2S( 0.01)2p( 0.02)


 NATURAL BOND ORBITAL ANALYSIS:
 Warning:  a bond orbital has occupanc of -0.00015

                       Occupancies       Lewis Structure    Low   High
           Occ.    -------------------  -----------------   occ   occ
  Cycle   Thresh.   Lewis   Non-Lewis     CR  BD  3C  LP    (L)   (NL)   Dev
 =============================================================================
   1(1)    1.90    79.17746   0.82254     15   2   0   9     1      1    0.42
 Warning:  a bond orbital has occupanc of -0.00015
   2(2)    1.90    79.20646   0.79354     15   2   0   9     1      1    0.38
 Warning:  a bond orbital has occupanc of -0.00015
   3(3)    1.90    79.17746   0.82254     15   2   0   9     1      1    0.42
 Warning:  a bond orbital has occupanc of -0.00015
   4(4)    1.90    79.20646   0.79354     15   2   0   9     1      1    0.38
 Warning:  a bond orbital has occupanc of -0.00015
   5(1)    1.80    79.20646   0.79354     15   2   0   9     1      1    0.38
 Warning:  a bond orbital has occupanc of -0.00015
   6(2)    1.80    79.17746   0.82254     15   2   0   9     1      1    0.42
 Warning:  a bond orbital has occupanc of -0.00015
   7(3)    1.80    79.20646   0.79354     15   2   0   9     1      1    0.38
 Warning:  a bond orbital has occupanc of -0.00015
   8(1)    1.70    79.20646   0.79354     15   2   0   9     1      1    0.38
 Warning:  a bond orbital has occupanc of -0.00015
   9(2)    1.70    79.17746   0.82254     15   2   0   9     1      1    0.42
 Warning:  a bond orbital has occupanc of -0.00015
  10(3)    1.70    79.20646   0.79354     15   2   0   9     1      1    0.38
 Warning:  a bond orbital has occupanc of -0.00015
  11(1)    1.60    78.89913   1.10087     15   1   0  10     0      1    0.42
 Warning:  a bond orbital has occupanc of -0.00015
  12(2)    1.60    78.89913   1.10087     15   1   0  10     0      1    0.42
 Warning:  a bond orbital has occupanc of -0.00015
  13(1)    1.50    78.89913   1.10087     15   1   0  10     0      1    0.42
 Warning:  a bond orbital has occupanc of -0.00015
  14(2)    1.50    78.89913   1.10087     15   1   0  10     0      1    0.42
 Warning:  a bond orbital has occupanc of -0.00015
  15(1)    1.90    79.20646   0.79354     15   2   0   9     1      1    0.38
 -----------------------------------------------------------------------------

 Structure accepted: RESONANCE keyword permits strongly delocalized structure

 WARNING:  5 low occupancy (<1.9990e) core orbitals found on  I    3

 --------------------------------------------------------
   Effective Core           28.00000
   Core                     29.98147 ( 99.938% of  30)
   Valence Lewis            21.22499 ( 96.477% of  22)
  ==================       ============================
   Total Lewis              79.20646 ( 99.008% of  80)
  -----------------------------------------------------
   Valence non-Lewis         0.38166 (  0.477% of  80)
   Rydberg non-Lewis         0.41188 (  0.515% of  80)
  ==================       ============================
   Total non-Lewis           0.79354 (  0.992% of  80)
 --------------------------------------------------------


       (Occupancy)   Bond orbital/ Coefficients/ Hybrids
 ---------------------------------------------------------------------------------
     1. (1.93672) BD ( 1) O   1 -Cl   2  
                ( 57.82%)   0.7604* O   1 s( 11.53%)p 7.63( 87.98%)d 0.04(  0.47%)
                                                  f 0.00(  0.02%)
                                            0.0003  0.3346 -0.0559  0.0168 -0.0006
                                            0.9316 -0.0424 -0.0104 -0.0158 -0.0963
                                           -0.0218 -0.0035  0.0029  0.0000  0.0000
                                            0.0000  0.0000 -0.0158 -0.0024  0.0005
                                            0.0000  0.0000  0.0000  0.0000  0.0000
                                            0.0000  0.0524  0.0034  0.0017 -0.0407
                                           -0.0033  0.0005  0.0000  0.0000 -0.0105
                                            0.0009  0.0006 -0.0001  0.0000  0.0000
                                            0.0000  0.0000  0.0079  0.0011 -0.0009
                                            0.0010
                ( 42.18%)   0.6495*Cl   2 s(  9.14%)p 9.80( 89.63%)d 0.12(  1.10%)
                                                  f 0.01(  0.12%)
                                           -0.0000  0.0006  0.2969 -0.0561 -0.0099
                                           -0.0035 -0.0004 -0.9443  0.0648  0.0134
                                           -0.0027 -0.0000 -0.0130 -0.0020  0.0034
                                           -0.0020  0.0000  0.0000  0.0000  0.0000
                                            0.0000  0.0134 -0.0006 -0.0001  0.0000
                                            0.0000  0.0000  0.0000  0.0000  0.0000
                                            0.0868 -0.0125 -0.0022 -0.0551  0.0080
                                            0.0025  0.0000  0.0000  0.0221 -0.0027
                                            0.0006 -0.0001  0.0000  0.0000  0.0000
                                            0.0000 -0.0269  0.0025 -0.0022  0.0004
     2. (1.94842) BD ( 1) I   3 - H   4  
                ( 80.72%)   0.8984* I   3 s( 11.36%)p 7.78( 88.43%)d 0.02(  0.18%)
                                                  f 0.00(  0.03%)
                                            0.0004  0.3370  0.0004 -0.0064 -0.0004
                                            0.0013  0.0002  0.2172 -0.0029 -0.0012
                                            0.0005  0.0009  0.9148 -0.0155 -0.0063
                                            0.0016  0.0000  0.0000  0.0000  0.0000
                                            0.0000 -0.0000  0.0163  0.0021 -0.0004
                                            0.0000  0.0000  0.0000  0.0000  0.0000
                                            0.0000  0.0000  0.0000  0.0000 -0.0327
                                           -0.0029  0.0013  0.0000 -0.0222 -0.0025
                                            0.0001  0.0000  0.0000 -0.0024 -0.0007
                                           -0.0101 -0.0025  0.0000  0.0000  0.0000
                                            0.0000 -0.0084 -0.0021 -0.0099 -0.0018
                ( 19.28%)   0.4391* H   4 s( 99.66%)p 0.00(  0.32%)d 0.00(  0.02%)
                                            0.9980 -0.0112  0.0225  0.0008 -0.0087
                                           -0.0042 -0.0024 -0.0481 -0.0273  0.0001
                                            0.0000  0.0000  0.0000 -0.0011  0.0064
                                            0.0000  0.0000  0.0000  0.0000  0.0000
                                           -0.0114 -0.0017 -0.0078
     3. (1.99982) CR ( 1) O   1           s(100.00%)p 0.00(  0.00%)
                                            1.0000 -0.0002  0.0000 -0.0000  0.0000
                                           -0.0002  0.0000  0.0000  0.0000 -0.0001
                                            0.0000  0.0000 -0.0000  0.0000  0.0000
                                            0.0000  0.0000  0.0000  0.0000  0.0000
                                            0.0000  0.0000  0.0000  0.0000  0.0000
                                            0.0000 -0.0000 -0.0000 -0.0000  0.0000
                                            0.0000 -0.0000  0.0000  0.0000  0.0000
                                           -0.0000  0.0000  0.0000  0.0000  0.0000
                                            0.0000  0.0000 -0.0000  0.0000 -0.0000
                                           -0.0000
     4. (2.00000) CR ( 1)Cl   2           s(100.00%)
                                            1.0000  0.0000 -0.0000 -0.0000 -0.0000
                                           -0.0000 -0.0000 -0.0000  0.0000  0.0000
                                           -0.0000  0.0000 -0.0000 -0.0000  0.0000
                                           -0.0000  0.0000  0.0000  0.0000  0.0000
                                            0.0000  0.0000 -0.0000 -0.0000  0.0000
                                            0.0000  0.0000  0.0000  0.0000  0.0000
                                            0.0000 -0.0000 -0.0000 -0.0000  0.0000
                                            0.0000  0.0000  0.0000  0.0000 -0.0000
                                            0.0000 -0.0000  0.0000  0.0000  0.0000
                                            0.0000 -0.0000  0.0000 -0.0000  0.0000
     5. (1.99974) CR ( 2)Cl   2           s(100.00%)p 0.00(  0.00%)
                                            0.0000  1.0000 -0.0004  0.0000  0.0000
                                            0.0000  0.0000  0.0005 -0.0000 -0.0000
                                            0.0000 -0.0000  0.0000  0.0000 -0.0000
                                            0.0000  0.0000  0.0000  0.0000  0.0000
                                            0.0000 -0.0000  0.0000  0.0000  0.0000
                                            0.0000  0.0000  0.0000  0.0000  0.0000
                                           -0.0000  0.0000  0.0000  0.0000 -0.0000
                                           -0.0000  0.0000  0.0000 -0.0000  0.0000
                                           -0.0000  0.0000  0.0000  0.0000  0.0000
                                            0.0000  0.0000 -0.0000  0.0000 -0.0000
     6. (1.99995) CR ( 3)Cl   2           s(  0.00%)p 1.00(100.00%)
                                           -0.0000  0.0000  0.0000 -0.0000 -0.0000
                                           -0.0000  1.0000 -0.0004  0.0000  0.0000
                                           -0.0000  0.0000 -0.0000 -0.0000  0.0000
                                           -0.0000  0.0000  0.0000  0.0000  0.0000
                                            0.0000  0.0000 -0.0000 -0.0000  0.0000
                                            0.0000  0.0000  0.0000  0.0000  0.0000
                                            0.0000 -0.0000 -0.0000 -0.0000  0.0000
                                            0.0000  0.0000  0.0000  0.0000 -0.0000
                                            0.0000 -0.0000  0.0000  0.0000  0.0000
                                            0.0000 -0.0000  0.0000 -0.0000  0.0000
     7. (2.00003) CR ( 4)Cl   2           s(  0.00%)p 1.00(100.00%)
                                            0.0000 -0.0000 -0.0000  0.0000  0.0000
                                           -0.0000  0.0000 -0.0000  0.0000  0.0000
                                           -0.0000  1.0000  0.0001  0.0000  0.0000
                                            0.0000  0.0000  0.0000  0.0000  0.0000
                                            0.0000  0.0000  0.0000  0.0000  0.0000
                                            0.0000  0.0000  0.0000  0.0000  0.0000
                                           -0.0000 -0.0000 -0.0000 -0.0000 -0.0000
                                            0.0000  0.0000  0.0000  0.0000  0.0000
                                           -0.0000  0.0000  0.0000  0.0000  0.0000
                                            0.0000 -0.0000  0.0000  0.0000 -0.0000
     8. (2.00003) CR ( 5)Cl   2           s(  0.00%)p 1.00(100.00%)
                                            0.0000  0.0000  0.0000  0.0000  0.0000
                                            0.0000  0.0000  0.0000  0.0000  0.0000
                                            0.0000  0.0000  0.0000  0.0000  0.0000
                                            0.0000  1.0000  0.0002  0.0000  0.0000
                                           -0.0000  0.0000  0.0000  0.0000  0.0000
                                            0.0000  0.0000  0.0000  0.0000  0.0000
                                            0.0000  0.0000  0.0000  0.0000  0.0000
                                            0.0000 -0.0000  0.0000  0.0000  0.0000
                                            0.0000  0.0000  0.0000 -0.0000  0.0000
                                           -0.0000  0.0000  0.0000  0.0000  0.0000
     9. (1.99935) CR ( 1) I   3           s(100.00%)p 0.00(  0.00%)
                                            1.0000 -0.0006 -0.0000  0.0000  0.0000
                                           -0.0000 -0.0000 -0.0000  0.0000  0.0000
                                           -0.0000 -0.0000 -0.0002  0.0000  0.0000
                                           -0.0000  0.0000  0.0000  0.0000  0.0000
                                            0.0000  0.0000 -0.0000 -0.0000  0.0000
                                            0.0000  0.0000  0.0000  0.0000  0.0000
                                            0.0000  0.0000  0.0000 -0.0000  0.0000
                                            0.0000 -0.0000 -0.0000  0.0000  0.0000
                                           -0.0000  0.0000  0.0000  0.0000  0.0000
                                            0.0000  0.0000  0.0000  0.0000  0.0000
                                            0.0000  0.0000  0.0000  0.0000  0.0000
    10. (1.99989) CR ( 2) I   3           s(  0.00%)p 1.00(100.00%)
                                           -0.0000  0.0000  0.0000  0.0000 -0.0000
                                           -0.0000  1.0000 -0.0007 -0.0000 -0.0000
                                            0.0000 -0.0000 -0.0001  0.0000  0.0000
                                           -0.0000  0.0000  0.0000  0.0000  0.0000
                                            0.0000  0.0000 -0.0000  0.0000  0.0000
                                            0.0000  0.0000  0.0000  0.0000  0.0000
                                            0.0000  0.0000  0.0000  0.0000  0.0000
                                            0.0000  0.0000  0.0000  0.0000  0.0000
                                           -0.0000  0.0000  0.0000  0.0000  0.0000
                                            0.0000  0.0000  0.0000  0.0000  0.0000
                                            0.0000  0.0000  0.0000 -0.0000 -0.0000
    11. (1.99958) CR ( 3) I   3           s(  0.00%)p 1.00(100.00%)
                                           -0.0000  0.0001 -0.0000  0.0000  0.0000
                                           -0.0000 -0.0000 -0.0001  0.0000  0.0000
                                           -0.0000  1.0000 -0.0010  0.0000  0.0000
                                           -0.0000  0.0000  0.0000  0.0000  0.0000
                                            0.0000 -0.0000 -0.0000 -0.0000 -0.0000
                                            0.0000  0.0000  0.0000  0.0000  0.0000
                                            0.0000  0.0000  0.0000  0.0000  0.0000
                                            0.0000 -0.0000  0.0000  0.0000  0.0000
                                           -0.0000  0.0000  0.0000  0.0000  0.0000
                                            0.0000  0.0000  0.0000  0.0000  0.0000
                                            0.0000  0.0000  0.0000  0.0000  0.0000
    12. (1.99991) CR ( 4) I   3           s(  0.00%)p 1.00(100.00%)
                                            0.0000  0.0000  0.0000  0.0000  0.0000
                                            0.0000  0.0000  0.0000  0.0000  0.0000
                                            0.0000  0.0000  0.0000  0.0000  0.0000
                                            0.0000  1.0000 -0.0007 -0.0000 -0.0000
                                            0.0000  0.0000  0.0000  0.0000  0.0000
                                            0.0000 -0.0000  0.0000  0.0000  0.0000
                                           -0.0000  0.0000  0.0000  0.0000  0.0000
                                            0.0000  0.0000  0.0000  0.0000  0.0000
                                            0.0000  0.0000  0.0000  0.0000  0.0000
                                            0.0000  0.0000  0.0000  0.0000 -0.0000
                                           -0.0000  0.0000  0.0000  0.0000  0.0000
    13. (1.99664) CR ( 5) I   3           s(  0.00%)p 0.00(  0.00%)d 1.00(100.00%)
                                            0.0000  0.0001 -0.0000  0.0000  0.0000
                                           -0.0000  0.0000  0.0000  0.0000  0.0000
                                           -0.0000 -0.0000 -0.0000  0.0000 -0.0000
                                           -0.0000  0.0000  0.0000  0.0000  0.0000
                                            0.0000  1.0000  0.0000 -0.0000 -0.0000
                                            0.0000  0.0000  0.0000  0.0000  0.0000
                                            0.0000  0.0000  0.0000  0.0000  0.0000
                                           -0.0000 -0.0000  0.0000  0.0000  0.0000
                                            0.0000  0.0000  0.0000 -0.0000 -0.0000
                                            0.0000  0.0000  0.0000  0.0000  0.0000
                                            0.0000 -0.0000 -0.0000  0.0000  0.0000
    14. (1.99679) CR ( 6) I   3           s(  0.00%)p 0.00(  0.00%)d 1.00(100.00%)
                                            0.0000  0.0000  0.0000  0.0000  0.0000
                                            0.0000  0.0000  0.0000  0.0000  0.0000
                                            0.0000  0.0000  0.0000  0.0000  0.0000
                                            0.0000  0.0000  0.0000  0.0000  0.0000
                                           -0.0000  0.0000  0.0000  0.0000  0.0000
                                            1.0000  0.0000 -0.0000 -0.0000 -0.0000
                                            0.0000 -0.0000 -0.0000  0.0000  0.0000
                                            0.0000  0.0000  0.0000  0.0000  0.0000
                                            0.0000 -0.0000 -0.0000  0.0000  0.0000
                                            0.0000  0.0000 -0.0000 -0.0000  0.0000
                                            0.0000  0.0000  0.0000  0.0000  0.0000
    15. (1.99672) CR ( 7) I   3           s(  0.00%)p 0.00(  0.00%)d 1.00(100.00%)
                                            0.0000  0.0000  0.0000  0.0000  0.0000
                                            0.0000  0.0000  0.0000  0.0000  0.0000
                                            0.0000  0.0000  0.0000  0.0000  0.0000
                                            0.0000  0.0000  0.0001  0.0000  0.0000
                                           -0.0000  0.0000  0.0000  0.0000  0.0000
                                           -0.0000  0.0000 -0.0000 -0.0000  1.0000
                                            0.0000 -0.0000 -0.0000  0.0000  0.0000
                                            0.0000  0.0000  0.0000  0.0000  0.0000
                                            0.0000 -0.0000 -0.0000  0.0000  0.0000
                                            0.0000  0.0000 -0.0000 -0.0000  0.0000
                                            0.0000  0.0000  0.0000  0.0000  0.0000
    16. (1.99640) CR ( 8) I   3           s(  0.00%)p 0.00(  0.00%)d 1.00(100.00%)
                                            0.0000  0.0001 -0.0000  0.0000 -0.0000
                                           -0.0000 -0.0000 -0.0000 -0.0000 -0.0000
                                           -0.0000 -0.0000 -0.0000  0.0000  0.0000
                                           -0.0000 -0.0000 -0.0000 -0.0000 -0.0000
                                           -0.0000 -0.0000 -0.0000  0.0000  0.0000
                                           -0.0000 -0.0000 -0.0000 -0.0000 -0.0000
                                           -0.0000 -0.0000 -0.0000 -1.0000  0.0000
                                            0.0000  0.0000  0.0000  0.0000  0.0000
                                            0.0000 -0.0000 -0.0000  0.0000  0.0000
                                            0.0000  0.0000 -0.0000 -0.0000 -0.0000
                                           -0.0000  0.0000  0.0000  0.0000 -0.0000
    17. (1.99663) CR ( 9) I   3           s(  0.00%)p 0.00(  0.00%)d 1.00(100.00%)
                                           -0.0000 -0.0001  0.0000 -0.0000  0.0000
                                            0.0000  0.0000  0.0000 -0.0000  0.0000
                                            0.0000  0.0000  0.0000 -0.0000  0.0000
                                            0.0000  0.0000  0.0000  0.0000  0.0000
                                            0.0000  0.0000  0.0000  0.0000  0.0000
                                            0.0000  0.0000  0.0000  0.0000  0.0000
                                            0.0000  0.0000  0.0000 -0.0000 -0.0000
                                           -0.0000  0.0000  1.0000 -0.0000 -0.0000
                                           -0.0000  0.0000  0.0000 -0.0000 -0.0000
                                           -0.0000 -0.0000  0.0000  0.0000  0.0000
                                            0.0000 -0.0000 -0.0000 -0.0000 -0.0000
    18. (1.96650) LP ( 1) O   1           s( 71.75%)p 0.39( 28.20%)d 0.00(  0.05%)
                                                  f 0.00(  0.00%)
                                            0.0002  0.8469  0.0114 -0.0075 -0.0010
                                           -0.2549  0.0013 -0.0043 -0.0004  0.4658
                                            0.0063  0.0042  0.0005  0.0000  0.0000
                                            0.0000  0.0000  0.0197  0.0030 -0.0017
                                            0.0000  0.0000  0.0000  0.0000  0.0000
                                            0.0000  0.0078  0.0007 -0.0022  0.0061
                                            0.0003  0.0014  0.0000  0.0000 -0.0005
                                            0.0006 -0.0014 -0.0001  0.0000  0.0000
                                            0.0000  0.0000  0.0037 -0.0023  0.0044
                                           -0.0011
    19. (1.94854) LP ( 2) O   1           s(  0.00%)p 1.00( 99.84%)d 0.00(  0.14%)
                                                  f 0.00(  0.01%)
                                            0.0000  0.0000  0.0000  0.0000  0.0000
                                            0.0000  0.0000  0.0000  0.0000  0.0000
                                            0.0000  0.0000  0.0000  0.9990  0.0164
                                            0.0039  0.0127  0.0000  0.0000  0.0000
                                            0.0323  0.0046 -0.0021 -0.0167  0.0035
                                            0.0089  0.0000  0.0000  0.0000  0.0000
                                            0.0000  0.0000 -0.0089  0.0003  0.0000
                                            0.0000  0.0000  0.0000  0.0070 -0.0020
                                            0.0002  0.0009  0.0000  0.0000  0.0000
                                            0.0000
    20. (1.66416) LP ( 3) O   1           s( 17.02%)p 4.86( 82.71%)d 0.02(  0.26%)
                                                  f 0.00(  0.01%)
                                           -0.0000  0.4125  0.0035  0.0082  0.0025
                                           -0.2369  0.0138  0.0027  0.0073 -0.8779
                                           -0.0089  0.0013  0.0042 -0.0000 -0.0000
                                           -0.0000 -0.0000 -0.0143 -0.0034 -0.0009
                                           -0.0000 -0.0000 -0.0000 -0.0000 -0.0000
                                           -0.0000 -0.0440 -0.0056  0.0013 -0.0195
                                           -0.0016  0.0038 -0.0000 -0.0000  0.0020
                                            0.0003  0.0088 -0.0018 -0.0000 -0.0000
                                           -0.0000 -0.0000  0.0021 -0.0000 -0.0019
                                           -0.0006
    21. (1.97310) LP ( 1)Cl   2           s( 90.91%)p 0.10(  9.06%)d 0.00(  0.02%)
                                                  f 0.00(  0.00%)
                                            0.0000  0.0002  0.9534  0.0070  0.0012
                                            0.0005  0.0001  0.2976 -0.0062 -0.0032
                                            0.0012  0.0000 -0.0446  0.0007 -0.0000
                                           -0.0005  0.0000  0.0000  0.0000  0.0000
                                            0.0000 -0.0004 -0.0004 -0.0003  0.0000
                                            0.0000  0.0000  0.0000  0.0000  0.0000
                                           -0.0134 -0.0000  0.0005  0.0082  0.0006
                                            0.0000  0.0000  0.0000 -0.0024 -0.0003
                                            0.0001 -0.0000  0.0000  0.0000  0.0000
                                            0.0000  0.0037 -0.0001 -0.0004  0.0001
    22. (1.95517) LP ( 2)Cl   2           s(  0.00%)p 1.00( 99.94%)d 0.00(  0.05%)
                                                  f 0.00(  0.01%)
                                            0.0000  0.0000  0.0000  0.0000  0.0000
                                            0.0000  0.0000  0.0000  0.0000  0.0000
                                            0.0000  0.0000  0.0000  0.0000  0.0000
                                            0.0000 -0.0002  0.9996  0.0148  0.0049
                                           -0.0021  0.0000  0.0000  0.0000  0.0102
                                            0.0191  0.0078  0.0020  0.0016  0.0002
                                            0.0000  0.0000  0.0000  0.0000  0.0000
                                            0.0000 -0.0056  0.0016  0.0000  0.0000
                                            0.0000  0.0000  0.0064 -0.0012  0.0007
                                           -0.0005  0.0000  0.0000  0.0000  0.0000
    23. (1.95298) LP ( 3)Cl   2           s(  0.22%)p99.99( 99.73%)d 0.18(  0.04%)
                                                  f 0.04(  0.01%)
                                            0.0000 -0.0000  0.0465  0.0038  0.0042
                                           -0.0027  0.0000  0.0003  0.0007  0.0000
                                           -0.0003 -0.0001  0.9986  0.0140  0.0015
                                            0.0006  0.0000  0.0000  0.0000  0.0000
                                            0.0000  0.0024  0.0170  0.0075  0.0000
                                            0.0000  0.0000  0.0000  0.0000  0.0000
                                           -0.0053 -0.0038 -0.0024  0.0003 -0.0015
                                            0.0001  0.0000  0.0000  0.0000  0.0002
                                           -0.0026  0.0006  0.0000  0.0000  0.0000
                                            0.0000 -0.0010  0.0003  0.0085 -0.0017
    24. (1.97566) LP ( 1) I   3           s( 88.63%)p 0.13( 11.37%)d 0.00(  0.00%)
                                                  f 0.00(  0.00%)
                                            0.0005  0.9414 -0.0002  0.0024 -0.0002
                                           -0.0003 -0.0001 -0.0849  0.0005 -0.0001
                                           -0.0002 -0.0004 -0.3263  0.0037  0.0002
                                           -0.0005  0.0000  0.0000  0.0000  0.0000
                                            0.0000 -0.0001 -0.0018 -0.0002  0.0000
                                            0.0000  0.0000  0.0000  0.0000  0.0000
                                            0.0000  0.0000  0.0000  0.0001  0.0034
                                            0.0002 -0.0002  0.0001  0.0025  0.0003
                                            0.0001  0.0000  0.0000  0.0002  0.0001
                                            0.0009  0.0002  0.0000  0.0000  0.0000
                                            0.0000  0.0007  0.0001  0.0008  0.0001
    25. (1.95201) LP ( 2) I   3           s(  0.00%)p 1.00( 99.99%)d 0.00(  0.01%)
                                                  f 0.00(  0.00%)
                                            0.0000  0.0000  0.0000  0.0000  0.0000
                                            0.0000  0.0000  0.0000  0.0000  0.0000
                                            0.0000  0.0000  0.0000  0.0000  0.0000
                                            0.0000  0.0007  0.9999  0.0057  0.0022
                                           -0.0006  0.0000  0.0000  0.0000  0.0000
                                           -0.0000  0.0008 -0.0008 -0.0016 -0.0001
                                            0.0069 -0.0013 -0.0050  0.0000  0.0000
                                            0.0000  0.0000  0.0000  0.0000  0.0000
                                            0.0000 -0.0036 -0.0014  0.0000  0.0000
                                            0.0000  0.0000 -0.0042 -0.0016  0.0020
                                            0.0008  0.0000  0.0000  0.0000  0.0000
    26. (1.95174) LP ( 3) I   3           s(  0.00%)p 1.00( 99.98%)d 0.00(  0.01%)
                                                  f 0.00(  0.00%)
                                            0.0000  0.0068 -0.0002 -0.0012  0.0006
                                           -0.0002  0.0007  0.9723  0.0054  0.0022
                                           -0.0008 -0.0002 -0.2334 -0.0016 -0.0009
                                            0.0002  0.0000  0.0000  0.0000  0.0000
                                            0.0000 -0.0001  0.0073 -0.0013 -0.0044
                                            0.0000  0.0000  0.0000  0.0000  0.0000
                                            0.0000  0.0000  0.0000 -0.0000  0.0017
                                           -0.0016 -0.0033  0.0000  0.0005  0.0004
                                            0.0003  0.0000  0.0000 -0.0014 -0.0005
                                            0.0003  0.0001  0.0000  0.0000  0.0000
                                            0.0000 -0.0045 -0.0016  0.0032  0.0010
    27. (0.02242) RY*( 1) O   1           s(  0.00%)p 1.00( 99.12%)d 0.01(  0.83%)
                                                  f 0.00(  0.04%)
                                            0.0000  0.0000  0.0000  0.0000  0.0000
                                            0.0000  0.0000  0.0000  0.0000  0.0000
                                            0.0000  0.0000  0.0000 -0.0196  0.9949
                                           -0.0311 -0.0081  0.0000  0.0000  0.0000
                                            0.0689  0.0260  0.0053 -0.0525 -0.0028
                                            0.0098  0.0000  0.0000  0.0000  0.0000
                                            0.0000  0.0000 -0.0132  0.0101  0.0000
[...]
                                           -0.0035 -0.0324  0.0415 -0.0274 -0.0621
                                            0.8349 -0.0378  0.0473 -0.2243  0.1626
                                            0.0000  0.0000  0.0000 -0.3315  0.0611
                                            0.0000  0.0000  0.0000  0.0000 -0.3148
                                           -0.0101  0.0169 -0.0460
   158. (0.00035) RY*( 8) H   4           s( 15.36%)p 1.14( 17.55%)d 4.37( 67.09%)
                                           -0.0044 -0.0549  0.2794 -0.2692  0.1250
                                            0.2967  0.2385 -0.0351  0.0424 -0.1094
                                            0.0000  0.0000  0.0000  0.7750  0.0982
                                            0.0000  0.0000  0.0000  0.0000 -0.0967
                                            0.0339 -0.2203 -0.0399
   159. (0.00033) RY*( 9) H   4           s(  0.58%)p16.99(  9.84%)d99.99( 89.58%)
                                           -0.0039 -0.0296  0.0690 -0.0121  0.0184
                                           -0.2434  0.0244 -0.0280  0.0271  0.1916
                                           -0.0000 -0.0000 -0.0000  0.1564 -0.0568
                                           -0.0000 -0.0000 -0.0000 -0.0000 -0.6699
                                           -0.0134  0.5961 -0.2525
   160. (0.00032) RY*(10) H   4           s(  0.00%)p 1.00(  0.06%)d99.99( 99.94%)
                                            0.0000  0.0000  0.0000  0.0000  0.0000
                                            0.0000  0.0000  0.0000  0.0000  0.0000
                                            0.0195 -0.0118  0.0065  0.0000  0.0000
                                            0.9598 -0.2644 -0.0656  0.0628  0.0000
                                            0.0000  0.0000  0.0000
   161. (0.00028) RY*(11) H   4           s(  0.00%)p 1.00( 71.49%)d 0.40( 28.51%)
                                            0.0000  0.0000  0.0000  0.0000  0.0000
                                            0.0000  0.0000  0.0000  0.0000  0.0000
                                            0.0129  0.8348  0.1339  0.0000  0.0000
                                            0.0543  0.0579  0.5192  0.0960  0.0000
                                            0.0000  0.0000  0.0000
   162. (0.00028) RY*(12) H   4           s( 12.65%)p 0.98( 12.40%)d 5.92( 74.95%)
                                            0.0068  0.0247 -0.1801  0.3057  0.1038
                                            0.2813  0.1143  0.0241 -0.1358 -0.0443
                                            0.0000  0.0000  0.0000  0.2536 -0.0162
                                            0.0000  0.0000  0.0000  0.0000  0.5011
                                            0.1513  0.6400 -0.0360
   163. (0.00025) RY*(13) H   4           s( 28.22%)p 1.55( 43.81%)d 0.99( 27.97%)
                                           -0.0076 -0.0598 -0.2111  0.4837 -0.0019
                                           -0.0684  0.0952 -0.0020 -0.1939  0.6219
                                            0.0000  0.0000  0.0000  0.2330  0.1593
                                            0.0000  0.0000  0.0000  0.0000  0.0045
                                           -0.2849 -0.3061 -0.1584
   164. (0.00014) RY*(14) H   4           s( 61.85%)p 0.52( 32.43%)d 0.09(  5.72%)
                                           -0.0007 -0.0189  0.6760  0.4015  0.0150
                                            0.0472  0.2529 -0.0063  0.4770  0.1740
                                            0.0000  0.0000  0.0000 -0.1892 -0.0020
                                            0.0000  0.0000  0.0000  0.0000  0.0879
                                            0.1059  0.0277  0.0415
   165. (0.00012) RY*(15) H   4           s( 40.31%)p 1.13( 45.73%)d 0.35( 13.96%)
                                            0.0018  0.0017 -0.0584  0.6322 -0.0164
                                            0.0483 -0.1401  0.0721 -0.0161 -0.6555
                                            0.0000  0.0000  0.0000  0.0916  0.0517
                                            0.0000  0.0000  0.0000  0.0000 -0.3112
                                           -0.0618 -0.1449 -0.0828
   166. (0.00009) RY*(16) H   4           s(  0.00%)p 1.00( 39.55%)d 1.53( 60.45%)
   167. (0.00008) RY*(17) H   4           s(  1.91%)p 6.86( 13.10%)d44.52( 84.99%)
   168. (0.00007) RY*(18) H   4           s(  0.00%)p 1.00( 41.76%)d 1.39( 58.24%)
   169. (0.00005) RY*(19) H   4           s(  4.66%)p 3.11( 14.51%)d17.34( 80.83%)
   170. (0.00005) RY*(20) H   4           s(  2.57%)p26.08( 66.98%)d11.86( 30.45%)
   171. (0.00003) RY*(21) H   4           s(  0.00%)p 1.00(  0.30%)d99.99( 99.70%)
   172. (0.00003) RY*(22) H   4           s(  0.38%)p 4.49(  1.72%)d99.99( 97.89%)
   173. (0.06545) BD*( 1) O   1 -Cl   2  
                ( 42.18%)   0.6495* O   1 s( 11.53%)p 7.63( 87.98%)d 0.04(  0.47%)
                                                  f 0.00(  0.02%)
                                           -0.0003 -0.3346  0.0559 -0.0168  0.0006
                                           -0.9316  0.0424  0.0104  0.0158  0.0963
                                            0.0218  0.0035 -0.0029 -0.0000 -0.0000
                                           -0.0000 -0.0000  0.0158  0.0024 -0.0005
                                           -0.0000 -0.0000 -0.0000 -0.0000 -0.0000
                                           -0.0000 -0.0524 -0.0034 -0.0017  0.0407
                                            0.0033 -0.0005 -0.0000 -0.0000  0.0105
                                           -0.0009 -0.0006  0.0001 -0.0000 -0.0000
                                           -0.0000 -0.0000 -0.0079 -0.0011  0.0009
                                           -0.0010
                ( 57.82%)  -0.7604*Cl   2 s(  9.14%)p 9.80( 89.63%)d 0.12(  1.10%)
                                                  f 0.01(  0.12%)
                                            0.0000 -0.0006 -0.2969  0.0561  0.0099
                                            0.0035  0.0004  0.9443 -0.0648 -0.0134
                                            0.0027  0.0000  0.0130  0.0020 -0.0034
                                            0.0020 -0.0000 -0.0000 -0.0000 -0.0000
                                           -0.0000 -0.0134  0.0006  0.0001 -0.0000
                                           -0.0000 -0.0000 -0.0000 -0.0000 -0.0000
                                           -0.0868  0.0125  0.0022  0.0551 -0.0080
                                           -0.0025 -0.0000 -0.0000 -0.0221  0.0027
                                           -0.0006  0.0001 -0.0000 -0.0000 -0.0000
                                           -0.0000  0.0269 -0.0025  0.0022 -0.0004
   174. (0.31620) BD*( 1) I   3 - H   4  
                ( 19.28%)   0.4391* I   3 s( 11.36%)p 7.78( 88.43%)d 0.02(  0.18%)
                                                  f 0.00(  0.03%)
                                           -0.0004 -0.3370 -0.0004  0.0064  0.0004
                                           -0.0013 -0.0002 -0.2172  0.0029  0.0012
                                           -0.0005 -0.0009 -0.9148  0.0155  0.0063
                                           -0.0016 -0.0000 -0.0000 -0.0000 -0.0000
                                           -0.0000  0.0000 -0.0163 -0.0021  0.0004
                                           -0.0000 -0.0000 -0.0000 -0.0000 -0.0000
                                           -0.0000 -0.0000 -0.0000 -0.0000  0.0327
                                            0.0029 -0.0013 -0.0000  0.0222  0.0025
                                           -0.0001 -0.0000 -0.0000  0.0024  0.0007
                                            0.0101  0.0025 -0.0000 -0.0000 -0.0000
                                           -0.0000  0.0084  0.0021  0.0099  0.0018
                ( 80.72%)  -0.8984* H   4 s( 99.66%)p 0.00(  0.32%)d 0.00(  0.02%)
                                           -0.9980  0.0112 -0.0225 -0.0008  0.0087
                                            0.0042  0.0024  0.0481  0.0273 -0.0001
                                           -0.0000 -0.0000 -0.0000  0.0011 -0.0064
                                           -0.0000 -0.0000 -0.0000 -0.0000 -0.0000
                                            0.0114  0.0017  0.0078


 NHO Directionality and "Bond Bending" (deviations from line of nuclear centers)

         [Thresholds for printing:  angular deviation  >  1.0 degree]
                                    hybrid p-character > 25.0%
                                    orbital occupancy  >  0.10e

                                Line of Centers        Hybrid 1              Hybrid 2
                                ---------------  -------------------   ------------------
                NBO               Theta   Phi    Theta   Phi    Dev    Theta   Phi    Dev
 ========================================================================================
     1. BD (   1) O   1 -Cl   2    90.0    0.0    90.0  352.2   7.8      --     --    --
    18. LP (   1) O   1             --     --     90.0  118.5   --       --     --    --
    19. LP (   2) O   1             --     --      0.0    0.0   --       --     --    --
    20. LP (   3) O   1             --     --     90.0  256.4   --       --     --    --
    22. LP (   2)Cl   2             --     --      0.0    0.0   --       --     --    --
    23. LP (   3)Cl   2             --     --     90.0   90.0   --       --     --    --
    25. LP (   2) I   3             --     --      0.0    0.0   --       --     --    --
    26. LP (   3) I   3             --     --     90.0  346.5   --       --     --    --


 Natural Bond Orbitals (Summary):

           NBO                  Occupancy  
 -----------------------------------------------
 Molecular unit  1  (OCl)
     1. BD (   1) O   1 -Cl   2          1.93672
     3. CR (   1) O   1                  1.99982
     4. CR (   1)Cl   2                  2.00000
     5. CR (   2)Cl   2                  1.99974
     6. CR (   3)Cl   2                  1.99995
     7. CR (   4)Cl   2                  2.00003
     8. CR (   5)Cl   2                  2.00003
    18. LP (   1) O   1                  1.96650
    19. LP (   2) O   1                  1.94854
    20. LP (   3) O   1                  1.66416
    21. LP (   1)Cl   2                  1.97310
    22. LP (   2)Cl   2                  1.95517
    23. LP (   3)Cl   2                  1.95298
    27. RY*(   1) O   1                  0.02242
    28. RY*(   2) O   1                  0.01844
    29. RY*(   3) O   1                  0.00868
    30. RY*(   4) O   1                  0.00701
    31. RY*(   5) O   1                  0.00678
    32. RY*(   6) O   1                  0.00632
    33. RY*(   7) O   1                  0.00576
    34. RY*(   8) O   1                  0.00487
    35. RY*(   9) O   1                  0.00229
    36. RY*(  10) O   1                  0.00071
    37. RY*(  11) O   1                  0.00070
    38. RY*(  12) O   1                  0.00069
    39. RY*(  13) O   1                  0.00060
    40. RY*(  14) O   1                  0.00057
    41. RY*(  15) O   1                  0.00055
    42. RY*(  16) O   1                  0.00051
    43. RY*(  17) O   1                  0.00050
    44. RY*(  18) O   1                  0.00049
    45. RY*(  19) O   1                  0.00047
    46. RY*(  20) O   1                  0.00047
    47. RY*(  21) O   1                  0.00046
    48. RY*(  22) O   1                  0.00046
    49. RY*(  23) O   1                  0.00042
    50. RY*(  24) O   1                  0.00037
    51. RY*(  25) O   1                  0.00029
    52. RY*(  26) O   1                  0.00020
    53. RY*(  27) O   1                  0.00013
    54. RY*(  28) O   1                  0.00012
    55. RY*(  29) O   1                  0.00012
    56. RY*(  30) O   1                  0.00009
    57. RY*(  31) O   1                  0.00009
    58. RY*(  32) O   1                  0.00010
    59. RY*(  33) O   1                  0.00009
    60. RY*(  34) O   1                  0.00008
    61. RY*(  35) O   1                  0.00009
    62. RY*(  36) O   1                  0.00007
    63. RY*(  37) O   1                  0.00008
    64. RY*(  38) O   1                  0.00005
    65. RY*(  39) O   1                  0.00006
    66. RY*(  40) O   1                  0.00003
    67. RY*(  41) O   1                 -0.00015
    68. RY*(   1)Cl   2                  0.02418
    69. RY*(   2)Cl   2                  0.02011
    70. RY*(   3)Cl   2                  0.01702
    71. RY*(   4)Cl   2                  0.01697
    72. RY*(   5)Cl   2                  0.01264
    73. RY*(   6)Cl   2                  0.00973
    74. RY*(   7)Cl   2                  0.00946
    75. RY*(   8)Cl   2                  0.00664
    76. RY*(   9)Cl   2                  0.00192
    77. RY*(  10)Cl   2                  0.00127
    78. RY*(  11)Cl   2                  0.00127
    79. RY*(  12)Cl   2                  0.00121
    80. RY*(  13)Cl   2                  0.00122
    81. RY*(  14)Cl   2                  0.00119
    82. RY*(  15)Cl   2                  0.00115
    83. RY*(  16)Cl   2                  0.00100
    84. RY*(  17)Cl   2                  0.00080
    85. RY*(  18)Cl   2                  0.00079
    86. RY*(  19)Cl   2                  0.00068
    87. RY*(  20)Cl   2                  0.00063
    88. RY*(  21)Cl   2                  0.00050
    89. RY*(  22)Cl   2                  0.00040
    90. RY*(  23)Cl   2                  0.00036
    91. RY*(  24)Cl   2                  0.00033
    92. RY*(  25)Cl   2                  0.00019
    93. RY*(  26)Cl   2                  0.00017
    94. RY*(  27)Cl   2                  0.00017
    95. RY*(  28)Cl   2                  0.00015
    96. RY*(  29)Cl   2                  0.00013
    97. RY*(  30)Cl   2                  0.00012
    98. RY*(  31)Cl   2                  0.00013
    99. RY*(  32)Cl   2                  0.00011
   100. RY*(  33)Cl   2                  0.00011
   101. RY*(  34)Cl   2                  0.00010
   102. RY*(  35)Cl   2                  0.00009
   103. RY*(  36)Cl   2                  0.00010
   104. RY*(  37)Cl   2                  0.00009
   105. RY*(  38)Cl   2                  0.00006
   106. RY*(  39)Cl   2                  0.00004
   107. RY*(  40)Cl   2                  0.00003
   108. RY*(  41)Cl   2                  0.00000
   173. BD*(   1) O   1 -Cl   2          0.06545
       -------------------------------
              Total Lewis   25.39672  ( 98.8680%)
        Valence non-Lewis    0.06545  (  0.2548%)
        Rydberg non-Lewis    0.22533  (  0.8772%)
       -------------------------------
            Total unit  1   25.68751  (100.0000%)
           Charge unit  1   -0.68751

 Molecular unit  2  (HI)
     2. BD (   1) I   3 - H   4          1.94842
     9. CR (   1) I   3                  1.99935
    10. CR (   2) I   3                  1.99989
    11. CR (   3) I   3                  1.99958
    12. CR (   4) I   3                  1.99991
    13. CR (   5) I   3                  1.99664
    14. CR (   6) I   3                  1.99679
    15. CR (   7) I   3                  1.99672
    16. CR (   8) I   3                  1.99640
    17. CR (   9) I   3                  1.99663
    24. LP (   1) I   3                  1.97566
    25. LP (   2) I   3                  1.95201
    26. LP (   3) I   3                  1.95174
   109. RY*(   1) I   3                  0.01962
   110. RY*(   2) I   3                  0.01961
   111. RY*(   3) I   3                  0.01924
   112. RY*(   4) I   3                  0.01911
   113. RY*(   5) I   3                  0.01806
   114. RY*(   6) I   3                  0.00978
   115. RY*(   7) I   3                  0.00973
   116. RY*(   8) I   3                  0.00786
   117. RY*(   9) I   3                  0.00273
   118. RY*(  10) I   3                  0.00273
   119. RY*(  11) I   3                  0.00271
   120. RY*(  12) I   3                  0.00271
   121. RY*(  13) I   3                  0.00267
   122. RY*(  14) I   3                  0.00260
   123. RY*(  15) I   3                  0.00259
   124. RY*(  16) I   3                  0.00171
   125. RY*(  17) I   3                  0.00157
   126. RY*(  18) I   3                  0.00158
   127. RY*(  19) I   3                  0.00117
   128. RY*(  20) I   3                  0.00112
   129. RY*(  21) I   3                  0.00102
   130. RY*(  22) I   3                  0.00067
   131. RY*(  23) I   3                  0.00067
   132. RY*(  24) I   3                  0.00054
   133. RY*(  25) I   3                  0.00047
   134. RY*(  26) I   3                  0.00043
   135. RY*(  27) I   3                  0.00041
   136. RY*(  28) I   3                  0.00040
   137. RY*(  29) I   3                  0.00040
   138. RY*(  30) I   3                  0.00037
   139. RY*(  31) I   3                  0.00034
   140. RY*(  32) I   3                  0.00025
   141. RY*(  33) I   3                  0.00020
   142. RY*(  34) I   3                  0.00018
   143. RY*(  35) I   3                  0.00013
   144. RY*(  36) I   3                  0.00013
   145. RY*(  37) I   3                  0.00010
   146. RY*(  38) I   3                  0.00011
   147. RY*(  39) I   3                  0.00008
   148. RY*(  40) I   3                  0.00008
   149. RY*(  41) I   3                  0.00005
   150. RY*(  42) I   3                  0.00001
   151. RY*(   1) H   4                  0.00746
   152. RY*(   2) H   4                  0.00660
   153. RY*(   3) H   4                  0.00512
   154. RY*(   4) H   4                  0.00452
   155. RY*(   5) H   4                  0.00326
   156. RY*(   6) H   4                  0.00077
   157. RY*(   7) H   4                  0.00040
   158. RY*(   8) H   4                  0.00035
   159. RY*(   9) H   4                  0.00033
   160. RY*(  10) H   4                  0.00032
   161. RY*(  11) H   4                  0.00028
   162. RY*(  12) H   4                  0.00028
   163. RY*(  13) H   4                  0.00025
   164. RY*(  14) H   4                  0.00014
   165. RY*(  15) H   4                  0.00012
   166. RY*(  16) H   4                  0.00009
   167. RY*(  17) H   4                  0.00008
   168. RY*(  18) H   4                  0.00007
   169. RY*(  19) H   4                  0.00005
   170. RY*(  20) H   4                  0.00005
   171. RY*(  21) H   4                  0.00003
   172. RY*(  22) H   4                  0.00003
   174. BD*(   1) I   3 - H   4          0.31620
       -------------------------------
              Total Lewis   53.80974  ( 99.0743%)
        Valence non-Lewis    0.31620  (  0.5822%)
        Rydberg non-Lewis    0.18655  (  0.3435%)
       -------------------------------
            Total unit  2   54.31249  (100.0000%)
           Charge unit  2   -0.31249
 Leave Link  607 at Tue Oct 12 15:37:10 2021, MaxMem=  1048576000 cpu:        10.5
 (Enter /usr/local/gaussian/g09/l9999.exe)
 1\1\GINC-KRYPTON\SP\RMP2-FC\Gen\Cl1H1I1O1(1-)\CGAVINH\12-Oct-2021\0\\#
 p pop=NBO SP NoSymm mp2/gen Pseudo=read density=current\\title\\-1,1\O
 \X,1,10.\Cl,1,1.68652173,2,90.\I,1,3.31229946,2,90.,3,103.24540347,0\H
 ,1,1.3,2,90.,3,103.24540347,0\\Version=ES64L-G09RevE.01\HF=-829.647096
 3\MP2=-830.3463663\RMSD=6.874e-09\Dipole=0.7506526,0.5292573,0.\Quadru
 pole=6.2727775,-14.8395551,8.5667775,-5.8130657,0.,0.\PG=CS [SG(Cl1H1I
 1O1)]\\@


 NATURE GIVES TO EVERY TIME AND SEASON SOME BEAUTY OF ITS OWN.

                                                    --DICKENS
 Job cpu time:       0 days  0 hours  2 minutes 39.4 seconds.
 File lengths (MBytes):  RWF=     13 Int=      0 D2E=      0 Chk=      3 Scr=      1
 Normal termination of Gaussian 09 at Tue Oct 12 15:37:10 2021.
