 Entering Gaussian System, Link 0=g09
 Input=ihocl_rOH_110_sp.gjf
 Output=ihocl_rOH_110_sp.log
 Initial command:
 /usr/local/gaussian/g09/l1.exe "/scratch/Gau-26383.inp" -scrdir="/scratch/"
 Entering Link 1 = /usr/local/gaussian/g09/l1.exe PID=     26384.
  
 Copyright (c) 1988,1990,1992,1993,1995,1998,2003,2009,2015,
            Gaussian, Inc.  All Rights Reserved.
  
 This is part of the Gaussian(R) 09 program.  It is based on
 the Gaussian(R) 03 system (copyright 2003, Gaussian, Inc.),
 the Gaussian(R) 98 system (copyright 1998, Gaussian, Inc.),
 the Gaussian(R) 94 system (copyright 1995, Gaussian, Inc.),
 the Gaussian 92(TM) system (copyright 1992, Gaussian, Inc.),
 the Gaussian 90(TM) system (copyright 1990, Gaussian, Inc.),
 the Gaussian 88(TM) system (copyright 1988, Gaussian, Inc.),
 the Gaussian 86(TM) system (copyright 1986, Carnegie Mellon
 University), and the Gaussian 82(TM) system (copyright 1983,
 Carnegie Mellon University). Gaussian is a federally registered
 trademark of Gaussian, Inc.
  
 This software contains proprietary and confidential information,
 including trade secrets, belonging to Gaussian, Inc.
  
 This software is provided under written license and may be
 used, copied, transmitted, or stored only in accord with that
 written license.
  
 The following legend is applicable only to US Government
 contracts under FAR:
  
                    RESTRICTED RIGHTS LEGEND
  
 Use, reproduction and disclosure by the US Government is
 subject to restrictions as set forth in subparagraphs (a)
 and (c) of the Commercial Computer Software - Restricted
 Rights clause in FAR 52.227-19.
  
 Gaussian, Inc.
 340 Quinnipiac St., Bldg. 40, Wallingford CT 06492
  
  
 ---------------------------------------------------------------
 Warning -- This program may not be used in any manner that
 competes with the business of Gaussian, Inc. or will provide
 assistance to any competitor of Gaussian, Inc.  The licensee
 of this program is prohibited from giving any competitor of
 Gaussian, Inc. access to this program.  By using this program,
 the user acknowledges that Gaussian, Inc. is engaged in the
 business of creating and licensing software in the field of
 computational chemistry and represents and warrants to the
 licensee that it is not a competitor of Gaussian, Inc. and that
 it will not use this program in any manner prohibited above.
 ---------------------------------------------------------------
  

 Cite this work as:
 Gaussian 09, Revision E.01,
 M. J. Frisch, G. W. Trucks, H. B. Schlegel, G. E. Scuseria, 
 M. A. Robb, J. R. Cheeseman, G. Scalmani, V. Barone, B. Mennucci, 
 G. A. Petersson, H. Nakatsuji, M. Caricato, X. Li, H. P. Hratchian, 
 A. F. Izmaylov, J. Bloino, G. Zheng, J. L. Sonnenberg, M. Hada, 
 M. Ehara, K. Toyota, R. Fukuda, J. Hasegawa, M. Ishida, T. Nakajima, 
 Y. Honda, O. Kitao, H. Nakai, T. Vreven, J. A. Montgomery, Jr., 
 J. E. Peralta, F. Ogliaro, M. Bearpark, J. J. Heyd, E. Brothers, 
 K. N. Kudin, V. N. Staroverov, T. Keith, R. Kobayashi, J. Normand, 
 K. Raghavachari, A. Rendell, J. C. Burant, S. S. Iyengar, J. Tomasi, 
 M. Cossi, N. Rega, J. M. Millam, M. Klene, J. E. Knox, J. B. Cross, 
 V. Bakken, C. Adamo, J. Jaramillo, R. Gomperts, R. E. Stratmann, 
 O. Yazyev, A. J. Austin, R. Cammi, C. Pomelli, J. W. Ochterski, 
 R. L. Martin, K. Morokuma, V. G. Zakrzewski, G. A. Voth, 
 P. Salvador, J. J. Dannenberg, S. Dapprich, A. D. Daniels, 
 O. Farkas, J. B. Foresman, J. V. Ortiz, J. Cioslowski, 
 and D. J. Fox, Gaussian, Inc., Wallingford CT, 2013.
 
 ******************************************
 Gaussian 09:  ES64L-G09RevE.01 30-Nov-2015
                12-Oct-2021 
 ******************************************
 %nproc=12
 Will use up to   12 processors via shared memory.
 %mem=8000MB
 %chk=/home/netid.washington.edu/cgavinh/mccoy_hocl/rOH_s_oop_0/ihocl/ihocl_rOH_1
 10_sp.chk
 --------------------------------------------------------
 #p pop=NBO SP NoSymm mp2/gen Pseudo=read density=current
 --------------------------------------------------------
 1/30=1,38=1/1;
 2/12=2,15=1,17=6,18=5,40=1/2;
 3/5=7,11=9,16=1,17=8,25=1,30=1,71=1/1,2,3;
 4//1;
 5/5=2,38=5/2;
 8/6=4,10=1/1;
 9/15=1,16=-3/6;
 10/5=1,13=10,31=1/2;
 6/7=2,8=2,9=2,10=2,22=-1,40=1/1,7;
 99/5=1,9=1/99;
 Leave Link    1 at Tue Oct 12 15:35:44 2021, MaxMem=  1048576000 cpu:         0.2
 (Enter /usr/local/gaussian/g09/l101.exe)
 -----
 title
 -----
 Symbolic Z-matrix:
 Charge = -1 Multiplicity = 1
 O
 X                    1     10. 
 Cl                   1    r1       2     90. 
 I                    1    r2       2     90.      3    a1       0
 H                    1    r3       2    oop      3    a1       0
       Variables:
  r1                    1.68652                  
  r2                    3.3123                   
  r3                    1.1                      
  a1                  103.2454                   
  OOP                  90.                       
 
 NAtoms=      4 NQM=        4 NQMF=       0 NMMI=      0 NMMIF=      0
                NMic=       0 NMicF=      0.
                    Isotopes and Nuclear Properties:
 (Nuclear quadrupole moments (NQMom) in fm**2, nuclear magnetic moments (NMagM)
  in nuclear magnetons)

  Atom         1           2           3           4
 IAtWgt=          16          35         127           1
 AtmWgt=  15.9949146  34.9688527 126.9004000   1.0078250
 NucSpn=           0           3           5           1
 AtZEff=   0.0000000   0.0000000   0.0000000   0.0000000
 NQMom=    0.0000000  -8.1650000 -71.0000000   0.0000000
 NMagM=    0.0000000   0.8218740   2.8132800   2.7928460
 AtZNuc=   8.0000000  17.0000000  53.0000000   1.0000000
 Leave Link  101 at Tue Oct 12 15:35:44 2021, MaxMem=  1048576000 cpu:         0.4
 (Enter /usr/local/gaussian/g09/l202.exe)
                          Input orientation:                          
 ---------------------------------------------------------------------
 Center     Atomic      Atomic             Coordinates (Angstroms)
 Number     Number       Type             X           Y           Z
 ---------------------------------------------------------------------
      1          8           0        0.000000    0.000000    0.000000
      2         17           0        1.686522    0.000000    0.000000
      3         53           0       -0.758922   -3.224184    0.000000
      4          1           0       -0.252035   -1.070737    0.000000
 ---------------------------------------------------------------------
                    Distance matrix (angstroms):
                    1          2          3          4
     1  O    0.000000
     2  Cl   1.686522   0.000000
     3  I    3.312299   4.046673   0.000000
     4  H    1.100000   2.214606   2.212299   0.000000
 Symmetry turned off by external request.
 Stoichiometry    ClHIO(1-)
 Framework group  CS[SG(ClHIO)]
 Deg. of freedom     5
 Full point group                 CS      NOp   2
 Rotational constants (GHZ):     21.8112686      0.9699229      0.9286279
 Leave Link  202 at Tue Oct 12 15:35:44 2021, MaxMem=  1048576000 cpu:         0.0
 (Enter /usr/local/gaussian/g09/l301.exe)
 General basis read from cards:  (5D, 7F)
 Centers:       4      1      2
 aug-cc-pVTZ
 ****
 Centers:       3
 S 11 1.00
     Exponent=  5.5465000000D+03 Coefficients=  1.5600000000D-04
     Exponent=  8.3821400000D+02 Coefficients=  9.8600000000D-04
     Exponent=  1.8218700000D+02 Coefficients=  2.7920000000D-03
     Exponent=  3.1212300000D+01 Coefficients= -4.3251000000D-02
     Exponent=  1.9531400000D+01 Coefficients=  2.3413400000D-01
     Exponent=  8.2409900000D+00 Coefficients= -7.5094300000D-01
     Exponent=  2.1945500000D+00 Coefficients=  8.8296800000D-01
     Exponent=  1.1091100000D+00 Coefficients=  4.6206100000D-01
     Exponent=  3.7464100000D-01 Coefficients=  2.2286000000D-02
     Exponent=  1.7708000000D-01 Coefficients= -4.3530000000D-03
     Exponent=  8.1061000000D-02 Coefficients=  1.1020000000D-03
 S 11 1.00
     Exponent=  5.5465000000D+03 Coefficients= -7.3000000000D-05
     Exponent=  8.3821400000D+02 Coefficients= -5.0800000000D-04
     Exponent=  1.8218700000D+02 Coefficients= -1.1580000000D-03
     Exponent=  3.1212300000D+01 Coefficients=  1.2193000000D-02
     Exponent=  1.9531400000D+01 Coefficients= -8.7854000000D-02
     Exponent=  8.2409900000D+00 Coefficients=  3.3820000000D-01
     Exponent=  2.1945500000D+00 Coefficients= -5.7655000000D-01
     Exponent=  1.1091100000D+00 Coefficients= -4.0929800000D-01
     Exponent=  3.7464100000D-01 Coefficients=  5.6745900000D-01
     Exponent=  1.7708000000D-01 Coefficients=  6.1248900000D-01
     Exponent=  8.1061000000D-02 Coefficients=  1.4323100000D-01
 S 1 1.00
     Exponent=  3.7464100000D-01 Coefficients=  1.0000000000D+00
 S 1 1.00
     Exponent=  1.7708000000D-01 Coefficients=  1.0000000000D+00
 S 1 1.00
     Exponent=  1.0010000000D-01 Coefficients=  1.0000000000D+00
 S 1 1.00
     Exponent=  4.1200000000D-02 Coefficients=  1.0000000000D+00
 P 9 1.00
     Exponent=  1.8898800000D+02 Coefficients=  5.8500000000D-04
     Exponent=  2.1286800000D+01 Coefficients=  3.6923000000D-02
     Exponent=  1.0039600000D+01 Coefficients= -2.3532400000D-01
     Exponent=  3.4518000000D+00 Coefficients=  3.4148300000D-01
     Exponent=  1.9745600000D+00 Coefficients=  5.3478800000D-01
     Exponent=  1.0242000000D+00 Coefficients=  2.6514100000D-01
     Exponent=  4.4943700000D-01 Coefficients=  2.5787000000D-02
     Exponent=  1.8664800000D-01 Coefficients=  5.2200000000D-04
     Exponent=  7.3481000000D-02 Coefficients=  6.0600000000D-04
 P 9 1.00
     Exponent=  1.8898800000D+02 Coefficients= -2.5600000000D-04
     Exponent=  2.1286800000D+01 Coefficients= -1.1682000000D-02
     Exponent=  1.0039600000D+01 Coefficients=  8.3192000000D-02
     Exponent=  3.4518000000D+00 Coefficients= -1.5697000000D-01
     Exponent=  1.9745600000D+00 Coefficients= -2.2451800000D-01
     Exponent=  1.0242000000D+00 Coefficients= -1.1445100000D-01
     Exponent=  4.4943700000D-01 Coefficients=  3.7535600000D-01
     Exponent=  1.8664800000D-01 Coefficients=  5.7513600000D-01
     Exponent=  7.3481000000D-02 Coefficients=  2.4591700000D-01
 P 1 1.00
     Exponent=  5.9810000000D-01 Coefficients=  1.0000000000D+00
 P 1 1.00
     Exponent=  9.6180000000D-02 Coefficients=  1.0000000000D+00
 P 1 1.00
     Exponent=  3.5900000000D-02 Coefficients=  1.0000000000D+00
 D 9 1.00
     Exponent=  1.3266200000D+02 Coefficients=  5.7200000000D-04
     Exponent=  3.7605400000D+01 Coefficients=  4.4020000000D-03
     Exponent=  1.0389100000D+01 Coefficients= -4.0922000000D-02
     Exponent=  6.4901700000D+00 Coefficients=  9.9661000000D-02
     Exponent=  3.4545100000D+00 Coefficients=  3.2266300000D-01
     Exponent=  1.8441300000D+00 Coefficients=  4.0034300000D-01
     Exponent=  9.6247800000D-01 Coefficients=  2.6830600000D-01
     Exponent=  4.7285300000D-01 Coefficients=  8.4847000000D-02
     Exponent=  1.9320000000D-01 Coefficients=  7.6320000000D-03
 D 1 1.00
     Exponent=  4.7285300000D-01 Coefficients=  1.0000000000D+00
 D 1 1.00
     Exponent=  1.9320000000D-01 Coefficients=  1.0000000000D+00
 D 1 1.00
     Exponent=  7.8200000000D-02 Coefficients=  1.0000000000D+00
 F 1 1.00
     Exponent=  4.0640000000D-01 Coefficients=  1.0000000000D+00
 F 1 1.00
     Exponent=  1.8480000000D-01 Coefficients=  1.0000000000D+00
 ****
 ======================================================================================================
                                       Pseudopotential Parameters
 ======================================================================================================
  Center     Atomic      Valence      Angular      Power
  Number     Number     Electrons     Momentum     of R      Exponent        Coefficient   SO-Coeffient
 ======================================================================================================
    1          8
                                   No pseudopotential on this center.
    2         17
                                   No pseudopotential on this center.
    3         53           25
                                      G and up 
                                                     2        1.0000000        0.00000000    0.00000000
                                      S - G
                                                     2       40.0333760       49.98964900    0.00000000
                                                     2       17.3005760      281.00655600    0.00000000
                                                     2        8.8517200       61.41673900    0.00000000
                                      P - G
                                                     2       15.7201410       67.41623900    0.00000000
                                                     2       15.2082220      134.80769600    0.00000000
                                                     2        8.2941860       14.56654800    0.00000000
                                                     2        7.7539490       28.96842200    0.00000000
                                      D - G
                                                     2       13.8177510       35.53875600    0.00000000
                                                     2       13.5878050       53.33975900    0.00000000
                                                     2        6.9476300        9.71646600    0.00000000
                                                     2        6.9600990       14.97750000    0.00000000
                                      F - G
                                                     2       18.5229500      -20.17661800    0.00000000
                                                     2       18.2510350      -26.08807700    0.00000000
                                                     2        7.5579010       -0.22043400    0.00000000
                                                     2        7.5974040       -0.22164600    0.00000000
    4          1
                                   No pseudopotential on this center.
 ======================================================================================================
 Ernie: Thresh=  0.10000D-02 Tol=  0.10000D-05 Strict=F.
 Ernie:  23 primitive shells out of 166 were deleted.
   174 basis functions,   383 primitive gaussians,   204 cartesian basis functions
    26 alpha electrons       26 beta electrons
       nuclear repulsion energy       144.0919950582 Hartrees.
 IExCor=    0 DFT=F Ex=HF Corr=None ExCW=0 ScaHFX=  1.000000
 ScaDFX=  1.000000  1.000000  1.000000  1.000000 ScalE2=  1.000000  1.000000
 IRadAn=      0 IRanWt=     -1 IRanGd=            0 ICorTp=0 IEmpDi=  4
 NAtoms=    4 NActive=    4 NUniq=    4 SFac= 1.00D+00 NAtFMM=   60 NAOKFM=F Big=F
 Integral buffers will be    131072 words long.
 Raffenetti 1 integral format.
 Two-electron integral symmetry is turned off.
 Leave Link  301 at Tue Oct 12 15:35:44 2021, MaxMem=  1048576000 cpu:         0.6
 (Enter /usr/local/gaussian/g09/l302.exe)
 NPDir=0 NMtPBC=     1 NCelOv=     1 NCel=       1 NClECP=     1 NCelD=      1
         NCelK=      1 NCelE2=     1 NClLst=     1 CellRange=     0.0.
 One-electron integrals computed using PRISM.
   1 Symmetry operations used in ECPInt.
 ECPInt:  NShTT=    1596 NPrTT=   10643 LenC2=    1597 LenP2D=    8420.
 LDataN:  DoStor=T MaxTD1= 7 Len=  274
 NBasis=   174 RedAO= T EigKep=  2.49D-04  NBF=   174
 NBsUse=   174 1.00D-06 EigRej= -1.00D+00 NBFU=   174
 Leave Link  302 at Tue Oct 12 15:35:44 2021, MaxMem=  1048576000 cpu:         2.8
 (Enter /usr/local/gaussian/g09/l303.exe)
 DipDrv:  MaxL=1.
 Leave Link  303 at Tue Oct 12 15:35:44 2021, MaxMem=  1048576000 cpu:         0.2
 (Enter /usr/local/gaussian/g09/l401.exe)
 ExpMin= 2.53D-02 ExpMax= 4.56D+05 ExpMxC= 1.44D+03 IAcc=3 IRadAn=         5 AccDes= 0.00D+00
 Harris functional with IExCor=  205 and IRadAn=       5 diagonalized for initial guess.
 HarFok:  IExCor=  205 AccDes= 0.00D+00 IRadAn=         5 IDoV= 1 UseB2=F ITyADJ=14
 ICtDFT=  3500011 ScaDFX=  1.000000  1.000000  1.000000  1.000000
 Defaulting to unpruned grid for atomic number  53.
 Defaulting to unpruned grid for atomic number  53.
 Defaulting to unpruned grid for atomic number  53.
 Defaulting to unpruned grid for atomic number  53.
 Defaulting to unpruned grid for atomic number  53.
 Defaulting to unpruned grid for atomic number  53.
 Defaulting to unpruned grid for atomic number  53.
 Defaulting to unpruned grid for atomic number  53.
 Defaulting to unpruned grid for atomic number  53.
 Defaulting to unpruned grid for atomic number  53.
 Defaulting to unpruned grid for atomic number  53.
 Defaulting to unpruned grid for atomic number  53.
 FoFCou: FMM=F IPFlag=           0 FMFlag=      100000 FMFlg1=           0
         NFxFlg=           0 DoJE=T BraDBF=F KetDBF=T FulRan=T
         wScrn=  0.000000 ICntrl=     500 IOpCl=  0 I1Cent=   200000004 NGrid=           0
         NMat0=    1 NMatS0=      1 NMatT0=    0 NMatD0=    1 NMtDS0=    0 NMtDT0=    0
 Symmetry not used in FoFCou.
 Harris En= -831.051596777055    
 JPrj=0 DoOrth=F DoCkMO=F.
 Leave Link  401 at Tue Oct 12 15:35:45 2021, MaxMem=  1048576000 cpu:         3.2
 (Enter /usr/local/gaussian/g09/l502.exe)
 Closed shell SCF:
 Using DIIS extrapolation, IDIIS=  1040.
 Two-electron integral symmetry not used.
 Keep R1 ints in memory in canonical form, NReq=124441421.
 IVT=      147078 IEndB=      147078 NGot=  1048576000 MDV=   932520998
 LenX=   932520998 LenY=   932478941
 Requested convergence on RMS density matrix=1.00D-08 within 128 cycles.
 Requested convergence on MAX density matrix=1.00D-06.
 Requested convergence on             energy=1.00D-06.
 No special actions if energy rises.
 FoFCou: FMM=F IPFlag=           0 FMFlag=           0 FMFlg1=           0
         NFxFlg=           0 DoJE=F BraDBF=F KetDBF=F FulRan=T
         wScrn=  0.000000 ICntrl=     600 IOpCl=  0 I1Cent=           0 NGrid=           0
         NMat0=    1 NMatS0=  15225 NMatT0=    0 NMatD0=    1 NMtDS0=    0 NMtDT0=    0
 Symmetry not used in FoFCou.

 Cycle   1  Pass 1  IDiag  1:
 E= -829.525763171323    
 DIIS: error= 2.42D-02 at cycle   1 NSaved=   1.
 NSaved= 1 IEnMin= 1 EnMin= -829.525763171323     IErMin= 1 ErrMin= 2.42D-02
 ErrMax= 2.42D-02  0.00D+00 EMaxC= 1.00D-01 BMatC= 4.49D-01 BMatP= 4.49D-01
 IDIUse=3 WtCom= 7.58D-01 WtEn= 2.42D-01
 Coeff-Com:  0.100D+01
 Coeff-En:   0.100D+01
 Coeff:      0.100D+01
 Gap=     0.433 Goal=   None    Shift=    0.000
 GapD=    0.433 DampG=2.000 DampE=0.500 DampFc=1.0000 IDamp=-1.
 RMSDP=3.78D-03 MaxDP=1.26D-01              OVMax= 1.20D-01

 Cycle   2  Pass 1  IDiag  1:
 E= -829.639066883392     Delta-E=       -0.113303712069 Rises=F Damp=F
 DIIS: error= 2.13D-02 at cycle   2 NSaved=   2.
 NSaved= 2 IEnMin= 2 EnMin= -829.639066883392     IErMin= 2 ErrMin= 2.13D-02
 ErrMax= 2.13D-02  0.00D+00 EMaxC= 1.00D-01 BMatC= 5.48D-02 BMatP= 4.49D-01
 IDIUse=3 WtCom= 7.87D-01 WtEn= 2.13D-01
 Coeff-Com:  0.196D+00 0.804D+00
 Coeff-En:   0.000D+00 0.100D+01
 Coeff:      0.154D+00 0.846D+00
 Gap=     0.323 Goal=   None    Shift=    0.000
 RMSDP=1.65D-03 MaxDP=8.04D-02 DE=-1.13D-01 OVMax= 7.90D-02

 Cycle   3  Pass 1  IDiag  1:
 E= -829.665173840983     Delta-E=       -0.026106957591 Rises=F Damp=F
 DIIS: error= 1.01D-02 at cycle   3 NSaved=   3.
 NSaved= 3 IEnMin= 3 EnMin= -829.665173840983     IErMin= 3 ErrMin= 1.01D-02
 ErrMax= 1.01D-02  0.00D+00 EMaxC= 1.00D-01 BMatC= 1.52D-02 BMatP= 5.48D-02
 IDIUse=3 WtCom= 8.99D-01 WtEn= 1.01D-01
 Coeff-Com: -0.119D-03 0.338D+00 0.662D+00
 Coeff-En:   0.000D+00 0.141D+00 0.859D+00
 Coeff:     -0.107D-03 0.318D+00 0.682D+00
 Gap=     0.311 Goal=   None    Shift=    0.000
 RMSDP=4.39D-04 MaxDP=2.20D-02 DE=-2.61D-02 OVMax= 3.67D-02

 Cycle   4  Pass 1  IDiag  1:
 E= -829.675686942772     Delta-E=       -0.010513101789 Rises=F Damp=F
 DIIS: error= 1.91D-03 at cycle   4 NSaved=   4.
 NSaved= 4 IEnMin= 4 EnMin= -829.675686942772     IErMin= 4 ErrMin= 1.91D-03
 ErrMax= 1.91D-03  0.00D+00 EMaxC= 1.00D-01 BMatC= 2.65D-04 BMatP= 1.52D-02
 IDIUse=3 WtCom= 9.81D-01 WtEn= 1.91D-02
 Coeff-Com: -0.939D-02 0.402D-02 0.117D+00 0.888D+00
 Coeff-En:   0.000D+00 0.000D+00 0.000D+00 0.100D+01
 Coeff:     -0.921D-02 0.394D-02 0.115D+00 0.890D+00
 Gap=     0.315 Goal=   None    Shift=    0.000
 RMSDP=9.45D-05 MaxDP=5.82D-03 DE=-1.05D-02 OVMax= 3.75D-03

 Cycle   5  Pass 1  IDiag  1:
 E= -829.675933157745     Delta-E=       -0.000246214973 Rises=F Damp=F
 DIIS: error= 2.59D-04 at cycle   5 NSaved=   5.
 NSaved= 5 IEnMin= 5 EnMin= -829.675933157745     IErMin= 5 ErrMin= 2.59D-04
 ErrMax= 2.59D-04  0.00D+00 EMaxC= 1.00D-01 BMatC= 1.51D-05 BMatP= 2.65D-04
 IDIUse=3 WtCom= 9.97D-01 WtEn= 2.59D-03
 Coeff-Com:  0.174D-02-0.298D-01-0.597D-01-0.422D-01 0.113D+01
 Coeff-En:   0.000D+00 0.000D+00 0.000D+00 0.000D+00 0.100D+01
 Coeff:      0.174D-02-0.297D-01-0.596D-01-0.420D-01 0.113D+01
 Gap=     0.313 Goal=   None    Shift=    0.000
 RMSDP=4.78D-05 MaxDP=2.27D-03 DE=-2.46D-04 OVMax= 2.77D-03

 Cycle   6  Pass 1  IDiag  1:
 E= -829.675968027623     Delta-E=       -0.000034869878 Rises=F Damp=F
 DIIS: error= 1.29D-04 at cycle   6 NSaved=   6.
 NSaved= 6 IEnMin= 6 EnMin= -829.675968027623     IErMin= 6 ErrMin= 1.29D-04
 ErrMax= 1.29D-04  0.00D+00 EMaxC= 1.00D-01 BMatC= 1.77D-06 BMatP= 1.51D-05
 IDIUse=3 WtCom= 9.99D-01 WtEn= 1.29D-03
 Coeff-Com:  0.142D-03 0.882D-02 0.100D-01-0.896D-01-0.293D+00 0.136D+01
 Coeff-En:   0.000D+00 0.000D+00 0.000D+00 0.000D+00 0.000D+00 0.100D+01
 Coeff:      0.142D-03 0.881D-02 0.100D-01-0.895D-01-0.293D+00 0.136D+01
 Gap=     0.314 Goal=   None    Shift=    0.000
 RMSDP=1.66D-05 MaxDP=6.19D-04 DE=-3.49D-05 OVMax= 1.40D-03

 Cycle   7  Pass 1  IDiag  1:
 E= -829.675973985135     Delta-E=       -0.000005957512 Rises=F Damp=F
 DIIS: error= 3.37D-05 at cycle   7 NSaved=   7.
 NSaved= 7 IEnMin= 7 EnMin= -829.675973985135     IErMin= 7 ErrMin= 3.37D-05
 ErrMax= 3.37D-05  0.00D+00 EMaxC= 1.00D-01 BMatC= 1.43D-07 BMatP= 1.77D-06
 IDIUse=1 WtCom= 1.00D+00 WtEn= 0.00D+00
 Coeff-Com: -0.164D-03 0.824D-03 0.399D-02 0.199D-01-0.549D-01-0.227D+00
 Coeff-Com:  0.126D+01
 Coeff:     -0.164D-03 0.824D-03 0.399D-02 0.199D-01-0.549D-01-0.227D+00
 Coeff:      0.126D+01
 Gap=     0.314 Goal=   None    Shift=    0.000
 RMSDP=5.00D-06 MaxDP=1.66D-04 DE=-5.96D-06 OVMax= 4.79D-04

 Cycle   8  Pass 1  IDiag  1:
 E= -829.675974568675     Delta-E=       -0.000000583540 Rises=F Damp=F
 DIIS: error= 1.00D-05 at cycle   8 NSaved=   8.
 NSaved= 8 IEnMin= 8 EnMin= -829.675974568675     IErMin= 8 ErrMin= 1.00D-05
 ErrMax= 1.00D-05  0.00D+00 EMaxC= 1.00D-01 BMatC= 1.98D-08 BMatP= 1.43D-07
 IDIUse=1 WtCom= 1.00D+00 WtEn= 0.00D+00
 Coeff-Com: -0.129D-04-0.128D-02-0.110D-02 0.129D-01 0.359D-01-0.194D+00
 Coeff-Com:  0.646D-01 0.108D+01
 Coeff:     -0.129D-04-0.128D-02-0.110D-02 0.129D-01 0.359D-01-0.194D+00
 Coeff:      0.646D-01 0.108D+01
 Gap=     0.314 Goal=   None    Shift=    0.000
 RMSDP=1.79D-06 MaxDP=5.35D-05 DE=-5.84D-07 OVMax= 1.60D-04

 Cycle   9  Pass 1  IDiag  1:
 E= -829.675974635213     Delta-E=       -0.000000066537 Rises=F Damp=F
 DIIS: error= 3.86D-06 at cycle   9 NSaved=   9.
 NSaved= 9 IEnMin= 9 EnMin= -829.675974635213     IErMin= 9 ErrMin= 3.86D-06
 ErrMax= 3.86D-06  0.00D+00 EMaxC= 1.00D-01 BMatC= 2.07D-09 BMatP= 1.98D-08
 IDIUse=1 WtCom= 1.00D+00 WtEn= 0.00D+00
 Coeff-Com:  0.168D-04 0.297D-03-0.340D-04-0.676D-02-0.487D-02 0.853D-01
 Coeff-Com: -0.139D+00-0.399D+00 0.146D+01
 Coeff:      0.168D-04 0.297D-03-0.340D-04-0.676D-02-0.487D-02 0.853D-01
 Coeff:     -0.139D+00-0.399D+00 0.146D+01
 Gap=     0.314 Goal=   None    Shift=    0.000
 RMSDP=8.49D-07 MaxDP=3.08D-05 DE=-6.65D-08 OVMax= 7.97D-05

 Cycle  10  Pass 1  IDiag  1:
 E= -829.675974645093     Delta-E=       -0.000000009880 Rises=F Damp=F
 DIIS: error= 1.26D-06 at cycle  10 NSaved=  10.
 NSaved=10 IEnMin=10 EnMin= -829.675974645093     IErMin=10 ErrMin= 1.26D-06
 ErrMax= 1.26D-06  0.00D+00 EMaxC= 1.00D-01 BMatC= 2.26D-10 BMatP= 2.07D-09
 IDIUse=1 WtCom= 1.00D+00 WtEn= 0.00D+00
 Coeff-Com: -0.331D-05 0.489D-04 0.104D-03 0.738D-03-0.241D-02-0.319D-02
 Coeff-Com:  0.308D-01-0.257D-02-0.384D+00 0.136D+01
 Coeff:     -0.331D-05 0.489D-04 0.104D-03 0.738D-03-0.241D-02-0.319D-02
 Coeff:      0.308D-01-0.257D-02-0.384D+00 0.136D+01
 Gap=     0.314 Goal=   None    Shift=    0.000
 RMSDP=2.61D-07 MaxDP=6.39D-06 DE=-9.88D-09 OVMax= 2.88D-05

 Cycle  11  Pass 1  IDiag  1:
 E= -829.675974646253     Delta-E=       -0.000000001160 Rises=F Damp=F
 DIIS: error= 4.76D-07 at cycle  11 NSaved=  11.
 NSaved=11 IEnMin=11 EnMin= -829.675974646253     IErMin=11 ErrMin= 4.76D-07
 ErrMax= 4.76D-07  0.00D+00 EMaxC= 1.00D-01 BMatC= 3.14D-11 BMatP= 2.26D-10
 IDIUse=1 WtCom= 1.00D+00 WtEn= 0.00D+00
 Coeff-Com: -0.273D-05-0.405D-04 0.890D-05 0.976D-03 0.537D-03-0.121D-01
 Coeff-Com:  0.199D-01 0.557D-01-0.204D+00-0.767D-01 0.122D+01
 Coeff:     -0.273D-05-0.405D-04 0.890D-05 0.976D-03 0.537D-03-0.121D-01
 Coeff:      0.199D-01 0.557D-01-0.204D+00-0.767D-01 0.122D+01
 Gap=     0.314 Goal=   None    Shift=    0.000
 RMSDP=1.07D-07 MaxDP=2.66D-06 DE=-1.16D-09 OVMax= 1.10D-05

 Cycle  12  Pass 1  IDiag  1:
 E= -829.675974646404     Delta-E=       -0.000000000151 Rises=F Damp=F
 DIIS: error= 1.53D-07 at cycle  12 NSaved=  12.
 NSaved=12 IEnMin=12 EnMin= -829.675974646404     IErMin=12 ErrMin= 1.53D-07
 ErrMax= 1.53D-07  0.00D+00 EMaxC= 1.00D-01 BMatC= 2.40D-12 BMatP= 3.14D-11
 IDIUse=1 WtCom= 1.00D+00 WtEn= 0.00D+00
 Coeff-Com:  0.338D-06-0.605D-05-0.122D-04-0.763D-04 0.307D-03 0.286D-03
 Coeff-Com: -0.330D-02-0.446D-03 0.429D-01-0.126D+00-0.725D-01 0.116D+01
 Coeff:      0.338D-06-0.605D-05-0.122D-04-0.763D-04 0.307D-03 0.286D-03
 Coeff:     -0.330D-02-0.446D-03 0.429D-01-0.126D+00-0.725D-01 0.116D+01
 Gap=     0.314 Goal=   None    Shift=    0.000
 RMSDP=3.31D-08 MaxDP=1.56D-06 DE=-1.51D-10 OVMax= 2.56D-06

 Cycle  13  Pass 1  IDiag  1:
 E= -829.675974646418     Delta-E=       -0.000000000014 Rises=F Damp=F
 DIIS: error= 5.07D-08 at cycle  13 NSaved=  13.
 NSaved=13 IEnMin=13 EnMin= -829.675974646418     IErMin=13 ErrMin= 5.07D-08
 ErrMax= 5.07D-08  0.00D+00 EMaxC= 1.00D-01 BMatC= 2.79D-13 BMatP= 2.40D-12
 IDIUse=1 WtCom= 1.00D+00 WtEn= 0.00D+00
 Coeff-Com:  0.236D-06 0.421D-05-0.439D-06-0.824D-04-0.726D-04 0.108D-02
 Coeff-Com: -0.153D-02-0.505D-02 0.139D-01 0.270D-01-0.128D+00-0.120D+00
 Coeff-Com:  0.121D+01
 Coeff:      0.236D-06 0.421D-05-0.439D-06-0.824D-04-0.726D-04 0.108D-02
 Coeff:     -0.153D-02-0.505D-02 0.139D-01 0.270D-01-0.128D+00-0.120D+00
 Coeff:      0.121D+01
 Gap=     0.314 Goal=   None    Shift=    0.000
 RMSDP=1.17D-08 MaxDP=6.93D-07 DE=-1.41D-11 OVMax= 7.83D-07

 Cycle  14  Pass 1  IDiag  1:
 E= -829.675974646424     Delta-E=       -0.000000000006 Rises=F Damp=F
 DIIS: error= 1.16D-08 at cycle  14 NSaved=  14.
 NSaved=14 IEnMin=14 EnMin= -829.675974646424     IErMin=14 ErrMin= 1.16D-08
 ErrMax= 1.16D-08  0.00D+00 EMaxC= 1.00D-01 BMatC= 2.27D-14 BMatP= 2.79D-13
 IDIUse=1 WtCom= 1.00D+00 WtEn= 0.00D+00
 Coeff-Com: -0.442D-07 0.258D-06 0.128D-05 0.128D-04-0.244D-04-0.982D-04
 Coeff-Com:  0.420D-03 0.321D-03-0.496D-02 0.103D-01 0.137D-01-0.945D-01
 Coeff-Com: -0.121D+00 0.120D+01
 Coeff:     -0.442D-07 0.258D-06 0.128D-05 0.128D-04-0.244D-04-0.982D-04
 Coeff:      0.420D-03 0.321D-03-0.496D-02 0.103D-01 0.137D-01-0.945D-01
 Coeff:     -0.121D+00 0.120D+01
 Gap=     0.314 Goal=   None    Shift=    0.000
 RMSDP=3.09D-09 MaxDP=1.50D-07 DE=-5.91D-12 OVMax= 2.40D-07

 SCF Done:  E(RHF) =  -829.675974646     A.U. after   14 cycles
            NFock= 14  Conv=0.31D-08     -V/T= 2.2852
 KE= 6.455435745066D+02 PE=-2.196584968908D+03 EE= 5.772734246970D+02
 Leave Link  502 at Tue Oct 12 15:35:48 2021, MaxMem=  1048576000 cpu:        17.6
 (Enter /usr/local/gaussian/g09/l801.exe)
 ExpMin= 2.53D-02 ExpMax= 4.56D+05 ExpMxC= 1.44D+03 IAcc=3 IRadAn=         5 AccDes= 0.00D+00
 HarFok:  IExCor=  205 AccDes= 0.00D+00 IRadAn=         5 IDoV=-2 UseB2=F ITyADJ=14
 ICtDFT= 12500011 ScaDFX=  1.000000  1.000000  1.000000  1.000000
 Defaulting to unpruned grid for atomic number  53.
 Defaulting to unpruned grid for atomic number  53.
 Defaulting to unpruned grid for atomic number  53.
 Defaulting to unpruned grid for atomic number  53.
 Defaulting to unpruned grid for atomic number  53.
 Defaulting to unpruned grid for atomic number  53.
 Defaulting to unpruned grid for atomic number  53.
 Defaulting to unpruned grid for atomic number  53.
 Defaulting to unpruned grid for atomic number  53.
 Defaulting to unpruned grid for atomic number  53.
 Defaulting to unpruned grid for atomic number  53.
 Defaulting to unpruned grid for atomic number  53.
 Largest valence mixing into a core orbital is  4.47D-04
 Largest core mixing into a valence orbital is  1.58D-04
 Range of M.O.s used for correlation:    11   174
 NBasis=   174 NAE=    26 NBE=    26 NFC=    10 NFV=     0
 NROrb=    164 NOA=    16 NOB=    16 NVA=   148 NVB=   148

 **** Warning!!: The largest alpha MO coefficient is  0.18311962D+02

 Leave Link  801 at Tue Oct 12 15:35:48 2021, MaxMem=  1048576000 cpu:         0.8
 (Enter /usr/local/gaussian/g09/l906.exe)
 Frozen-core derivative calculation, NFC=  10 NFV=   0.
 FulOut=F Deriv=T AODrv=F NAtomX=     4
   MMem=         239  MDisk=          16 MDiskD=          16
  W3Min=      922896 MinDsk=     1491158 NBas6D=         204
 NBas2D=       21411    NTT=       20910    LW2=    26219120
    MDV=  1048172189 MDiskM=       25641 NBas2p=       21407
 Fully in-core method, ICMem=   539113593.
 IMap=   1   2   3   4   5   6   7   8   9  10  11  12  13  14  15  16  17  18  19  20
 IMap=  21  22  23  24  25  26
 JobTyp=1 Pass  1 fully in-core, NPsUse= 12.
 Compute canonical integrals.
 FoFCou: FMM=F IPFlag=           0 FMFlag=           0 FMFlg1=           0
         NFxFlg=           0 DoJE=F BraDBF=F KetDBF=F FulRan=T
         wScrn=  0.000000 ICntrl=     600 IOpCl=  1 I1Cent=           0 NGrid=           0
         NMat0=    1 NMatS0=  21411 NMatT0=    0 NMatD0=    1 NMtDS0=    0 NMtDT0=    0
 Symmetry not used in FoFCou.
 Spin components of T(2) and E(2):
     alpha-alpha T2 =       0.3215878402D-01 E2=     -0.9279500599D-01
     alpha-beta  T2 =       0.1689250776D+00 E2=     -0.5030523105D+00
     beta-beta   T2 =       0.3215878402D-01 E2=     -0.9279500599D-01
 The integrals were generated   1 times.
 ANorm=    0.1110514586D+01
 E2 =    -0.6886423225D+00 EUMP2 =    -0.83036461696896D+03
 Leave Link  906 at Tue Oct 12 15:35:56 2021, MaxMem=  1048576000 cpu:       103.2
 (Enter /usr/local/gaussian/g09/l1002.exe)
 Minotr:  Closed shell wavefunction.
          Computing MP2/KS-MP2 derivatives.
          Using Z-Vector for PSCF gradient.
          Skipping F1 and S1 gradient terms here.
          Frozen-core window.
          Direct CPHF calculation.
          Differentiating once with respect to electric field.
                with respect to dipole field.
          Electric field/nuclear overlap derivatives assumed to be zero.
          Requested convergence is 1.0D-10 RMS, and 1.0D-09 maximum.
          NewPWx=F KeepS1=T KeepF1=T KeepIn=T MapXYZ=F SortEE=F KeepMc=T.
          MDV=    1048575800 using IRadAn=       0.
 Keep R1 ints in memory in canonical form, NReq=124351889.
 FoFCou: FMM=F IPFlag=           0 FMFlag=           0 FMFlg1=           0
         NFxFlg=           0 DoJE=F BraDBF=F KetDBF=F FulRan=T
         wScrn=  0.000000 ICntrl=     600 IOpCl=  0 I1Cent=           0 NGrid=           0
         NMat0=    1 NMatS0=  15225 NMatT0=    0 NMatD0=    1 NMtDS0=    0 NMtDT0=    0
 Symmetry not used in FoFCou.
          Solving linear equations separately, MaxMat=       0.
          There are     1 degrees of freedom in the 1st order CPHF.  IDoFFX=0 NUNeed=     1.
 LinEq1:  Iter=  0 NonCon=     1 RMS=3.05D-03 Max=4.96D-02 NDo=     1
 AX will form     1 AO Fock derivatives at one time.
 LinEq1:  Iter=  1 NonCon=     1 RMS=4.85D-04 Max=5.48D-03 NDo=     1
 LinEq1:  Iter=  2 NonCon=     1 RMS=2.17D-04 Max=3.91D-03 NDo=     1
 LinEq1:  Iter=  3 NonCon=     1 RMS=7.04D-05 Max=1.21D-03 NDo=     1
 LinEq1:  Iter=  4 NonCon=     1 RMS=3.40D-05 Max=8.89D-04 NDo=     1
 LinEq1:  Iter=  5 NonCon=     1 RMS=8.90D-06 Max=1.50D-04 NDo=     1
 LinEq1:  Iter=  6 NonCon=     1 RMS=2.16D-06 Max=2.47D-05 NDo=     1
 LinEq1:  Iter=  7 NonCon=     1 RMS=5.58D-07 Max=1.05D-05 NDo=     1
 LinEq1:  Iter=  8 NonCon=     1 RMS=1.45D-07 Max=2.83D-06 NDo=     1
 LinEq1:  Iter=  9 NonCon=     1 RMS=4.46D-08 Max=7.00D-07 NDo=     1
 LinEq1:  Iter= 10 NonCon=     1 RMS=1.27D-08 Max=1.87D-07 NDo=     1
 LinEq1:  Iter= 11 NonCon=     1 RMS=3.01D-09 Max=6.45D-08 NDo=     1
 LinEq1:  Iter= 12 NonCon=     1 RMS=9.12D-10 Max=1.18D-08 NDo=     1
 LinEq1:  Iter= 13 NonCon=     1 RMS=2.24D-10 Max=4.53D-09 NDo=     1
 LinEq1:  Iter= 14 NonCon=     0 RMS=3.77D-11 Max=5.07D-10 NDo=     1
 Linear equations converged to 1.000D-10 1.000D-09 after    14 iterations.
 End of Minotr F.D. properties file   721 does not exist.
 End of Minotr F.D. properties file   722 does not exist.
 End of Minotr F.D. properties file   788 does not exist.
 Leave Link 1002 at Tue Oct 12 15:36:00 2021, MaxMem=  1048576000 cpu:        16.6
 (Enter /usr/local/gaussian/g09/l601.exe)
 Copying SCF densities to generalized density rwf, IOpCl= 0 IROHF=0.

 **********************************************************************

            Population analysis using the MP2 density.

 **********************************************************************

 Alpha  occ. eigenvalues -- -104.73200 -20.46751 -10.45153  -7.91868  -7.91608
 Alpha  occ. eigenvalues --   -7.91598  -7.48561  -5.31170  -5.31067  -5.31064
 Alpha  occ. eigenvalues --   -2.03940  -2.03877  -2.03875  -2.03764  -2.03764
 Alpha  occ. eigenvalues --   -1.21683  -0.89105  -0.65261  -0.52096  -0.44143
 Alpha  occ. eigenvalues --   -0.43283  -0.30702  -0.28118  -0.17137  -0.15975
 Alpha  occ. eigenvalues --   -0.15962
 Alpha virt. eigenvalues --    0.15408   0.17954   0.21486   0.22802   0.24037
 Alpha virt. eigenvalues --    0.24813   0.25130   0.28181   0.29756   0.30909
 Alpha virt. eigenvalues --    0.31157   0.31301   0.34911   0.37152   0.37662
 Alpha virt. eigenvalues --    0.38949   0.41043   0.42223   0.45734   0.50543
 Alpha virt. eigenvalues --    0.52542   0.53972   0.54437   0.56321   0.57159
 Alpha virt. eigenvalues --    0.59504   0.64678   0.65975   0.73542   0.75359
 Alpha virt. eigenvalues --    0.75739   0.76903   0.77125   0.78562   0.78717
 Alpha virt. eigenvalues --    0.81099   0.81276   0.82420   0.82942   0.86502
 Alpha virt. eigenvalues --    0.86519   0.87045   0.87826   0.90682   0.90693
 Alpha virt. eigenvalues --    0.93366   0.95411   0.96281   1.00004   1.00016
 Alpha virt. eigenvalues --    1.05878   1.08984   1.09655   1.11892   1.13604
 Alpha virt. eigenvalues --    1.14042   1.20013   1.20120   1.21984   1.24727
 Alpha virt. eigenvalues --    1.26965   1.31637   1.34546   1.40711   1.44686
 Alpha virt. eigenvalues --    1.50720   1.53381   1.56121   1.58197   1.59966
 Alpha virt. eigenvalues --    1.66499   1.68215   1.69866   1.73243   1.73645
 Alpha virt. eigenvalues --    1.73772   1.75464   1.76865   1.79921   1.84134
 Alpha virt. eigenvalues --    1.87083   1.90657   1.90949   1.97886   2.04597
 Alpha virt. eigenvalues --    2.04608   2.09478   2.13526   2.17054   2.32484
 Alpha virt. eigenvalues --    2.38314   2.50697   2.51665   2.52427   2.56116
 Alpha virt. eigenvalues --    2.56761   2.60623   2.65786   2.67605   2.69082
 Alpha virt. eigenvalues --    2.71701   2.75364   2.76649   2.77978   2.96674
 Alpha virt. eigenvalues --    2.97758   2.98633   3.08584   3.19218   3.21585
 Alpha virt. eigenvalues --    3.21803   3.27434   3.29722   3.29749   3.34662
 Alpha virt. eigenvalues --    3.38886   3.52296   3.54045   3.54188   3.73886
 Alpha virt. eigenvalues --    3.92404   4.23718   4.40151   4.42476   4.54433
 Alpha virt. eigenvalues --    4.62713   4.73512   4.91098   4.96008   5.13059
 Alpha virt. eigenvalues --    5.20274   5.50984   6.47225   6.58460   6.82448
 Alpha virt. eigenvalues --    6.88931   6.91358   6.97412   7.15335   7.21773
 Alpha virt. eigenvalues --    7.33973   7.41795   7.51800   7.71808   7.82544
 Alpha virt. eigenvalues --    8.17333  13.38703  59.20238
          Condensed to atoms (all electrons):
               1          2          3          4
     1  O    8.683052  -0.118848  -0.108952   0.061870
     2  Cl  -0.118848  17.077056   0.013946  -0.012484
     3  I   -0.108952   0.013946  25.852475   0.020978
     4  H    0.061870  -0.012484   0.020978   0.674398
 Mulliken charges:
               1
     1  O   -0.517121
     2  Cl   0.040331
     3  I   -0.778447
     4  H    0.255237
 Sum of Mulliken charges =  -1.00000
 Mulliken charges with hydrogens summed into heavy atoms:
               1
     1  O   -0.261884
     2  Cl   0.040331
     3  I   -0.778447
 Electronic spatial extent (au):  <R**2>=           1305.0870
 Charge=             -1.0000 electrons
 Dipole moment (field-independent basis, Debye):
    X=              1.8510    Y=             10.9058    Z=             -0.0000  Tot=             11.0618
 Quadrupole moment (field-independent basis, Debye-Ang):
   XX=            -55.7154   YY=            -90.9941   ZZ=            -53.1726
   XY=             -9.3213   XZ=              0.0000   YZ=              0.0000
 Traceless Quadrupole moment (field-independent basis, Debye-Ang):
   XX=             10.9120   YY=            -24.3667   ZZ=             13.4548
   XY=             -9.3213   XZ=              0.0000   YZ=              0.0000
 Octapole moment (field-independent basis, Debye-Ang**2):
  XXX=             11.6020  YYY=            441.0017  ZZZ=             -0.0000  XYY=             31.4265
  XXY=            113.2026  XXZ=             -0.0000  XZZ=              2.0924  YZZ=            106.4794
  YYZ=             -0.0000  XYZ=             -0.0000
 Hexadecapole moment (field-independent basis, Debye-Ang**3):
 XXXX=           -410.4707 YYYY=          -2506.7144 ZZZZ=            -86.0453 XXXY=           -247.8799
 XXXZ=              0.0000 YYYX=           -331.4131 YYYZ=              0.0000 ZZZX=              0.0000
 ZZZY=              0.0000 XXYY=           -449.8904 XXZZ=            -87.4169 YYZZ=           -370.5620
 XXYZ=              0.0000 YYXZ=              0.0000 ZZXY=            -80.9043
 N-N= 1.440919950582D+02 E-N=-2.196134702824D+03  KE= 6.459299544934D+02
 No NMR shielding tensors so no spin-rotation constants.
 Leave Link  601 at Tue Oct 12 15:36:00 2021, MaxMem=  1048576000 cpu:         2.2
 (Enter /usr/local/gaussian/g09/l607.exe)
 ******************************Gaussian NBO Version 3.1******************************
             N A T U R A L   A T O M I C   O R B I T A L   A N D
          N A T U R A L   B O N D   O R B I T A L   A N A L Y S I S
 ******************************Gaussian NBO Version 3.1******************************
       /RESON  / : Allow strongly delocalized NBO set

 Analyzing the MP2 density

 Job title: title                                                           

 Storage needed:     91686 in NPA,    121697 in NBO (1048575896 available)


 NATURAL POPULATIONS:  Natural atomic orbital occupancies 
                                                          
   NAO  Atom  No  lang   Type(AO)    Occupancy
 --------------------------------------------
     1    O    1  S      Cor( 1S)     1.99975
     2    O    1  S      Val( 2S)     1.81164
     3    O    1  S      Ryd( 3S)     0.01049
     4    O    1  S      Ryd( 4S)     0.00117
     5    O    1  S      Ryd( 5S)     0.00018
     6    O    1  px     Val( 2p)     1.20433
     7    O    1  px     Ryd( 3p)     0.00727
     8    O    1  px     Ryd( 4p)     0.00065
     9    O    1  px     Ryd( 5p)     0.00043
    10    O    1  py     Val( 2p)     1.71561
    11    O    1  py     Ryd( 3p)     0.01264
    12    O    1  py     Ryd( 4p)     0.00072
    13    O    1  py     Ryd( 5p)     0.00066
    14    O    1  pz     Val( 2p)     1.94708
    15    O    1  pz     Ryd( 3p)     0.02090
    16    O    1  pz     Ryd( 4p)     0.00064
    17    O    1  pz     Ryd( 5p)     0.00017
    18    O    1  dxy    Ryd( 3d)     0.00872
    19    O    1  dxy    Ryd( 4d)     0.00051
    20    O    1  dxy    Ryd( 5d)     0.00014
    21    O    1  dxz    Ryd( 3d)     0.00883
    22    O    1  dxz    Ryd( 4d)     0.00060
    23    O    1  dxz    Ryd( 5d)     0.00010
    24    O    1  dyz    Ryd( 3d)     0.00747
    25    O    1  dyz    Ryd( 4d)     0.00064
    26    O    1  dyz    Ryd( 5d)     0.00030
    27    O    1  dx2y2  Ryd( 3d)     0.01329
    28    O    1  dx2y2  Ryd( 4d)     0.00040
    29    O    1  dx2y2  Ryd( 5d)     0.00018
    30    O    1  dz2    Ryd( 3d)     0.00944
    31    O    1  dz2    Ryd( 4d)     0.00062
    32    O    1  dz2    Ryd( 5d)     0.00018
    33    O    1  f(0)   Ryd( 4f)     0.00072
    34    O    1  f(0)   Ryd( 5f)     0.00011
    35    O    1  f(C1)  Ryd( 4f)     0.00067
    36    O    1  f(C1)  Ryd( 5f)     0.00012
    37    O    1  f(S1)  Ryd( 4f)     0.00061
    38    O    1  f(S1)  Ryd( 5f)     0.00011
    39    O    1  f(C2)  Ryd( 4f)     0.00060
    40    O    1  f(C2)  Ryd( 5f)     0.00013
    41    O    1  f(S2)  Ryd( 4f)     0.00055
    42    O    1  f(S2)  Ryd( 5f)     0.00012
    43    O    1  f(C3)  Ryd( 4f)     0.00061
    44    O    1  f(C3)  Ryd( 5f)     0.00014
    45    O    1  f(S3)  Ryd( 4f)     0.00056
    46    O    1  f(S3)  Ryd( 5f)     0.00012

    47   Cl    2  S      Cor( 1S)     2.00000
    48   Cl    2  S      Cor( 2S)     1.99976
    49   Cl    2  S      Val( 3S)     1.88019
    50   Cl    2  S      Ryd( 4S)     0.00755
    51   Cl    2  S      Ryd( 5S)     0.00052
    52   Cl    2  S      Ryd( 6S)     0.00018
    53   Cl    2  px     Cor( 2p)     1.99995
    54   Cl    2  px     Val( 3p)     0.91200
    55   Cl    2  px     Ryd( 4p)     0.00648
    56   Cl    2  px     Ryd( 5p)     0.00052
    57   Cl    2  px     Ryd( 6p)     0.00022
    58   Cl    2  py     Cor( 2p)     2.00003
    59   Cl    2  py     Val( 3p)     1.95262
    60   Cl    2  py     Ryd( 4p)     0.01003
    61   Cl    2  py     Ryd( 5p)     0.00053
    62   Cl    2  py     Ryd( 6p)     0.00012
    63   Cl    2  pz     Cor( 2p)     2.00003
    64   Cl    2  pz     Val( 3p)     1.95438
    65   Cl    2  pz     Ryd( 4p)     0.01074
    66   Cl    2  pz     Ryd( 5p)     0.00068
    67   Cl    2  pz     Ryd( 6p)     0.00003
    68   Cl    2  dxy    Ryd( 3d)     0.01703
    69   Cl    2  dxy    Ryd( 4d)     0.00087
    70   Cl    2  dxy    Ryd( 5d)     0.00035
    71   Cl    2  dxz    Ryd( 3d)     0.02136
    72   Cl    2  dxz    Ryd( 4d)     0.00109
    73   Cl    2  dxz    Ryd( 5d)     0.00036
    74   Cl    2  dyz    Ryd( 3d)     0.01684
    75   Cl    2  dyz    Ryd( 4d)     0.00073
    76   Cl    2  dyz    Ryd( 5d)     0.00020
    77   Cl    2  dx2y2  Ryd( 3d)     0.01859
    78   Cl    2  dx2y2  Ryd( 4d)     0.00049
    79   Cl    2  dx2y2  Ryd( 5d)     0.00017
    80   Cl    2  dz2    Ryd( 3d)     0.01758
    81   Cl    2  dz2    Ryd( 4d)     0.00060
    82   Cl    2  dz2    Ryd( 5d)     0.00017
    83   Cl    2  f(0)   Ryd( 4f)     0.00131
    84   Cl    2  f(0)   Ryd( 5f)     0.00014
    85   Cl    2  f(C1)  Ryd( 4f)     0.00148
    86   Cl    2  f(C1)  Ryd( 5f)     0.00015
    87   Cl    2  f(S1)  Ryd( 4f)     0.00127
    88   Cl    2  f(S1)  Ryd( 5f)     0.00013
    89   Cl    2  f(C2)  Ryd( 4f)     0.00134
    90   Cl    2  f(C2)  Ryd( 5f)     0.00013
    91   Cl    2  f(S2)  Ryd( 4f)     0.00120
    92   Cl    2  f(S2)  Ryd( 5f)     0.00013
    93   Cl    2  f(C3)  Ryd( 4f)     0.00160
    94   Cl    2  f(C3)  Ryd( 5f)     0.00013
    95   Cl    2  f(S3)  Ryd( 4f)     0.00127
    96   Cl    2  f(S3)  Ryd( 5f)     0.00014

    97    I    3  S      Cor( 4S)     1.99967
    98    I    3  S      Val( 5S)     1.95940
    99    I    3  S      Ryd( 6S)     0.00171
   100    I    3  S      Ryd( 7S)     0.00060
   101    I    3  S      Ryd( 8S)     0.00014
   102    I    3  S      Ryd( 9S)     0.00001
   103    I    3  px     Cor( 4p)     1.99998
   104    I    3  px     Val( 5p)     1.94304
   105    I    3  px     Ryd( 6p)     0.01026
   106    I    3  px     Ryd( 7p)     0.00072
   107    I    3  px     Ryd( 8p)     0.00011
   108    I    3  py     Cor( 4p)     1.99973
   109    I    3  py     Val( 5p)     1.80836
   110    I    3  py     Ryd( 6p)     0.00892
   111    I    3  py     Ryd( 7p)     0.00063
   112    I    3  py     Ryd( 8p)     0.00014
   113    I    3  pz     Cor( 4p)     1.99999
   114    I    3  pz     Val( 5p)     1.95129
   115    I    3  pz     Ryd( 6p)     0.01038
   116    I    3  pz     Ryd( 7p)     0.00072
   117    I    3  pz     Ryd( 8p)     0.00011
   118    I    3  dxy    Cor( 4d)     1.99668
   119    I    3  dxy    Ryd( 5d)     0.01988
   120    I    3  dxy    Ryd( 6d)     0.00128
   121    I    3  dxy    Ryd( 7d)     0.00020
   122    I    3  dxz    Cor( 4d)     1.99678
   123    I    3  dxz    Ryd( 5d)     0.01996
   124    I    3  dxz    Ryd( 6d)     0.00161
   125    I    3  dxz    Ryd( 7d)     0.00020
   126    I    3  dyz    Cor( 4d)     1.99673
   127    I    3  dyz    Ryd( 5d)     0.02009
   128    I    3  dyz    Ryd( 6d)     0.00129
   129    I    3  dyz    Ryd( 7d)     0.00019
   130    I    3  dx2y2  Cor( 4d)     1.99654
   131    I    3  dx2y2  Ryd( 5d)     0.01962
   132    I    3  dx2y2  Ryd( 6d)     0.00148
   133    I    3  dx2y2  Ryd( 7d)     0.00023
   134    I    3  dz2    Cor( 4d)     1.99669
   135    I    3  dz2    Ryd( 5d)     0.01982
   136    I    3  dz2    Ryd( 6d)     0.00160
   137    I    3  dz2    Ryd( 7d)     0.00017
   138    I    3  f(0)   Ryd( 4f)     0.00270
   139    I    3  f(0)   Ryd( 5f)     0.00043
   140    I    3  f(C1)  Ryd( 4f)     0.00274
   141    I    3  f(C1)  Ryd( 5f)     0.00043
   142    I    3  f(S1)  Ryd( 4f)     0.00280
   143    I    3  f(S1)  Ryd( 5f)     0.00047
   144    I    3  f(C2)  Ryd( 4f)     0.00268
   145    I    3  f(C2)  Ryd( 5f)     0.00043
   146    I    3  f(S2)  Ryd( 4f)     0.00274
   147    I    3  f(S2)  Ryd( 5f)     0.00044
   148    I    3  f(C3)  Ryd( 4f)     0.00268
   149    I    3  f(C3)  Ryd( 5f)     0.00044
   150    I    3  f(S3)  Ryd( 4f)     0.00274
   151    I    3  f(S3)  Ryd( 5f)     0.00046

   152    H    4  S      Val( 1S)     0.52642
   153    H    4  S      Ryd( 2S)     0.00861
   154    H    4  S      Ryd( 3S)     0.00052
   155    H    4  S      Ryd( 4S)     0.00023
   156    H    4  px     Ryd( 2p)     0.00455
   157    H    4  px     Ryd( 3p)     0.00055
   158    H    4  px     Ryd( 4p)     0.00012
   159    H    4  py     Ryd( 2p)     0.00511
   160    H    4  py     Ryd( 3p)     0.00137
   161    H    4  py     Ryd( 4p)     0.00035
   162    H    4  pz     Ryd( 2p)     0.00591
   163    H    4  pz     Ryd( 3p)     0.00035
   164    H    4  pz     Ryd( 4p)     0.00023
   165    H    4  dxy    Ryd( 3d)     0.00038
   166    H    4  dxy    Ryd( 4d)     0.00011
   167    H    4  dxz    Ryd( 3d)     0.00027
   168    H    4  dxz    Ryd( 4d)     0.00006
   169    H    4  dyz    Ryd( 3d)     0.00051
   170    H    4  dyz    Ryd( 4d)     0.00013
   171    H    4  dx2y2  Ryd( 3d)     0.00028
   172    H    4  dx2y2  Ryd( 4d)     0.00012
   173    H    4  dz2    Ryd( 3d)     0.00030
   174    H    4  dz2    Ryd( 4d)     0.00008

 [ 28 electrons found in the effective core potential]

 WARNING:  5 low occupancy (<1.9990e) core orbitals found on  I    3


 Summary of Natural Population Analysis:                  
                                                          
                                       Natural Population 
                Natural  -----------------------------------------------
    Atom  No    Charge         Core      Valence    Rydberg      Total
 -----------------------------------------------------------------------
      O    1   -0.79090      1.99975     6.67866    0.11249     8.79090
     Cl    2    0.15658      9.99977     6.69919    0.14446    16.84342
      I    3   -0.80913     45.98280     7.66209    0.16425    53.80913
      H    4    0.44346      0.00000     0.52642    0.03012     0.55654
 =======================================================================
   * Total *   -1.00000     57.98232    21.56636    0.45132    80.00000

                                 Natural Population      
 --------------------------------------------------------
   Effective Core            28.00000
   Core                      29.98232 ( 99.9411% of  30)
   Valence                   21.56636 ( 98.0289% of  22)
   Natural Minimal Basis     79.54868 ( 99.4358% of  80)
   Natural Rydberg Basis      0.45132 (  0.5642% of  80)
 --------------------------------------------------------

    Atom  No          Natural Electron Configuration
 ----------------------------------------------------------------------------
      O    1      [core]2S( 1.81)2p( 4.87)3S( 0.01)3p( 0.04)3d( 0.05)
     Cl    2      [core]3S( 1.88)3p( 4.82)4S( 0.01)3d( 0.09)4p( 0.03)4f( 0.01)
      I    3      [core]5S( 1.96)5p( 5.70)4f( 0.02)5d( 0.10)6p( 0.03)6d( 0.01)
      H    4            1S( 0.53)2S( 0.01)2p( 0.02)


 NATURAL BOND ORBITAL ANALYSIS:
 Warning:  a bond orbital has occupanc of -0.00003
 Warning:  a bond orbital has occupanc of -0.00000

                       Occupancies       Lewis Structure    Low   High
           Occ.    -------------------  -----------------   occ   occ
  Cycle   Thresh.   Lewis   Non-Lewis     CR  BD  3C  LP    (L)   (NL)   Dev
 =============================================================================
   1(1)    1.90    79.34477   0.65523     15   2   0   9     1      1    0.24
 Warning:  a bond orbital has occupanc of -0.00003
 Warning:  a bond orbital has occupanc of -0.00000
   2(2)    1.90    79.16571   0.83429     15   2   0   9     1      1    0.49
 Warning:  a bond orbital has occupanc of -0.00003
 Warning:  a bond orbital has occupanc of -0.00000
   3(3)    1.90    79.34477   0.65523     15   2   0   9     1      1    0.24
 Warning:  a bond orbital has occupanc of -0.00003
 Warning:  a bond orbital has occupanc of -0.00000
   4(1)    1.80    79.34477   0.65523     15   2   0   9     1      1    0.24
 Warning:  a bond orbital has occupanc of -0.00003
 Warning:  a bond orbital has occupanc of -0.00000
   5(2)    1.80    79.16571   0.83429     15   2   0   9     1      1    0.49
 Warning:  a bond orbital has occupanc of -0.00003
 Warning:  a bond orbital has occupanc of -0.00000
   6(3)    1.80    79.34477   0.65523     15   2   0   9     1      1    0.24
 Warning:  a bond orbital has occupanc of -0.00003
 Warning:  a bond orbital has occupanc of -0.00000
   7(1)    1.70    79.34477   0.65523     15   2   0   9     0      1    0.24
 Warning:  a bond orbital has occupanc of -0.00003
 Warning:  a bond orbital has occupanc of -0.00000
   8(2)    1.70    79.34477   0.65523     15   2   0   9     0      1    0.24
 Warning:  a bond orbital has occupanc of -0.00003
 Warning:  a bond orbital has occupanc of -0.00000
   9(1)    1.60    79.00885   0.99115     15   1   0  10     0      1    0.49
 Warning:  a bond orbital has occupanc of -0.00003
 Warning:  a bond orbital has occupanc of -0.00000
  10(2)    1.60    79.00885   0.99115     15   1   0  10     0      1    0.49
 Warning:  a bond orbital has occupanc of -0.00003
 Warning:  a bond orbital has occupanc of -0.00000
  11(1)    1.50    79.00885   0.99115     15   1   0  10     0      1    0.49
 Warning:  a bond orbital has occupanc of -0.00003
 Warning:  a bond orbital has occupanc of -0.00000
  12(2)    1.50    79.00885   0.99115     15   1   0  10     0      1    0.49
 Warning:  a bond orbital has occupanc of -0.00003
 Warning:  a bond orbital has occupanc of -0.00000
  13(1)    1.90    79.34477   0.65523     15   2   0   9     1      1    0.24
 -----------------------------------------------------------------------------

 Structure accepted: RESONANCE keyword permits strongly delocalized structure

 WARNING:  5 low occupancy (<1.9990e) core orbitals found on  I    3

 --------------------------------------------------------
   Effective Core           28.00000
   Core                     29.98231 ( 99.941% of  30)
   Valence Lewis            21.36245 ( 97.102% of  22)
  ==================       ============================
   Total Lewis              79.34477 ( 99.181% of  80)
  -----------------------------------------------------
   Valence non-Lewis         0.24799 (  0.310% of  80)
   Rydberg non-Lewis         0.40725 (  0.509% of  80)
  ==================       ============================
   Total non-Lewis           0.65523 (  0.819% of  80)
 --------------------------------------------------------


       (Occupancy)   Bond orbital/ Coefficients/ Hybrids
 ---------------------------------------------------------------------------------
     1. (1.93802) BD ( 1) O   1 -Cl   2  
                ( 58.77%)   0.7666* O   1 s( 10.31%)p 8.65( 89.17%)d 0.05(  0.51%)
                                                  f 0.00(  0.02%)
                                            0.0003  0.3177 -0.0437  0.0148 -0.0006
                                            0.9424 -0.0356 -0.0102 -0.0126 -0.0377
                                           -0.0259 -0.0047  0.0007  0.0000  0.0000
                                            0.0000  0.0000 -0.0205 -0.0022  0.0014
                                            0.0000  0.0000  0.0000  0.0000  0.0000
                                            0.0000  0.0540  0.0040  0.0021 -0.0409
                                           -0.0031  0.0009  0.0000  0.0000 -0.0112
                                            0.0012 -0.0001  0.0001  0.0000  0.0000
                                            0.0000  0.0000  0.0062  0.0013 -0.0005
                                            0.0016
                ( 41.23%)   0.6421*Cl   2 s(  8.61%)p10.47( 90.13%)d 0.13(  1.14%)
                                                  f 0.01(  0.12%)
                                           -0.0000  0.0005  0.2886 -0.0519 -0.0093
                                           -0.0033 -0.0004 -0.9470  0.0639  0.0137
                                           -0.0035 -0.0000 -0.0133 -0.0026  0.0030
                                           -0.0014  0.0000  0.0000  0.0000  0.0000
                                            0.0000  0.0136 -0.0001  0.0004  0.0000
                                            0.0000  0.0000  0.0000  0.0000  0.0000
                                            0.0888 -0.0109 -0.0011 -0.0566  0.0064
                                            0.0017  0.0000  0.0000  0.0216 -0.0031
                                            0.0006 -0.0002  0.0000  0.0000  0.0000
                                            0.0000 -0.0261  0.0026 -0.0019  0.0004
     2. (1.95939) BD ( 1) O   1 - H   4  
                ( 80.97%)   0.8998* O   1 s( 25.24%)p 2.94( 74.31%)d 0.02(  0.44%)
                                                  f 0.00(  0.01%)
                                           -0.0002 -0.5023  0.0073 -0.0088 -0.0019
                                            0.2011 -0.0157 -0.0030 -0.0041  0.8380
                                            0.0026 -0.0047 -0.0056  0.0000  0.0000
                                            0.0000  0.0000  0.0039  0.0026  0.0006
                                            0.0000  0.0000  0.0000  0.0000  0.0000
                                            0.0000  0.0561  0.0063  0.0006  0.0342
                                            0.0022 -0.0033  0.0000  0.0000 -0.0018
                                           -0.0005 -0.0093  0.0004  0.0000  0.0000
                                            0.0000  0.0000 -0.0023 -0.0018  0.0001
                                           -0.0011
                ( 19.03%)   0.4362* H   4 s( 99.80%)p 0.00(  0.20%)d 0.00(  0.01%)
                                           -0.9977 -0.0504 -0.0095  0.0019 -0.0105
                                           -0.0111  0.0004  0.0154 -0.0361 -0.0145
                                            0.0000  0.0000  0.0000 -0.0007  0.0003
                                            0.0000  0.0000  0.0000  0.0000  0.0050
                                            0.0027  0.0018  0.0043
     3. (1.99975) CR ( 1) O   1           s(100.00%)p 0.00(  0.00%)
                                            1.0000 -0.0003  0.0000 -0.0000 -0.0000
                                           -0.0002  0.0000  0.0000  0.0000  0.0001
                                            0.0000 -0.0000 -0.0000  0.0000  0.0000
                                            0.0000  0.0000  0.0000  0.0000  0.0000
                                            0.0000  0.0000  0.0000  0.0000  0.0000
                                            0.0000 -0.0000  0.0000  0.0000  0.0000
                                            0.0000 -0.0000  0.0000  0.0000  0.0000
                                           -0.0000 -0.0000  0.0000  0.0000  0.0000
                                            0.0000  0.0000 -0.0000 -0.0000 -0.0000
                                           -0.0000
     4. (2.00000) CR ( 1)Cl   2           s(100.00%)
                                            1.0000  0.0000 -0.0000 -0.0000 -0.0000
                                           -0.0000 -0.0000 -0.0000  0.0000  0.0000
                                           -0.0000  0.0000 -0.0000 -0.0000  0.0000
                                           -0.0000  0.0000  0.0000  0.0000  0.0000
                                            0.0000  0.0000 -0.0000  0.0000  0.0000
                                            0.0000  0.0000  0.0000  0.0000  0.0000
                                            0.0000 -0.0000 -0.0000 -0.0000  0.0000
                                            0.0000  0.0000  0.0000  0.0000 -0.0000
                                            0.0000 -0.0000  0.0000  0.0000  0.0000
                                            0.0000 -0.0000  0.0000 -0.0000  0.0000
     5. (1.99976) CR ( 2)Cl   2           s(100.00%)p 0.00(  0.00%)
                                            0.0000  1.0000 -0.0004  0.0000  0.0000
                                            0.0000  0.0000  0.0004 -0.0000 -0.0000
                                            0.0000 -0.0000  0.0001  0.0000 -0.0000
                                            0.0000  0.0000  0.0000  0.0000  0.0000
                                            0.0000 -0.0000  0.0000  0.0000  0.0000
                                            0.0000  0.0000  0.0000  0.0000  0.0000
                                           -0.0000  0.0000  0.0000  0.0000 -0.0000
                                           -0.0000  0.0000  0.0000 -0.0000  0.0000
                                           -0.0000  0.0000  0.0000  0.0000  0.0000
                                            0.0000  0.0000 -0.0000  0.0000 -0.0000
     6. (1.99995) CR ( 3)Cl   2           s(  0.00%)p 1.00(100.00%)
                                           -0.0000  0.0000  0.0000 -0.0000 -0.0000
                                           -0.0000  1.0000 -0.0004  0.0000  0.0000
                                           -0.0000  0.0000 -0.0000 -0.0000  0.0000
                                           -0.0000  0.0000  0.0000  0.0000  0.0000
                                            0.0000  0.0000 -0.0000 -0.0000  0.0000
                                            0.0000  0.0000  0.0000  0.0000  0.0000
                                            0.0000 -0.0000 -0.0000 -0.0000  0.0000
                                            0.0000  0.0000  0.0000  0.0000 -0.0000
                                            0.0000 -0.0000  0.0000  0.0000  0.0000
                                            0.0000 -0.0000  0.0000 -0.0000  0.0000
     7. (2.00003) CR ( 4)Cl   2           s(  0.00%)p 1.00(100.00%)
                                            0.0000 -0.0000  0.0000  0.0000  0.0000
                                           -0.0000  0.0000 -0.0000  0.0000  0.0000
                                           -0.0000  1.0000  0.0002  0.0000  0.0000
                                            0.0000  0.0000  0.0000  0.0000  0.0000
                                            0.0000 -0.0000  0.0000  0.0000  0.0000
                                            0.0000  0.0000  0.0000  0.0000  0.0000
                                           -0.0000 -0.0000 -0.0000 -0.0000 -0.0000
                                           -0.0000  0.0000  0.0000  0.0000  0.0000
                                           -0.0000  0.0000  0.0000  0.0000  0.0000
                                            0.0000 -0.0000  0.0000  0.0000 -0.0000
     8. (2.00003) CR ( 5)Cl   2           s(  0.00%)p 1.00(100.00%)
                                            0.0000  0.0000  0.0000  0.0000  0.0000
                                            0.0000  0.0000  0.0000  0.0000  0.0000
                                            0.0000  0.0000  0.0000  0.0000  0.0000
                                            0.0000  1.0000  0.0002  0.0000  0.0000
                                           -0.0000  0.0000  0.0000  0.0000  0.0000
                                            0.0000  0.0000  0.0000  0.0000  0.0000
                                            0.0000  0.0000  0.0000  0.0000  0.0000
                                            0.0000 -0.0000  0.0000  0.0000  0.0000
                                            0.0000  0.0000  0.0000 -0.0000  0.0000
                                           -0.0000  0.0000  0.0000  0.0000  0.0000
     9. (1.99967) CR ( 1) I   3           s(100.00%)p 0.00(  0.00%)
                                            1.0000 -0.0003  0.0000 -0.0000  0.0000
                                            0.0000  0.0000  0.0000 -0.0000  0.0000
                                            0.0000  0.0000  0.0001 -0.0000  0.0000
                                            0.0000  0.0000  0.0000  0.0000  0.0000
                                            0.0000  0.0000  0.0000 -0.0000 -0.0000
                                            0.0000  0.0000  0.0000  0.0000  0.0000
                                            0.0000  0.0000  0.0000 -0.0000 -0.0000
                                           -0.0000  0.0000 -0.0000 -0.0000  0.0000
                                           -0.0000  0.0000  0.0000 -0.0000 -0.0000
                                           -0.0000 -0.0000  0.0000  0.0000  0.0000
                                            0.0000 -0.0000 -0.0000 -0.0000  0.0000
    10. (1.99997) CR ( 2) I   3           s(  0.00%)p 1.00(100.00%)
                                            0.0000  0.0001  0.0000  0.0000 -0.0000
                                            0.0000  1.0000 -0.0005 -0.0000 -0.0000
                                            0.0000  0.0000  0.0001  0.0000  0.0000
                                           -0.0000  0.0000  0.0000  0.0000  0.0000
                                            0.0000  0.0000 -0.0000  0.0000  0.0000
                                            0.0000  0.0000  0.0000  0.0000  0.0000
                                            0.0000  0.0000  0.0000  0.0000 -0.0000
                                           -0.0000  0.0000  0.0000 -0.0000  0.0000
                                           -0.0000  0.0000  0.0000  0.0000  0.0000
                                           -0.0000 -0.0000  0.0000  0.0000  0.0000
                                            0.0000  0.0000  0.0000 -0.0000 -0.0000
    11. (1.99973) CR ( 3) I   3           s(  0.00%)p 1.00(100.00%)
                                            0.0000  0.0003 -0.0000  0.0000 -0.0000
                                           -0.0000  0.0000  0.0001  0.0000  0.0000
                                           -0.0000  1.0000 -0.0001  0.0000 -0.0000
                                           -0.0000  0.0000  0.0000  0.0000  0.0000
                                            0.0000 -0.0000  0.0000 -0.0000 -0.0000
                                            0.0000  0.0000  0.0000  0.0000  0.0000
                                            0.0000  0.0000  0.0000  0.0000  0.0000
                                            0.0000 -0.0000  0.0000  0.0000 -0.0000
                                            0.0000  0.0000  0.0000 -0.0000 -0.0000
                                            0.0000  0.0000  0.0000  0.0000  0.0000
                                            0.0000 -0.0000 -0.0000  0.0000  0.0000
    12. (1.99999) CR ( 4) I   3           s(  0.00%)p 1.00(100.00%)
                                            0.0000  0.0000  0.0000  0.0000  0.0000
                                            0.0000  0.0000  0.0000  0.0000  0.0000
                                            0.0000  0.0000  0.0000  0.0000  0.0000
                                            0.0000  1.0000 -0.0005 -0.0000 -0.0000
                                            0.0000  0.0000  0.0000  0.0000  0.0000
                                            0.0000 -0.0000 -0.0000  0.0000  0.0000
                                           -0.0000  0.0000  0.0000  0.0000  0.0000
                                            0.0000  0.0000  0.0000  0.0000  0.0000
                                            0.0000  0.0000  0.0000  0.0000  0.0000
                                            0.0000  0.0000  0.0000  0.0000 -0.0000
                                           -0.0000  0.0000  0.0000  0.0000  0.0000
    13. (1.99668) CR ( 5) I   3           s(  0.00%)p 0.00(  0.00%)d 1.00(100.00%)
                                            0.0000  0.0000 -0.0000  0.0000  0.0000
                                           -0.0000  0.0000  0.0000  0.0000  0.0000
                                           -0.0000 -0.0000 -0.0000  0.0000 -0.0000
                                           -0.0000  0.0000  0.0000  0.0000  0.0000
                                            0.0000  1.0000  0.0000 -0.0000 -0.0000
                                            0.0000  0.0000  0.0000  0.0000  0.0000
                                            0.0000  0.0000  0.0000  0.0000  0.0000
                                            0.0000 -0.0000  0.0000  0.0000 -0.0000
                                            0.0000  0.0000  0.0000 -0.0000 -0.0000
                                            0.0000  0.0000  0.0000  0.0000  0.0000
                                            0.0000 -0.0000 -0.0000  0.0000  0.0000
    14. (1.99678) CR ( 6) I   3           s(  0.00%)p 0.00(  0.00%)d 1.00(100.00%)
                                            0.0000  0.0000  0.0000  0.0000  0.0000
                                            0.0000  0.0000  0.0000  0.0000  0.0000
                                            0.0000  0.0000  0.0000  0.0000  0.0000
                                            0.0000  0.0000  0.0000  0.0000  0.0000
                                           -0.0000  0.0000  0.0000  0.0000  0.0000
                                            1.0000  0.0000  0.0000 -0.0000 -0.0000
                                            0.0000 -0.0000 -0.0000  0.0000  0.0000
                                            0.0000  0.0000  0.0000  0.0000  0.0000
                                            0.0000 -0.0000 -0.0000  0.0000  0.0000
                                            0.0000  0.0000 -0.0000 -0.0000  0.0000
                                            0.0000  0.0000  0.0000  0.0000  0.0000
    15. (1.99673) CR ( 7) I   3           s(  0.00%)p 0.00(  0.00%)d 1.00(100.00%)
                                            0.0000  0.0000  0.0000  0.0000  0.0000
                                            0.0000  0.0000  0.0000  0.0000  0.0000
                                            0.0000  0.0000  0.0000  0.0000  0.0000
                                            0.0000  0.0000  0.0000  0.0000  0.0000
                                           -0.0000  0.0000  0.0000  0.0000  0.0000
                                           -0.0000  0.0000  0.0000 -0.0000  1.0000
                                            0.0000 -0.0000 -0.0000  0.0000  0.0000
                                            0.0000  0.0000  0.0000  0.0000  0.0000
                                            0.0000 -0.0000 -0.0000  0.0000  0.0000
                                            0.0000  0.0000 -0.0000 -0.0000  0.0000
                                            0.0000  0.0000  0.0000  0.0000  0.0000
    16. (1.99654) CR ( 8) I   3           s(  0.00%)p 0.00(  0.00%)d 1.00(100.00%)
                                           -0.0000 -0.0001  0.0000 -0.0000  0.0000
                                            0.0000  0.0000  0.0000  0.0000  0.0000
                                            0.0000  0.0000  0.0000 -0.0000  0.0000
                                            0.0000  0.0000  0.0000  0.0000  0.0000
                                            0.0000  0.0000  0.0000 -0.0000 -0.0000
                                            0.0000  0.0000  0.0000  0.0000  0.0000
                                            0.0000  0.0000  0.0000  1.0000 -0.0000
                                           -0.0000 -0.0000 -0.0000 -0.0000 -0.0000
                                           -0.0000  0.0000  0.0000 -0.0000 -0.0000
                                           -0.0000 -0.0000  0.0000  0.0000  0.0000
                                            0.0000 -0.0000 -0.0000  0.0000  0.0000
    17. (1.99669) CR ( 9) I   3           s(  0.00%)p 0.00(  0.00%)d 1.00(100.00%)
                                           -0.0000 -0.0001  0.0000 -0.0000  0.0000
                                            0.0000  0.0000  0.0000 -0.0000  0.0000
                                            0.0000  0.0000  0.0000 -0.0000  0.0000
                                            0.0000  0.0000  0.0000  0.0000  0.0000
                                            0.0000  0.0000  0.0000 -0.0000  0.0000
                                            0.0000  0.0000  0.0000  0.0000  0.0000
                                            0.0000  0.0000  0.0000 -0.0000 -0.0000
                                           -0.0000  0.0000  1.0000 -0.0000  0.0000
                                           -0.0000  0.0000  0.0000 -0.0000 -0.0000
                                           -0.0000 -0.0000  0.0000  0.0000  0.0000
                                            0.0000 -0.0000  0.0000 -0.0000  0.0000
    18. (1.96620) LP ( 1) O   1           s( 64.61%)p 0.55( 35.30%)d 0.00(  0.08%)
                                                  f 0.00(  0.00%)
                                            0.0002  0.8037  0.0116 -0.0082 -0.0012
                                           -0.2485 -0.0014 -0.0043 -0.0020  0.5396
                                            0.0079  0.0055  0.0012  0.0000  0.0000
                                            0.0000  0.0000  0.0219  0.0025 -0.0028
                                            0.0000  0.0000  0.0000  0.0000  0.0000
                                            0.0000  0.0143  0.0011 -0.0029  0.0106
                                            0.0009  0.0013  0.0000  0.0000 -0.0002
                                            0.0005 -0.0024  0.0001  0.0000  0.0000
                                            0.0000  0.0000  0.0039 -0.0026  0.0039
                                           -0.0014
    19. (1.95146) LP ( 2) O   1           s(  0.00%)p 1.00( 99.82%)d 0.00(  0.17%)
                                                  f 0.00(  0.01%)
                                            0.0000  0.0000  0.0000  0.0000  0.0000
                                            0.0000  0.0000  0.0000  0.0000  0.0000
                                            0.0000  0.0000  0.0000  0.9989  0.0172
                                            0.0052  0.0090  0.0000  0.0000  0.0000
                                            0.0312  0.0048 -0.0010 -0.0244  0.0032
                                            0.0103  0.0000  0.0000  0.0000  0.0000
                                            0.0000  0.0000 -0.0103  0.0010  0.0000
                                            0.0000  0.0000  0.0000  0.0051 -0.0017
                                            0.0009  0.0009  0.0000  0.0000  0.0000
                                            0.0000
    20. (1.97284) LP ( 1)Cl   2           s( 91.37%)p 0.09(  8.61%)d 0.00(  0.02%)
                                                  f 0.00(  0.00%)
                                            0.0000  0.0002  0.9558  0.0060  0.0010
                                            0.0005  0.0001  0.2893 -0.0062 -0.0031
                                            0.0012  0.0000 -0.0485  0.0009  0.0000
                                           -0.0005  0.0000  0.0000  0.0000  0.0000
                                            0.0000 -0.0001 -0.0005 -0.0005  0.0000
                                            0.0000  0.0000  0.0000  0.0000  0.0000
                                           -0.0124  0.0003  0.0003  0.0078  0.0006
                                            0.0003  0.0000  0.0000 -0.0022 -0.0004
                                            0.0001 -0.0000  0.0000  0.0000  0.0000
                                            0.0000  0.0036 -0.0001 -0.0005  0.0002
    21. (1.95589) LP ( 2)Cl   2           s(  0.00%)p 1.00( 99.95%)d 0.00(  0.05%)
                                                  f 0.00(  0.01%)
                                            0.0000  0.0000  0.0000  0.0000  0.0000
                                            0.0000  0.0000  0.0000  0.0000  0.0000
                                            0.0000  0.0000  0.0000  0.0000  0.0000
                                            0.0000 -0.0002  0.9996  0.0147  0.0052
                                           -0.0023  0.0000  0.0000  0.0000  0.0078
                                            0.0176  0.0083  0.0027  0.0023  0.0006
                                            0.0000  0.0000  0.0000  0.0000  0.0000
                                            0.0000 -0.0056  0.0012  0.0000  0.0000
                                            0.0000  0.0000  0.0064 -0.0009  0.0009
                                           -0.0007  0.0000  0.0000  0.0000  0.0000
    22. (1.95410) LP ( 3)Cl   2           s(  0.26%)p99.99( 99.70%)d 0.14(  0.04%)
                                                  f 0.03(  0.01%)
                                            0.0000 -0.0000  0.0504  0.0049  0.0040
                                           -0.0021  0.0000  0.0004 -0.0001 -0.0003
                                           -0.0004 -0.0002  0.9984  0.0131  0.0013
                                            0.0005  0.0000  0.0000  0.0000  0.0000
                                            0.0000 -0.0012  0.0153  0.0079  0.0000
                                            0.0000  0.0000  0.0000  0.0000  0.0000
                                           -0.0067 -0.0041 -0.0028 -0.0001 -0.0022
                                           -0.0002  0.0000  0.0000  0.0000  0.0004
                                           -0.0026  0.0004  0.0000  0.0000  0.0000
                                            0.0000 -0.0012  0.0002  0.0086 -0.0014
    23. (1.97709) LP ( 1) I   3           s( 90.86%)p 0.10(  9.14%)d 0.00(  0.00%)
                                                  f 0.00(  0.00%)
                                            0.0003  0.9532 -0.0003  0.0021 -0.0004
                                           -0.0003 -0.0001 -0.0765  0.0003 -0.0001
                                           -0.0002 -0.0003 -0.2925  0.0019 -0.0003
                                           -0.0002  0.0000  0.0000  0.0000  0.0000
                                            0.0000 -0.0000 -0.0007  0.0000  0.0001
                                            0.0000  0.0000  0.0000  0.0000  0.0000
                                            0.0000  0.0000  0.0000  0.0001  0.0013
                                            0.0002 -0.0002  0.0001  0.0011 -0.0000
                                            0.0000  0.0000  0.0000  0.0001  0.0000
                                            0.0002  0.0000  0.0000  0.0000  0.0000
                                            0.0000  0.0002  0.0000  0.0002 -0.0001
    24. (1.95152) LP ( 2) I   3           s(  0.00%)p 1.00( 99.99%)d 0.00(  0.01%)
                                                  f 0.00(  0.00%)
                                            0.0000  0.0000  0.0000  0.0000  0.0000
                                            0.0000  0.0000  0.0000  0.0000  0.0000
                                            0.0000  0.0000  0.0000  0.0000  0.0000
                                            0.0000  0.0005  0.9999  0.0046  0.0020
                                           -0.0003  0.0000  0.0000  0.0000  0.0000
                                           -0.0000  0.0014  0.0002 -0.0009 -0.0000
                                            0.0076 -0.0004 -0.0029  0.0000  0.0000
                                            0.0000  0.0000  0.0000  0.0000  0.0000
                                            0.0000 -0.0027 -0.0013  0.0000  0.0000
                                            0.0000  0.0000 -0.0031 -0.0014  0.0015
                                            0.0008  0.0000  0.0000  0.0000  0.0000
    25. (1.95121) LP ( 3) I   3           s(  0.01%)p 1.00( 99.98%)d 0.00(  0.01%)
                                                  f 0.00(  0.00%)
                                           -0.0000  0.0070 -0.0002 -0.0006  0.0008
                                           -0.0002  0.0005  0.9727  0.0043  0.0018
                                           -0.0004 -0.0001 -0.2315 -0.0012 -0.0007
                                            0.0002  0.0000  0.0000  0.0000  0.0000
                                            0.0000 -0.0000  0.0079 -0.0001 -0.0027
                                            0.0000  0.0000  0.0000  0.0000  0.0000
                                            0.0000  0.0000  0.0000 -0.0000  0.0025
                                            0.0007 -0.0022  0.0000  0.0003 -0.0002
                                            0.0002  0.0000  0.0000 -0.0011 -0.0005
                                            0.0002  0.0001  0.0000  0.0000  0.0000
                                            0.0000 -0.0033 -0.0014  0.0024  0.0009
    26. (1.78473) LP ( 4) I   3           s(  9.14%)p 9.94( 90.77%)d 0.01(  0.08%)
                                                  f 0.00(  0.02%)
                                           -0.0000  0.3022  0.0010 -0.0072  0.0013
                                            0.0009  0.0000  0.2185 -0.0020 -0.0007
                                            0.0003  0.0000  0.9273 -0.0096 -0.0046
                                            0.0007  0.0000  0.0000  0.0000  0.0000
                                            0.0000  0.0000  0.0102 -0.0014 -0.0009
                                            0.0000  0.0000  0.0000  0.0000  0.0000
                                            0.0000  0.0000  0.0000 -0.0000 -0.0206
                                            0.0024  0.0032 -0.0000 -0.0144  0.0022
                                            0.0008  0.0000  0.0000 -0.0017 -0.0011
                                           -0.0073 -0.0039  0.0000  0.0000  0.0000
                                            0.0000 -0.0058 -0.0027 -0.0071 -0.0029
    27. (0.02054) RY*( 1) O   1           s(  0.00%)p 1.00( 98.74%)d 0.01(  1.21%)
                                                  f 0.00(  0.05%)
                                            0.0000  0.0000  0.0000  0.0000  0.0000
                                            0.0000  0.0000  0.0000  0.0000  0.0000
[...]
                                           -0.7489 -0.2017 -0.0384  0.0255  0.2007
                                           -0.0000 -0.0000 -0.0000 -0.2894 -0.0812
                                           -0.0000 -0.0000 -0.0000 -0.0000  0.0092
                                           -0.1486  0.1710 -0.0719
   158. (0.00038) RY*( 8) H   4           s( 14.51%)p 3.68( 53.42%)d 2.21( 32.07%)
                                           -0.0027  0.0120  0.3190  0.2078 -0.0762
                                            0.5526 -0.0866  0.0679 -0.2902  0.3560
                                           -0.0000 -0.0000 -0.0000 -0.5101  0.1873
                                           -0.0000 -0.0000 -0.0000 -0.0000 -0.0737
                                           -0.0934  0.0628 -0.0856
   159. (0.00032) RY*( 9) H   4           s(  0.00%)p 1.00( 94.65%)d 0.06(  5.35%)
                                            0.0000  0.0000  0.0000  0.0000  0.0000
                                            0.0000  0.0000  0.0000  0.0000  0.0000
                                           -0.1009  0.9586  0.1315  0.0000  0.0000
                                           -0.0498  0.0834  0.0509  0.2038  0.0000
                                            0.0000  0.0000  0.0000
   160. (0.00030) RY*(10) H   4           s(  3.54%)p 8.04( 28.44%)d19.24( 68.02%)
                                            0.0151  0.0562 -0.0733  0.1631 -0.0671
                                           -0.0016 -0.1499  0.0020 -0.1508 -0.4844
                                            0.0000  0.0000  0.0000 -0.3897 -0.0318
                                            0.0000  0.0000  0.0000  0.0000  0.6040
                                            0.1227 -0.3394  0.1798
   161. (0.00027) RY*(11) H   4           s(  0.00%)p 1.00(  0.42%)d99.99( 99.58%)
                                            0.0000  0.0000  0.0000  0.0000  0.0000
                                            0.0000  0.0000  0.0000  0.0000  0.0000
                                            0.0013  0.0649 -0.0048  0.0000  0.0000
                                            0.9806 -0.1585 -0.0915  0.0258  0.0000
                                            0.0000  0.0000  0.0000
   162. (0.00027) RY*(12) H   4           s( 23.44%)p 0.42(  9.75%)d 2.85( 66.82%)
                                            0.0045 -0.0024  0.2714  0.4009  0.1216
                                            0.1008  0.1912  0.0059 -0.1853  0.0399
                                            0.0000  0.0000  0.0000  0.5353  0.0696
                                            0.0000  0.0000  0.0000  0.0000  0.5256
                                           -0.0410  0.3001 -0.0933
   163. (0.00024) RY*(13) H   4           s(  3.01%)p 7.29( 21.93%)d24.96( 75.07%)
                                           -0.0134 -0.0303  0.1687 -0.0228 -0.0149
                                           -0.0584  0.0748  0.0127  0.1857  0.4188
                                            0.0000  0.0000  0.0000  0.1830  0.1252
                                            0.0000  0.0000  0.0000  0.0000  0.1713
                                           -0.2031 -0.7911 -0.0710
   164. (0.00015) RY*(14) H   4           s( 73.98%)p 0.17( 12.80%)d 0.18( 13.23%)
                                           -0.0051 -0.0732 -0.3056  0.8006 -0.0039
                                            0.1521 -0.0225  0.0330  0.3161 -0.0574
                                            0.0000  0.0000  0.0000  0.0490 -0.1288
                                            0.0000  0.0000  0.0000  0.0000 -0.2973
                                            0.0501 -0.1441  0.0398
   165. (0.00012) RY*(15) H   4           s(  0.00%)p 1.00( 38.95%)d 1.57( 61.05%)
                                            0.0000  0.0000  0.0000  0.0000  0.0000
                                            0.0000  0.0000  0.0000  0.0000  0.0000
                                           -0.0543 -0.2209  0.5811  0.0000  0.0000
                                           -0.0085  0.1664 -0.3803  0.6619  0.0000
                                            0.0000  0.0000  0.0000
   166. (0.00010) RY*(16) H   4           s(  0.80%)p41.94( 33.56%)d82.01( 65.64%)
   167. (0.00008) RY*(17) H   4           s( 17.57%)p 2.47( 43.45%)d 2.22( 38.98%)
   168. (0.00005) RY*(18) H   4           s( 12.79%)p 0.59(  7.59%)d 6.23( 79.63%)
   169. (0.00005) RY*(19) H   4           s(  0.00%)p 1.00(  2.01%)d48.84( 97.99%)
   170. (0.00005) RY*(20) H   4           s(  0.00%)p 1.00( 40.44%)d 1.47( 59.56%)
   171. (0.00004) RY*(21) H   4           s(  2.51%)p22.74( 57.14%)d16.06( 40.35%)
   172. (0.00004) RY*(22) H   4           s(  3.13%)p 0.51(  1.59%)d30.39( 95.28%)
   173. (0.05958) BD*( 1) O   1 -Cl   2  
                ( 41.23%)   0.6421* O   1 s( 10.31%)p 8.65( 89.17%)d 0.05(  0.51%)
                                                  f 0.00(  0.02%)
                                           -0.0003 -0.3177  0.0437 -0.0148  0.0006
                                           -0.9424  0.0356  0.0102  0.0126  0.0377
                                            0.0259  0.0047 -0.0007 -0.0000 -0.0000
                                           -0.0000 -0.0000  0.0205  0.0022 -0.0014
                                           -0.0000 -0.0000 -0.0000 -0.0000 -0.0000
                                           -0.0000 -0.0540 -0.0040 -0.0021  0.0409
                                            0.0031 -0.0009 -0.0000 -0.0000  0.0112
                                           -0.0012  0.0001 -0.0001 -0.0000 -0.0000
                                           -0.0000 -0.0000 -0.0062 -0.0013  0.0005
                                           -0.0016
                ( 58.77%)  -0.7666*Cl   2 s(  8.61%)p10.47( 90.13%)d 0.13(  1.14%)
                                                  f 0.01(  0.12%)
                                            0.0000 -0.0005 -0.2886  0.0519  0.0093
                                            0.0033  0.0004  0.9470 -0.0639 -0.0137
                                            0.0035  0.0000  0.0133  0.0026 -0.0030
                                            0.0014 -0.0000 -0.0000 -0.0000 -0.0000
                                           -0.0000 -0.0136  0.0001 -0.0004 -0.0000
                                           -0.0000 -0.0000 -0.0000 -0.0000 -0.0000
                                           -0.0888  0.0109  0.0011  0.0566 -0.0064
                                           -0.0017 -0.0000 -0.0000 -0.0216  0.0031
                                           -0.0006  0.0002 -0.0000 -0.0000 -0.0000
                                           -0.0000  0.0261 -0.0026  0.0019 -0.0004
   174. (0.18840) BD*( 1) O   1 - H   4  
                ( 19.03%)   0.4362* O   1 s( 25.24%)p 2.94( 74.31%)d 0.02(  0.44%)
                                                  f 0.00(  0.01%)
                                            0.0002  0.5023 -0.0073  0.0088  0.0019
                                           -0.2011  0.0157  0.0030  0.0041 -0.8380
                                           -0.0026  0.0047  0.0056 -0.0000 -0.0000
                                           -0.0000 -0.0000 -0.0039 -0.0026 -0.0006
                                           -0.0000 -0.0000 -0.0000 -0.0000 -0.0000
                                           -0.0000 -0.0561 -0.0063 -0.0006 -0.0342
                                           -0.0022  0.0033 -0.0000 -0.0000  0.0018
                                            0.0005  0.0093 -0.0004 -0.0000 -0.0000
                                           -0.0000 -0.0000  0.0023  0.0018 -0.0001
                                            0.0011
                ( 80.97%)  -0.8998* H   4 s( 99.80%)p 0.00(  0.20%)d 0.00(  0.01%)
                                            0.9977  0.0504  0.0095 -0.0019  0.0105
                                            0.0111 -0.0004 -0.0154  0.0361  0.0145
                                           -0.0000 -0.0000 -0.0000  0.0007 -0.0003
                                           -0.0000 -0.0000 -0.0000 -0.0000 -0.0050
                                           -0.0027 -0.0018 -0.0043


 NHO Directionality and "Bond Bending" (deviations from line of nuclear centers)

         [Thresholds for printing:  angular deviation  >  1.0 degree]
                                    hybrid p-character > 25.0%
                                    orbital occupancy  >  0.10e

                                Line of Centers        Hybrid 1              Hybrid 2
                                ---------------  -------------------   ------------------
                NBO               Theta   Phi    Theta   Phi    Dev    Theta   Phi    Dev
 ========================================================================================
     1. BD (   1) O   1 -Cl   2    90.0    0.0    90.0  355.6   4.4      --     --    --
     2. BD (   1) O   1 - H   4    90.0  256.8    90.0  257.9   1.1      --     --    --
    18. LP (   1) O   1             --     --     90.0  114.8   --       --     --    --
    19. LP (   2) O   1             --     --      0.0    0.0   --       --     --    --
    21. LP (   2)Cl   2             --     --      0.0    0.0   --       --     --    --
    22. LP (   3)Cl   2             --     --     90.0   90.0   --       --     --    --
    24. LP (   2) I   3             --     --      0.0    0.0   --       --     --    --
    25. LP (   3) I   3             --     --     90.0  346.6   --       --     --    --
    26. LP (   4) I   3             --     --     90.0   76.7   --       --     --    --
   174. BD*(   1) O   1 - H   4    90.0  256.8    90.0  257.9   1.1      --     --    --


 Natural Bond Orbitals (Summary):

           NBO                  Occupancy  
 -----------------------------------------------
 Molecular unit  1  (HOCl)
     1. BD (   1) O   1 -Cl   2          1.93802
     2. BD (   1) O   1 - H   4          1.95939
     3. CR (   1) O   1                  1.99975
     4. CR (   1)Cl   2                  2.00000
     5. CR (   2)Cl   2                  1.99976
     6. CR (   3)Cl   2                  1.99995
     7. CR (   4)Cl   2                  2.00003
     8. CR (   5)Cl   2                  2.00003
    18. LP (   1) O   1                  1.96620
    19. LP (   2) O   1                  1.95146
    20. LP (   1)Cl   2                  1.97284
    21. LP (   2)Cl   2                  1.95589
    22. LP (   3)Cl   2                  1.95410
    27. RY*(   1) O   1                  0.02054
    28. RY*(   2) O   1                  0.01716
    29. RY*(   3) O   1                  0.00840
    30. RY*(   4) O   1                  0.00710
    31. RY*(   5) O   1                  0.00655
    32. RY*(   6) O   1                  0.00624
    33. RY*(   7) O   1                  0.00577
    34. RY*(   8) O   1                  0.00398
    35. RY*(   9) O   1                  0.00250
    36. RY*(  10) O   1                  0.00084
    37. RY*(  11) O   1                  0.00066
    38. RY*(  12) O   1                  0.00066
    39. RY*(  13) O   1                  0.00059
    40. RY*(  14) O   1                  0.00053
    41. RY*(  15) O   1                  0.00052
    42. RY*(  16) O   1                  0.00049
    43. RY*(  17) O   1                  0.00049
    44. RY*(  18) O   1                  0.00049
    45. RY*(  19) O   1                  0.00045
    46. RY*(  20) O   1                  0.00045
    47. RY*(  21) O   1                  0.00046
    48. RY*(  22) O   1                  0.00043
    49. RY*(  23) O   1                  0.00038
    50. RY*(  24) O   1                  0.00034
    51. RY*(  25) O   1                  0.00026
    52. RY*(  26) O   1                  0.00021
    53. RY*(  27) O   1                  0.00013
    54. RY*(  28) O   1                  0.00013
    55. RY*(  29) O   1                  0.00013
    56. RY*(  30) O   1                  0.00009
    57. RY*(  31) O   1                  0.00008
    58. RY*(  32) O   1                  0.00008
    59. RY*(  33) O   1                  0.00009
    60. RY*(  34) O   1                  0.00007
    61. RY*(  35) O   1                  0.00007
    62. RY*(  36) O   1                  0.00007
    63. RY*(  37) O   1                  0.00008
    64. RY*(  38) O   1                  0.00005
    65. RY*(  39) O   1                  0.00004
    66. RY*(  40) O   1                  0.00003
    67. RY*(  41) O   1                 -0.00003
    68. RY*(   1)Cl   2                  0.02264
    69. RY*(   2)Cl   2                  0.01783
    70. RY*(   3)Cl   2                  0.01682
    71. RY*(   4)Cl   2                  0.01681
    72. RY*(   5)Cl   2                  0.01187
    73. RY*(   6)Cl   2                  0.00933
    74. RY*(   7)Cl   2                  0.00912
    75. RY*(   8)Cl   2                  0.00633
    76. RY*(   9)Cl   2                  0.00175
    77. RY*(  10)Cl   2                  0.00127
    78. RY*(  11)Cl   2                  0.00127
    79. RY*(  12)Cl   2                  0.00120
    80. RY*(  13)Cl   2                  0.00120
    81. RY*(  14)Cl   2                  0.00117
    82. RY*(  15)Cl   2                  0.00111
    83. RY*(  16)Cl   2                  0.00096
    84. RY*(  17)Cl   2                  0.00077
    85. RY*(  18)Cl   2                  0.00078
    86. RY*(  19)Cl   2                  0.00063
    87. RY*(  20)Cl   2                  0.00057
    88. RY*(  21)Cl   2                  0.00047
    89. RY*(  22)Cl   2                  0.00039
    90. RY*(  23)Cl   2                  0.00036
    91. RY*(  24)Cl   2                  0.00032
    92. RY*(  25)Cl   2                  0.00018
    93. RY*(  26)Cl   2                  0.00017
    94. RY*(  27)Cl   2                  0.00016
    95. RY*(  28)Cl   2                  0.00013
    96. RY*(  29)Cl   2                  0.00013
    97. RY*(  30)Cl   2                  0.00013
    98. RY*(  31)Cl   2                  0.00011
    99. RY*(  32)Cl   2                  0.00011
   100. RY*(  33)Cl   2                  0.00010
   101. RY*(  34)Cl   2                  0.00010
   102. RY*(  35)Cl   2                  0.00009
   103. RY*(  36)Cl   2                  0.00010
   104. RY*(  37)Cl   2                  0.00008
   105. RY*(  38)Cl   2                  0.00006
   106. RY*(  39)Cl   2                  0.00004
   107. RY*(  40)Cl   2                  0.00002
   108. RY*(  41)Cl   2                 -0.00000
   151. RY*(   1) H   4                  0.01145
   152. RY*(   2) H   4                  0.00600
   153. RY*(   3) H   4                  0.00472
   154. RY*(   4) H   4                  0.00411
   155. RY*(   5) H   4                  0.00131
   156. RY*(   6) H   4                  0.00064
   157. RY*(   7) H   4                  0.00045
   158. RY*(   8) H   4                  0.00038
   159. RY*(   9) H   4                  0.00032
   160. RY*(  10) H   4                  0.00030
   161. RY*(  11) H   4                  0.00027
   162. RY*(  12) H   4                  0.00027
   163. RY*(  13) H   4                  0.00024
   164. RY*(  14) H   4                  0.00015
   165. RY*(  15) H   4                  0.00012
   166. RY*(  16) H   4                  0.00010
   167. RY*(  17) H   4                  0.00008
   168. RY*(  18) H   4                  0.00005
   169. RY*(  19) H   4                  0.00005
   170. RY*(  20) H   4                  0.00005
   171. RY*(  21) H   4                  0.00004
   172. RY*(  22) H   4                  0.00004
   173. BD*(   1) O   1 -Cl   2          0.05958
   174. BD*(   1) O   1 - H   4          0.18840
       -------------------------------
              Total Lewis   25.69743  ( 98.1160%)
        Valence non-Lewis    0.24799  (  0.9468%)
        Rydberg non-Lewis    0.24545  (  0.9372%)
       -------------------------------
            Total unit  1   26.19087  (100.0000%)
           Charge unit  1   -0.19087

 Molecular unit  2  (I)
     9. CR (   1) I   3                  1.99967
    10. CR (   2) I   3                  1.99997
    11. CR (   3) I   3                  1.99973
    12. CR (   4) I   3                  1.99999
    13. CR (   5) I   3                  1.99668
    14. CR (   6) I   3                  1.99678
    15. CR (   7) I   3                  1.99673
    16. CR (   8) I   3                  1.99654
    17. CR (   9) I   3                  1.99669
    23. LP (   1) I   3                  1.97709
    24. LP (   2) I   3                  1.95152
    25. LP (   3) I   3                  1.95121
    26. LP (   4) I   3                  1.78473
   109. RY*(   1) I   3                  0.02001
   110. RY*(   2) I   3                  0.01997
   111. RY*(   3) I   3                  0.01995
   112. RY*(   4) I   3                  0.01987
   113. RY*(   5) I   3                  0.01861
   114. RY*(   6) I   3                  0.01034
   115. RY*(   7) I   3                  0.01028
   116. RY*(   8) I   3                  0.00842
   117. RY*(   9) I   3                  0.00279
   118. RY*(  10) I   3                  0.00275
   119. RY*(  11) I   3                  0.00276
   120. RY*(  12) I   3                  0.00276
   121. RY*(  13) I   3                  0.00275
   122. RY*(  14) I   3                  0.00265
   123. RY*(  15) I   3                  0.00266
   124. RY*(  16) I   3                  0.00212
   125. RY*(  17) I   3                  0.00163
   126. RY*(  18) I   3                  0.00164
   127. RY*(  19) I   3                  0.00127
   128. RY*(  20) I   3                  0.00122
   129. RY*(  21) I   3                  0.00103
   130. RY*(  22) I   3                  0.00070
   131. RY*(  23) I   3                  0.00070
   132. RY*(  24) I   3                  0.00055
   133. RY*(  25) I   3                  0.00048
   134. RY*(  26) I   3                  0.00044
   135. RY*(  27) I   3                  0.00042
   136. RY*(  28) I   3                  0.00043
   137. RY*(  29) I   3                  0.00041
   138. RY*(  30) I   3                  0.00039
   139. RY*(  31) I   3                  0.00036
   140. RY*(  32) I   3                  0.00029
   141. RY*(  33) I   3                  0.00020
   142. RY*(  34) I   3                  0.00018
   143. RY*(  35) I   3                  0.00013
   144. RY*(  36) I   3                  0.00013
   145. RY*(  37) I   3                  0.00012
   146. RY*(  38) I   3                  0.00010
   147. RY*(  39) I   3                  0.00010
   148. RY*(  40) I   3                  0.00008
   149. RY*(  41) I   3                  0.00006
   150. RY*(  42) I   3                  0.00001
       -------------------------------
              Total Lewis   53.64734  ( 99.6993%)
        Valence non-Lewis    0.00000  (  0.0000%)
        Rydberg non-Lewis    0.16179  (  0.3007%)
       -------------------------------
            Total unit  2   53.80913  (100.0000%)
           Charge unit  2   -0.80913
 Leave Link  607 at Tue Oct 12 15:36:01 2021, MaxMem=  1048576000 cpu:         9.7
 (Enter /usr/local/gaussian/g09/l9999.exe)
 1\1\GINC-KRYPTON\SP\RMP2-FC\Gen\Cl1H1I1O1(1-)\CGAVINH\12-Oct-2021\0\\#
 p pop=NBO SP NoSymm mp2/gen Pseudo=read density=current\\title\\-1,1\O
 \X,1,10.\Cl,1,1.68652173,2,90.\I,1,3.31229946,2,90.,3,103.24540347,0\H
 ,1,1.1,2,90.,3,103.24540347,0\\Version=ES64L-G09RevE.01\HF=-829.675974
 6\MP2=-830.364617\RMSD=3.088e-09\Dipole=1.0782315,1.2643225,0.\Quadrup
 ole=8.1127794,-18.116082,10.0033026,-6.930139,0.,0.\PG=CS [SG(Cl1H1I1O
 1)]\\@


 HE THAT RISETH LATE MUST TROT ALL DAY.

                  -- BENJAMIN FRANKLIN
 Job cpu time:       0 days  0 hours  2 minutes 37.7 seconds.
 File lengths (MBytes):  RWF=     13 Int=      0 D2E=      0 Chk=      3 Scr=      1
 Normal termination of Gaussian 09 at Tue Oct 12 15:36:01 2021.
