 Entering Gaussian System, Link 0=g09
 Input=ihocl_rOH_140_sp.gjf
 Output=ihocl_rOH_140_sp.log
 Initial command:
 /usr/local/gaussian/g09/l1.exe "/scratch/Gau-27445.inp" -scrdir="/scratch/"
 Entering Link 1 = /usr/local/gaussian/g09/l1.exe PID=     27446.
  
 Copyright (c) 1988,1990,1992,1993,1995,1998,2003,2009,2015,
            Gaussian, Inc.  All Rights Reserved.
  
 This is part of the Gaussian(R) 09 program.  It is based on
 the Gaussian(R) 03 system (copyright 2003, Gaussian, Inc.),
 the Gaussian(R) 98 system (copyright 1998, Gaussian, Inc.),
 the Gaussian(R) 94 system (copyright 1995, Gaussian, Inc.),
 the Gaussian 92(TM) system (copyright 1992, Gaussian, Inc.),
 the Gaussian 90(TM) system (copyright 1990, Gaussian, Inc.),
 the Gaussian 88(TM) system (copyright 1988, Gaussian, Inc.),
 the Gaussian 86(TM) system (copyright 1986, Carnegie Mellon
 University), and the Gaussian 82(TM) system (copyright 1983,
 Carnegie Mellon University). Gaussian is a federally registered
 trademark of Gaussian, Inc.
  
 This software contains proprietary and confidential information,
 including trade secrets, belonging to Gaussian, Inc.
  
 This software is provided under written license and may be
 used, copied, transmitted, or stored only in accord with that
 written license.
  
 The following legend is applicable only to US Government
 contracts under FAR:
  
                    RESTRICTED RIGHTS LEGEND
  
 Use, reproduction and disclosure by the US Government is
 subject to restrictions as set forth in subparagraphs (a)
 and (c) of the Commercial Computer Software - Restricted
 Rights clause in FAR 52.227-19.
  
 Gaussian, Inc.
 340 Quinnipiac St., Bldg. 40, Wallingford CT 06492
  
  
 ---------------------------------------------------------------
 Warning -- This program may not be used in any manner that
 competes with the business of Gaussian, Inc. or will provide
 assistance to any competitor of Gaussian, Inc.  The licensee
 of this program is prohibited from giving any competitor of
 Gaussian, Inc. access to this program.  By using this program,
 the user acknowledges that Gaussian, Inc. is engaged in the
 business of creating and licensing software in the field of
 computational chemistry and represents and warrants to the
 licensee that it is not a competitor of Gaussian, Inc. and that
 it will not use this program in any manner prohibited above.
 ---------------------------------------------------------------
  

 Cite this work as:
 Gaussian 09, Revision E.01,
 M. J. Frisch, G. W. Trucks, H. B. Schlegel, G. E. Scuseria, 
 M. A. Robb, J. R. Cheeseman, G. Scalmani, V. Barone, B. Mennucci, 
 G. A. Petersson, H. Nakatsuji, M. Caricato, X. Li, H. P. Hratchian, 
 A. F. Izmaylov, J. Bloino, G. Zheng, J. L. Sonnenberg, M. Hada, 
 M. Ehara, K. Toyota, R. Fukuda, J. Hasegawa, M. Ishida, T. Nakajima, 
 Y. Honda, O. Kitao, H. Nakai, T. Vreven, J. A. Montgomery, Jr., 
 J. E. Peralta, F. Ogliaro, M. Bearpark, J. J. Heyd, E. Brothers, 
 K. N. Kudin, V. N. Staroverov, T. Keith, R. Kobayashi, J. Normand, 
 K. Raghavachari, A. Rendell, J. C. Burant, S. S. Iyengar, J. Tomasi, 
 M. Cossi, N. Rega, J. M. Millam, M. Klene, J. E. Knox, J. B. Cross, 
 V. Bakken, C. Adamo, J. Jaramillo, R. Gomperts, R. E. Stratmann, 
 O. Yazyev, A. J. Austin, R. Cammi, C. Pomelli, J. W. Ochterski, 
 R. L. Martin, K. Morokuma, V. G. Zakrzewski, G. A. Voth, 
 P. Salvador, J. J. Dannenberg, S. Dapprich, A. D. Daniels, 
 O. Farkas, J. B. Foresman, J. V. Ortiz, J. Cioslowski, 
 and D. J. Fox, Gaussian, Inc., Wallingford CT, 2013.
 
 ******************************************
 Gaussian 09:  ES64L-G09RevE.01 30-Nov-2015
                12-Oct-2021 
 ******************************************
 %nproc=12
 Will use up to   12 processors via shared memory.
 %mem=8000MB
 %chk=/home/netid.washington.edu/cgavinh/mccoy_hocl/rOH_s_oop_0/ihocl/ihocl_rOH_1
 40_sp.chk
 --------------------------------------------------------
 #p pop=NBO SP NoSymm mp2/gen Pseudo=read density=current
 --------------------------------------------------------
 1/30=1,38=1/1;
 2/12=2,15=1,17=6,18=5,40=1/2;
 3/5=7,11=9,16=1,17=8,25=1,30=1,71=1/1,2,3;
 4//1;
 5/5=2,38=5/2;
 8/6=4,10=1/1;
 9/15=1,16=-3/6;
 10/5=1,13=10,31=1/2;
 6/7=2,8=2,9=2,10=2,22=-1,40=1/1,7;
 99/5=1,9=1/99;
 Leave Link    1 at Tue Oct 12 15:37:27 2021, MaxMem=  1048576000 cpu:         0.2
 (Enter /usr/local/gaussian/g09/l101.exe)
 -----
 title
 -----
 Symbolic Z-matrix:
 Charge = -1 Multiplicity = 1
 O
 X                    1     10. 
 Cl                   1    r1       2     90. 
 I                    1    r2       2     90.      3    a1       0
 H                    1    r3       2    oop      3    a1       0
       Variables:
  r1                    1.68652                  
  r2                    3.3123                   
  r3                    1.4                      
  a1                  103.2454                   
  OOP                  90.                       
 
 NAtoms=      4 NQM=        4 NQMF=       0 NMMI=      0 NMMIF=      0
                NMic=       0 NMicF=      0.
                    Isotopes and Nuclear Properties:
 (Nuclear quadrupole moments (NQMom) in fm**2, nuclear magnetic moments (NMagM)
  in nuclear magnetons)

  Atom         1           2           3           4
 IAtWgt=          16          35         127           1
 AtmWgt=  15.9949146  34.9688527 126.9004000   1.0078250
 NucSpn=           0           3           5           1
 AtZEff=   0.0000000   0.0000000   0.0000000   0.0000000
 NQMom=    0.0000000  -8.1650000 -71.0000000   0.0000000
 NMagM=    0.0000000   0.8218740   2.8132800   2.7928460
 AtZNuc=   8.0000000  17.0000000  53.0000000   1.0000000
 Leave Link  101 at Tue Oct 12 15:37:27 2021, MaxMem=  1048576000 cpu:         0.5
 (Enter /usr/local/gaussian/g09/l202.exe)
                          Input orientation:                          
 ---------------------------------------------------------------------
 Center     Atomic      Atomic             Coordinates (Angstroms)
 Number     Number       Type             X           Y           Z
 ---------------------------------------------------------------------
      1          8           0        0.000000    0.000000    0.000000
      2         17           0        1.686522    0.000000    0.000000
      3         53           0       -0.758922   -3.224184    0.000000
      4          1           0       -0.320771   -1.362757    0.000000
 ---------------------------------------------------------------------
                    Distance matrix (angstroms):
                    1          2          3          4
     1  O    0.000000
     2  Cl   1.686522   0.000000
     3  I    3.312299   4.046673   0.000000
     4  H    1.400000   2.426176   1.912299   0.000000
 Symmetry turned off by external request.
 Stoichiometry    ClHIO(1-)
 Framework group  CS[SG(ClHIO)]
 Deg. of freedom     5
 Full point group                 CS      NOp   2
 Rotational constants (GHZ):     21.9303101      0.9708507      0.9296933
 Leave Link  202 at Tue Oct 12 15:37:27 2021, MaxMem=  1048576000 cpu:         0.0
 (Enter /usr/local/gaussian/g09/l301.exe)
 General basis read from cards:  (5D, 7F)
 Centers:       4      1      2
 aug-cc-pVTZ
 ****
 Centers:       3
 S 11 1.00
     Exponent=  5.5465000000D+03 Coefficients=  1.5600000000D-04
     Exponent=  8.3821400000D+02 Coefficients=  9.8600000000D-04
     Exponent=  1.8218700000D+02 Coefficients=  2.7920000000D-03
     Exponent=  3.1212300000D+01 Coefficients= -4.3251000000D-02
     Exponent=  1.9531400000D+01 Coefficients=  2.3413400000D-01
     Exponent=  8.2409900000D+00 Coefficients= -7.5094300000D-01
     Exponent=  2.1945500000D+00 Coefficients=  8.8296800000D-01
     Exponent=  1.1091100000D+00 Coefficients=  4.6206100000D-01
     Exponent=  3.7464100000D-01 Coefficients=  2.2286000000D-02
     Exponent=  1.7708000000D-01 Coefficients= -4.3530000000D-03
     Exponent=  8.1061000000D-02 Coefficients=  1.1020000000D-03
 S 11 1.00
     Exponent=  5.5465000000D+03 Coefficients= -7.3000000000D-05
     Exponent=  8.3821400000D+02 Coefficients= -5.0800000000D-04
     Exponent=  1.8218700000D+02 Coefficients= -1.1580000000D-03
     Exponent=  3.1212300000D+01 Coefficients=  1.2193000000D-02
     Exponent=  1.9531400000D+01 Coefficients= -8.7854000000D-02
     Exponent=  8.2409900000D+00 Coefficients=  3.3820000000D-01
     Exponent=  2.1945500000D+00 Coefficients= -5.7655000000D-01
     Exponent=  1.1091100000D+00 Coefficients= -4.0929800000D-01
     Exponent=  3.7464100000D-01 Coefficients=  5.6745900000D-01
     Exponent=  1.7708000000D-01 Coefficients=  6.1248900000D-01
     Exponent=  8.1061000000D-02 Coefficients=  1.4323100000D-01
 S 1 1.00
     Exponent=  3.7464100000D-01 Coefficients=  1.0000000000D+00
 S 1 1.00
     Exponent=  1.7708000000D-01 Coefficients=  1.0000000000D+00
 S 1 1.00
     Exponent=  1.0010000000D-01 Coefficients=  1.0000000000D+00
 S 1 1.00
     Exponent=  4.1200000000D-02 Coefficients=  1.0000000000D+00
 P 9 1.00
     Exponent=  1.8898800000D+02 Coefficients=  5.8500000000D-04
     Exponent=  2.1286800000D+01 Coefficients=  3.6923000000D-02
     Exponent=  1.0039600000D+01 Coefficients= -2.3532400000D-01
     Exponent=  3.4518000000D+00 Coefficients=  3.4148300000D-01
     Exponent=  1.9745600000D+00 Coefficients=  5.3478800000D-01
     Exponent=  1.0242000000D+00 Coefficients=  2.6514100000D-01
     Exponent=  4.4943700000D-01 Coefficients=  2.5787000000D-02
     Exponent=  1.8664800000D-01 Coefficients=  5.2200000000D-04
     Exponent=  7.3481000000D-02 Coefficients=  6.0600000000D-04
 P 9 1.00
     Exponent=  1.8898800000D+02 Coefficients= -2.5600000000D-04
     Exponent=  2.1286800000D+01 Coefficients= -1.1682000000D-02
     Exponent=  1.0039600000D+01 Coefficients=  8.3192000000D-02
     Exponent=  3.4518000000D+00 Coefficients= -1.5697000000D-01
     Exponent=  1.9745600000D+00 Coefficients= -2.2451800000D-01
     Exponent=  1.0242000000D+00 Coefficients= -1.1445100000D-01
     Exponent=  4.4943700000D-01 Coefficients=  3.7535600000D-01
     Exponent=  1.8664800000D-01 Coefficients=  5.7513600000D-01
     Exponent=  7.3481000000D-02 Coefficients=  2.4591700000D-01
 P 1 1.00
     Exponent=  5.9810000000D-01 Coefficients=  1.0000000000D+00
 P 1 1.00
     Exponent=  9.6180000000D-02 Coefficients=  1.0000000000D+00
 P 1 1.00
     Exponent=  3.5900000000D-02 Coefficients=  1.0000000000D+00
 D 9 1.00
     Exponent=  1.3266200000D+02 Coefficients=  5.7200000000D-04
     Exponent=  3.7605400000D+01 Coefficients=  4.4020000000D-03
     Exponent=  1.0389100000D+01 Coefficients= -4.0922000000D-02
     Exponent=  6.4901700000D+00 Coefficients=  9.9661000000D-02
     Exponent=  3.4545100000D+00 Coefficients=  3.2266300000D-01
     Exponent=  1.8441300000D+00 Coefficients=  4.0034300000D-01
     Exponent=  9.6247800000D-01 Coefficients=  2.6830600000D-01
     Exponent=  4.7285300000D-01 Coefficients=  8.4847000000D-02
     Exponent=  1.9320000000D-01 Coefficients=  7.6320000000D-03
 D 1 1.00
     Exponent=  4.7285300000D-01 Coefficients=  1.0000000000D+00
 D 1 1.00
     Exponent=  1.9320000000D-01 Coefficients=  1.0000000000D+00
 D 1 1.00
     Exponent=  7.8200000000D-02 Coefficients=  1.0000000000D+00
 F 1 1.00
     Exponent=  4.0640000000D-01 Coefficients=  1.0000000000D+00
 F 1 1.00
     Exponent=  1.8480000000D-01 Coefficients=  1.0000000000D+00
 ****
 ======================================================================================================
                                       Pseudopotential Parameters
 ======================================================================================================
  Center     Atomic      Valence      Angular      Power
  Number     Number     Electrons     Momentum     of R      Exponent        Coefficient   SO-Coeffient
 ======================================================================================================
    1          8
                                   No pseudopotential on this center.
    2         17
                                   No pseudopotential on this center.
    3         53           25
                                      G and up 
                                                     2        1.0000000        0.00000000    0.00000000
                                      S - G
                                                     2       40.0333760       49.98964900    0.00000000
                                                     2       17.3005760      281.00655600    0.00000000
                                                     2        8.8517200       61.41673900    0.00000000
                                      P - G
                                                     2       15.7201410       67.41623900    0.00000000
                                                     2       15.2082220      134.80769600    0.00000000
                                                     2        8.2941860       14.56654800    0.00000000
                                                     2        7.7539490       28.96842200    0.00000000
                                      D - G
                                                     2       13.8177510       35.53875600    0.00000000
                                                     2       13.5878050       53.33975900    0.00000000
                                                     2        6.9476300        9.71646600    0.00000000
                                                     2        6.9600990       14.97750000    0.00000000
                                      F - G
                                                     2       18.5229500      -20.17661800    0.00000000
                                                     2       18.2510350      -26.08807700    0.00000000
                                                     2        7.5579010       -0.22043400    0.00000000
                                                     2        7.5974040       -0.22164600    0.00000000
    4          1
                                   No pseudopotential on this center.
 ======================================================================================================
 Ernie: Thresh=  0.10000D-02 Tol=  0.10000D-05 Strict=F.
 Ernie:  23 primitive shells out of 166 were deleted.
   174 basis functions,   383 primitive gaussians,   204 cartesian basis functions
    26 alpha electrons       26 beta electrons
       nuclear repulsion energy       143.8512017436 Hartrees.
 IExCor=    0 DFT=F Ex=HF Corr=None ExCW=0 ScaHFX=  1.000000
 ScaDFX=  1.000000  1.000000  1.000000  1.000000 ScalE2=  1.000000  1.000000
 IRadAn=      0 IRanWt=     -1 IRanGd=            0 ICorTp=0 IEmpDi=  4
 NAtoms=    4 NActive=    4 NUniq=    4 SFac= 1.00D+00 NAtFMM=   60 NAOKFM=F Big=F
 Integral buffers will be    131072 words long.
 Raffenetti 1 integral format.
 Two-electron integral symmetry is turned off.
 Leave Link  301 at Tue Oct 12 15:37:27 2021, MaxMem=  1048576000 cpu:         0.6
 (Enter /usr/local/gaussian/g09/l302.exe)
 NPDir=0 NMtPBC=     1 NCelOv=     1 NCel=       1 NClECP=     1 NCelD=      1
         NCelK=      1 NCelE2=     1 NClLst=     1 CellRange=     0.0.
 One-electron integrals computed using PRISM.
   1 Symmetry operations used in ECPInt.
 ECPInt:  NShTT=    1596 NPrTT=   10643 LenC2=    1597 LenP2D=    8418.
 LDataN:  DoStor=T MaxTD1= 7 Len=  274
 NBasis=   174 RedAO= T EigKep=  1.47D-04  NBF=   174
 NBsUse=   174 1.00D-06 EigRej= -1.00D+00 NBFU=   174
 Leave Link  302 at Tue Oct 12 15:37:27 2021, MaxMem=  1048576000 cpu:         2.8
 (Enter /usr/local/gaussian/g09/l303.exe)
 DipDrv:  MaxL=1.
 Leave Link  303 at Tue Oct 12 15:37:27 2021, MaxMem=  1048576000 cpu:         0.2
 (Enter /usr/local/gaussian/g09/l401.exe)
 ExpMin= 2.53D-02 ExpMax= 4.56D+05 ExpMxC= 1.44D+03 IAcc=3 IRadAn=         5 AccDes= 0.00D+00
 Harris functional with IExCor=  205 and IRadAn=       5 diagonalized for initial guess.
 HarFok:  IExCor=  205 AccDes= 0.00D+00 IRadAn=         5 IDoV= 1 UseB2=F ITyADJ=14
 ICtDFT=  3500011 ScaDFX=  1.000000  1.000000  1.000000  1.000000
 Defaulting to unpruned grid for atomic number  53.
 Defaulting to unpruned grid for atomic number  53.
 Defaulting to unpruned grid for atomic number  53.
 Defaulting to unpruned grid for atomic number  53.
 Defaulting to unpruned grid for atomic number  53.
 Defaulting to unpruned grid for atomic number  53.
 Defaulting to unpruned grid for atomic number  53.
 Defaulting to unpruned grid for atomic number  53.
 Defaulting to unpruned grid for atomic number  53.
 Defaulting to unpruned grid for atomic number  53.
 Defaulting to unpruned grid for atomic number  53.
 Defaulting to unpruned grid for atomic number  53.
 FoFCou: FMM=F IPFlag=           0 FMFlag=      100000 FMFlg1=           0
         NFxFlg=           0 DoJE=T BraDBF=F KetDBF=T FulRan=T
         wScrn=  0.000000 ICntrl=     500 IOpCl=  0 I1Cent=   200000004 NGrid=           0
         NMat0=    1 NMatS0=      1 NMatT0=    0 NMatD0=    1 NMtDS0=    0 NMtDT0=    0
 Symmetry not used in FoFCou.
 Harris En= -831.028059760851    
 JPrj=0 DoOrth=F DoCkMO=F.
 Leave Link  401 at Tue Oct 12 15:37:28 2021, MaxMem=  1048576000 cpu:         3.1
 (Enter /usr/local/gaussian/g09/l502.exe)
 Closed shell SCF:
 Using DIIS extrapolation, IDIIS=  1040.
 Two-electron integral symmetry not used.
 Keep R1 ints in memory in canonical form, NReq=124441211.
 IVT=      147078 IEndB=      147078 NGot=  1048576000 MDV=   932520998
 LenX=   932520998 LenY=   932478941
 Requested convergence on RMS density matrix=1.00D-08 within 128 cycles.
 Requested convergence on MAX density matrix=1.00D-06.
 Requested convergence on             energy=1.00D-06.
 No special actions if energy rises.
 FoFCou: FMM=F IPFlag=           0 FMFlag=           0 FMFlg1=           0
         NFxFlg=           0 DoJE=F BraDBF=F KetDBF=F FulRan=T
         wScrn=  0.000000 ICntrl=     600 IOpCl=  0 I1Cent=           0 NGrid=           0
         NMat0=    1 NMatS0=  15225 NMatT0=    0 NMatD0=    1 NMtDS0=    0 NMtDT0=    0
 Symmetry not used in FoFCou.

 Cycle   1  Pass 1  IDiag  1:
 E= -829.463704686555    
 DIIS: error= 2.92D-02 at cycle   1 NSaved=   1.
 NSaved= 1 IEnMin= 1 EnMin= -829.463704686555     IErMin= 1 ErrMin= 2.92D-02
 ErrMax= 2.92D-02  0.00D+00 EMaxC= 1.00D-01 BMatC= 4.83D-01 BMatP= 4.83D-01
 IDIUse=3 WtCom= 7.08D-01 WtEn= 2.92D-01
 Coeff-Com:  0.100D+01
 Coeff-En:   0.100D+01
 Coeff:      0.100D+01
 Gap=     0.529 Goal=   None    Shift=    0.000
 GapD=    0.529 DampG=2.000 DampE=0.500 DampFc=1.0000 IDamp=-1.
 RMSDP=4.30D-03 MaxDP=1.80D-01              OVMax= 1.44D-01

 Cycle   2  Pass 1  IDiag  1:
 E= -829.566538407546     Delta-E=       -0.102833720991 Rises=F Damp=F
 DIIS: error= 2.62D-02 at cycle   2 NSaved=   2.
 NSaved= 2 IEnMin= 2 EnMin= -829.566538407546     IErMin= 2 ErrMin= 2.62D-02
 ErrMax= 2.62D-02  0.00D+00 EMaxC= 1.00D-01 BMatC= 9.57D-02 BMatP= 4.83D-01
 IDIUse=3 WtCom= 7.38D-01 WtEn= 2.62D-01
 Coeff-Com:  0.257D+00 0.743D+00
 Coeff-En:   0.113D+00 0.887D+00
 Coeff:      0.219D+00 0.781D+00
 Gap=     0.413 Goal=   None    Shift=    0.000
 RMSDP=2.05D-03 MaxDP=9.31D-02 DE=-1.03D-01 OVMax= 1.04D-01

 Cycle   3  Pass 1  IDiag  1:
 E= -829.617560336746     Delta-E=       -0.051021929200 Rises=F Damp=F
 DIIS: error= 1.17D-02 at cycle   3 NSaved=   3.
 NSaved= 3 IEnMin= 3 EnMin= -829.617560336746     IErMin= 3 ErrMin= 1.17D-02
 ErrMax= 1.17D-02  0.00D+00 EMaxC= 1.00D-01 BMatC= 2.47D-02 BMatP= 9.57D-02
 IDIUse=3 WtCom= 8.83D-01 WtEn= 1.17D-01
 Coeff-Com:  0.451D-02 0.332D+00 0.664D+00
 Coeff-En:   0.000D+00 0.142D+00 0.858D+00
 Coeff:      0.398D-02 0.309D+00 0.687D+00
 Gap=     0.342 Goal=   None    Shift=    0.000
 RMSDP=5.48D-04 MaxDP=2.96D-02 DE=-5.10D-02 OVMax= 4.70D-02

 Cycle   4  Pass 1  IDiag  1:
 E= -829.635262596427     Delta-E=       -0.017702259682 Rises=F Damp=F
 DIIS: error= 1.91D-03 at cycle   4 NSaved=   4.
 NSaved= 4 IEnMin= 4 EnMin= -829.635262596427     IErMin= 4 ErrMin= 1.91D-03
 ErrMax= 1.91D-03  0.00D+00 EMaxC= 1.00D-01 BMatC= 4.14D-04 BMatP= 2.47D-02
 IDIUse=3 WtCom= 9.81D-01 WtEn= 1.91D-02
 Coeff-Com: -0.119D-01 0.453D-02 0.117D+00 0.890D+00
 Coeff-En:   0.000D+00 0.000D+00 0.000D+00 0.100D+01
 Coeff:     -0.117D-01 0.444D-02 0.115D+00 0.893D+00
 Gap=     0.346 Goal=   None    Shift=    0.000
 RMSDP=1.21D-04 MaxDP=6.47D-03 DE=-1.77D-02 OVMax= 5.24D-03

 Cycle   5  Pass 1  IDiag  1:
 E= -829.635676887368     Delta-E=       -0.000414290941 Rises=F Damp=F
 DIIS: error= 2.45D-04 at cycle   5 NSaved=   5.
 NSaved= 5 IEnMin= 5 EnMin= -829.635676887368     IErMin= 5 ErrMin= 2.45D-04
 ErrMax= 2.45D-04  0.00D+00 EMaxC= 1.00D-01 BMatC= 2.58D-05 BMatP= 4.14D-04
 IDIUse=3 WtCom= 9.98D-01 WtEn= 2.45D-03
 Coeff-Com:  0.223D-02-0.292D-01-0.674D-01-0.693D-01 0.116D+01
 Coeff-En:   0.000D+00 0.000D+00 0.000D+00 0.000D+00 0.100D+01
 Coeff:      0.223D-02-0.291D-01-0.672D-01-0.691D-01 0.116D+01
 Gap=     0.345 Goal=   None    Shift=    0.000
 RMSDP=5.86D-05 MaxDP=2.74D-03 DE=-4.14D-04 OVMax= 4.21D-03

 Cycle   6  Pass 1  IDiag  1:
 E= -829.635745205739     Delta-E=       -0.000068318371 Rises=F Damp=F
 DIIS: error= 1.14D-04 at cycle   6 NSaved=   6.
 NSaved= 6 IEnMin= 6 EnMin= -829.635745205739     IErMin= 6 ErrMin= 1.14D-04
 ErrMax= 1.14D-04  0.00D+00 EMaxC= 1.00D-01 BMatC= 3.38D-06 BMatP= 2.58D-05
 IDIUse=3 WtCom= 9.99D-01 WtEn= 1.14D-03
 Coeff-Com:  0.323D-03 0.882D-02 0.119D-01-0.856D-01-0.334D+00 0.140D+01
 Coeff-En:   0.000D+00 0.000D+00 0.000D+00 0.000D+00 0.000D+00 0.100D+01
 Coeff:      0.322D-03 0.881D-02 0.118D-01-0.855D-01-0.334D+00 0.140D+01
 Gap=     0.345 Goal=   None    Shift=    0.000
 RMSDP=2.34D-05 MaxDP=8.10D-04 DE=-6.83D-05 OVMax= 2.24D-03

 Cycle   7  Pass 1  IDiag  1:
 E= -829.635758201763     Delta-E=       -0.000012996024 Rises=F Damp=F
 DIIS: error= 3.92D-05 at cycle   7 NSaved=   7.
 NSaved= 7 IEnMin= 7 EnMin= -829.635758201763     IErMin= 7 ErrMin= 3.92D-05
 ErrMax= 3.92D-05  0.00D+00 EMaxC= 1.00D-01 BMatC= 2.94D-07 BMatP= 3.38D-06
 IDIUse=1 WtCom= 1.00D+00 WtEn= 0.00D+00
 Coeff-Com: -0.268D-03 0.165D-02 0.541D-02 0.187D-01-0.747D-01-0.200D+00
 Coeff-Com:  0.125D+01
 Coeff:     -0.268D-03 0.165D-02 0.541D-02 0.187D-01-0.747D-01-0.200D+00
 Coeff:      0.125D+01
 Gap=     0.346 Goal=   None    Shift=    0.000
 RMSDP=7.86D-06 MaxDP=2.91D-04 DE=-1.30D-05 OVMax= 7.81D-04

 Cycle   8  Pass 1  IDiag  1:
 E= -829.635759501450     Delta-E=       -0.000001299687 Rises=F Damp=F
 DIIS: error= 1.25D-05 at cycle   8 NSaved=   8.
 NSaved= 8 IEnMin= 8 EnMin= -829.635759501450     IErMin= 8 ErrMin= 1.25D-05
 ErrMax= 1.25D-05  0.00D+00 EMaxC= 1.00D-01 BMatC= 3.74D-08 BMatP= 2.94D-07
 IDIUse=1 WtCom= 1.00D+00 WtEn= 0.00D+00
 Coeff-Com: -0.156D-04-0.129D-02-0.155D-02 0.128D-01 0.447D-01-0.210D+00
 Coeff-Com:  0.973D-01 0.106D+01
 Coeff:     -0.156D-04-0.129D-02-0.155D-02 0.128D-01 0.447D-01-0.210D+00
 Coeff:      0.973D-01 0.106D+01
 Gap=     0.346 Goal=   None    Shift=    0.000
 RMSDP=2.82D-06 MaxDP=1.46D-04 DE=-1.30D-06 OVMax= 2.15D-04

 Cycle   9  Pass 1  IDiag  1:
 E= -829.635759619424     Delta-E=       -0.000000117973 Rises=F Damp=F
 DIIS: error= 3.23D-06 at cycle   9 NSaved=   9.
 NSaved= 9 IEnMin= 9 EnMin= -829.635759619424     IErMin= 9 ErrMin= 3.23D-06
 ErrMax= 3.23D-06  0.00D+00 EMaxC= 1.00D-01 BMatC= 3.00D-09 BMatP= 3.74D-08
 IDIUse=1 WtCom= 1.00D+00 WtEn= 0.00D+00
 Coeff-Com:  0.190D-04 0.835D-04-0.729D-04-0.455D-02-0.225D-02 0.561D-01
 Coeff-Com: -0.122D+00-0.200D+00 0.127D+01
 Coeff:      0.190D-04 0.835D-04-0.729D-04-0.455D-02-0.225D-02 0.561D-01
 Coeff:     -0.122D+00-0.200D+00 0.127D+01
 Gap=     0.346 Goal=   None    Shift=    0.000
 RMSDP=1.10D-06 MaxDP=6.26D-05 DE=-1.18D-07 OVMax= 6.78D-05

 Cycle  10  Pass 1  IDiag  1:
 E= -829.635759630894     Delta-E=       -0.000000011471 Rises=F Damp=F
 DIIS: error= 1.46D-06 at cycle  10 NSaved=  10.
 NSaved=10 IEnMin=10 EnMin= -829.635759630894     IErMin=10 ErrMin= 1.46D-06
 ErrMax= 1.46D-06  0.00D+00 EMaxC= 1.00D-01 BMatC= 3.67D-10 BMatP= 3.00D-09
 IDIUse=1 WtCom= 1.00D+00 WtEn= 0.00D+00
 Coeff-Com: -0.375D-06 0.111D-03 0.118D-03-0.549D-03-0.358D-02 0.120D-01
 Coeff-Com:  0.644D-02-0.641D-01-0.187D+00 0.124D+01
 Coeff:     -0.375D-06 0.111D-03 0.118D-03-0.549D-03-0.358D-02 0.120D-01
 Coeff:      0.644D-02-0.641D-01-0.187D+00 0.124D+01
 Gap=     0.346 Goal=   None    Shift=    0.000
 RMSDP=3.10D-07 MaxDP=1.15D-05 DE=-1.15D-08 OVMax= 2.52D-05

 Cycle  11  Pass 1  IDiag  1:
 E= -829.635759632575     Delta-E=       -0.000000001681 Rises=F Damp=F
 DIIS: error= 6.33D-07 at cycle  11 NSaved=  11.
 NSaved=11 IEnMin=11 EnMin= -829.635759632575     IErMin=11 ErrMin= 6.33D-07
 ErrMax= 6.33D-07  0.00D+00 EMaxC= 1.00D-01 BMatC= 8.44D-11 BMatP= 3.67D-10
 IDIUse=1 WtCom= 1.00D+00 WtEn= 0.00D+00
 Coeff-Com: -0.350D-05-0.325D-04-0.148D-04 0.107D-02 0.936D-03-0.131D-01
 Coeff-Com:  0.227D-01 0.514D-01-0.233D+00-0.171D+00 0.134D+01
 Coeff:     -0.350D-05-0.325D-04-0.148D-04 0.107D-02 0.936D-03-0.131D-01
 Coeff:      0.227D-01 0.514D-01-0.233D+00-0.171D+00 0.134D+01
 Gap=     0.346 Goal=   None    Shift=    0.000
 RMSDP=1.64D-07 MaxDP=3.65D-06 DE=-1.68D-09 OVMax= 1.60D-05

 Cycle  12  Pass 1  IDiag  1:
 E= -829.635759633005     Delta-E=       -0.000000000429 Rises=F Damp=F
 DIIS: error= 2.54D-07 at cycle  12 NSaved=  12.
 NSaved=12 IEnMin=12 EnMin= -829.635759633005     IErMin=12 ErrMin= 2.54D-07
 ErrMax= 2.54D-07  0.00D+00 EMaxC= 1.00D-01 BMatC= 1.06D-11 BMatP= 8.44D-11
 IDIUse=1 WtCom= 1.00D+00 WtEn= 0.00D+00
 Coeff-Com: -0.103D-06-0.971D-05-0.202D-05-0.406D-04 0.255D-03 0.797D-05
 Coeff-Com: -0.368D-02 0.402D-02 0.547D-01-0.164D+00-0.196D+00 0.131D+01
 Coeff:     -0.103D-06-0.971D-05-0.202D-05-0.406D-04 0.255D-03 0.797D-05
 Coeff:     -0.368D-02 0.402D-02 0.547D-01-0.164D+00-0.196D+00 0.131D+01
 Gap=     0.346 Goal=   None    Shift=    0.000
 RMSDP=7.03D-08 MaxDP=1.70D-06 DE=-4.29D-10 OVMax= 6.80D-06

 Cycle  13  Pass 1  IDiag  1:
 E= -829.635759633065     Delta-E=       -0.000000000060 Rises=F Damp=F
 DIIS: error= 1.23D-07 at cycle  13 NSaved=  13.
 NSaved=13 IEnMin=13 EnMin= -829.635759633065     IErMin=13 ErrMin= 1.23D-07
 ErrMax= 1.23D-07  0.00D+00 EMaxC= 1.00D-01 BMatC= 1.54D-12 BMatP= 1.06D-11
 IDIUse=1 WtCom= 1.00D+00 WtEn= 0.00D+00
 Coeff-Com:  0.545D-06 0.460D-05-0.601D-06-0.101D-03-0.133D-03 0.127D-02
 Coeff-Com: -0.128D-02-0.573D-02 0.390D-02 0.889D-01-0.114D+00-0.444D+00
 Coeff-Com:  0.147D+01
 Coeff:      0.545D-06 0.460D-05-0.601D-06-0.101D-03-0.133D-03 0.127D-02
 Coeff:     -0.128D-02-0.573D-02 0.390D-02 0.889D-01-0.114D+00-0.444D+00
 Coeff:      0.147D+01
 Gap=     0.346 Goal=   None    Shift=    0.000
 RMSDP=2.94D-08 MaxDP=1.21D-06 DE=-6.00D-11 OVMax= 2.66D-06

 Cycle  14  Pass 1  IDiag  1:
 E= -829.635759633076     Delta-E=       -0.000000000011 Rises=F Damp=F
 DIIS: error= 3.66D-08 at cycle  14 NSaved=  14.
 NSaved=14 IEnMin=14 EnMin= -829.635759633076     IErMin=14 ErrMin= 3.66D-08
 ErrMax= 3.66D-08  0.00D+00 EMaxC= 1.00D-01 BMatC= 1.60D-13 BMatP= 1.54D-12
 IDIUse=1 WtCom= 1.00D+00 WtEn= 0.00D+00
 Coeff-Com: -0.133D-06 0.852D-06 0.143D-05 0.189D-04-0.225D-04-0.136D-03
 Coeff-Com:  0.615D-03 0.197D-03-0.827D-02 0.148D-01 0.272D-01-0.997D-01
 Coeff-Com: -0.228D+00 0.129D+01
 Coeff:     -0.133D-06 0.852D-06 0.143D-05 0.189D-04-0.225D-04-0.136D-03
 Coeff:      0.615D-03 0.197D-03-0.827D-02 0.148D-01 0.272D-01-0.997D-01
 Coeff:     -0.228D+00 0.129D+01
 Gap=     0.346 Goal=   None    Shift=    0.000
 RMSDP=9.87D-09 MaxDP=2.88D-07 DE=-1.13D-11 OVMax= 8.70D-07

 SCF Done:  E(RHF) =  -829.635759633     A.U. after   14 cycles
            NFock= 14  Conv=0.99D-08     -V/T= 2.2853
 KE= 6.454681350609D+02 PE=-2.196374857861D+03 EE= 5.774197614235D+02
 Leave Link  502 at Tue Oct 12 15:37:31 2021, MaxMem=  1048576000 cpu:        17.6
 (Enter /usr/local/gaussian/g09/l801.exe)
 ExpMin= 2.53D-02 ExpMax= 4.56D+05 ExpMxC= 1.44D+03 IAcc=3 IRadAn=         5 AccDes= 0.00D+00
 HarFok:  IExCor=  205 AccDes= 0.00D+00 IRadAn=         5 IDoV=-2 UseB2=F ITyADJ=14
 ICtDFT= 12500011 ScaDFX=  1.000000  1.000000  1.000000  1.000000
 Defaulting to unpruned grid for atomic number  53.
 Defaulting to unpruned grid for atomic number  53.
 Defaulting to unpruned grid for atomic number  53.
 Defaulting to unpruned grid for atomic number  53.
 Defaulting to unpruned grid for atomic number  53.
 Defaulting to unpruned grid for atomic number  53.
 Defaulting to unpruned grid for atomic number  53.
 Defaulting to unpruned grid for atomic number  53.
 Defaulting to unpruned grid for atomic number  53.
 Defaulting to unpruned grid for atomic number  53.
 Defaulting to unpruned grid for atomic number  53.
 Defaulting to unpruned grid for atomic number  53.
 Largest valence mixing into a core orbital is  4.46D-04
 Largest core mixing into a valence orbital is  1.54D-04
 Range of M.O.s used for correlation:    11   174
 NBasis=   174 NAE=    26 NBE=    26 NFC=    10 NFV=     0
 NROrb=    164 NOA=    16 NOB=    16 NVA=   148 NVB=   148

 **** Warning!!: The largest alpha MO coefficient is  0.17823987D+02

 Leave Link  801 at Tue Oct 12 15:37:31 2021, MaxMem=  1048576000 cpu:         0.8
 (Enter /usr/local/gaussian/g09/l906.exe)
 Frozen-core derivative calculation, NFC=  10 NFV=   0.
 FulOut=F Deriv=T AODrv=F NAtomX=     4
   MMem=         239  MDisk=          16 MDiskD=          16
  W3Min=      922896 MinDsk=     1491158 NBas6D=         204
 NBas2D=       21411    NTT=       20910    LW2=    26219120
    MDV=  1048172455 MDiskM=       25641 NBas2p=       21407
 Fully in-core method, ICMem=   539113593.
 IMap=   1   2   3   4   5   6   7   8   9  10  11  12  13  14  15  16  17  18  19  20
 IMap=  21  22  23  24  25  26
 JobTyp=1 Pass  1 fully in-core, NPsUse= 12.
 Compute canonical integrals.
 FoFCou: FMM=F IPFlag=           0 FMFlag=           0 FMFlg1=           0
         NFxFlg=           0 DoJE=F BraDBF=F KetDBF=F FulRan=T
         wScrn=  0.000000 ICntrl=     600 IOpCl=  1 I1Cent=           0 NGrid=           0
         NMat0=    1 NMatS0=  21411 NMatT0=    0 NMatD0=    1 NMtDS0=    0 NMtDT0=    0
 Symmetry not used in FoFCou.
 Spin components of T(2) and E(2):
     alpha-alpha T2 =       0.3374806964D-01 E2=     -0.9515162352D-01
     alpha-beta  T2 =       0.1758714895D+00 E2=     -0.5116320123D+00
     beta-beta   T2 =       0.3374806964D-01 E2=     -0.9515162352D-01
 The integrals were generated   1 times.
 ANorm=    0.1115063957D+01
 E2 =    -0.7019352593D+00 EUMP2 =    -0.83033769489240D+03
 Leave Link  906 at Tue Oct 12 15:37:40 2021, MaxMem=  1048576000 cpu:       104.2
 (Enter /usr/local/gaussian/g09/l1002.exe)
 Minotr:  Closed shell wavefunction.
          Computing MP2/KS-MP2 derivatives.
          Using Z-Vector for PSCF gradient.
          Skipping F1 and S1 gradient terms here.
          Frozen-core window.
          Direct CPHF calculation.
          Differentiating once with respect to electric field.
                with respect to dipole field.
          Electric field/nuclear overlap derivatives assumed to be zero.
          Requested convergence is 1.0D-10 RMS, and 1.0D-09 maximum.
          NewPWx=F KeepS1=T KeepF1=T KeepIn=T MapXYZ=F SortEE=F KeepMc=T.
          MDV=    1048575800 using IRadAn=       0.
 Keep R1 ints in memory in canonical form, NReq=124351737.
 FoFCou: FMM=F IPFlag=           0 FMFlag=           0 FMFlg1=           0
         NFxFlg=           0 DoJE=F BraDBF=F KetDBF=F FulRan=T
         wScrn=  0.000000 ICntrl=     600 IOpCl=  0 I1Cent=           0 NGrid=           0
         NMat0=    1 NMatS0=  15225 NMatT0=    0 NMatD0=    1 NMtDS0=    0 NMtDT0=    0
 Symmetry not used in FoFCou.
          Solving linear equations separately, MaxMat=       0.
          There are     1 degrees of freedom in the 1st order CPHF.  IDoFFX=0 NUNeed=     1.
 LinEq1:  Iter=  0 NonCon=     1 RMS=3.64D-03 Max=6.16D-02 NDo=     1
 AX will form     1 AO Fock derivatives at one time.
 LinEq1:  Iter=  1 NonCon=     1 RMS=6.22D-04 Max=9.90D-03 NDo=     1
 LinEq1:  Iter=  2 NonCon=     1 RMS=2.45D-04 Max=2.77D-03 NDo=     1
 LinEq1:  Iter=  3 NonCon=     1 RMS=7.56D-05 Max=1.37D-03 NDo=     1
 LinEq1:  Iter=  4 NonCon=     1 RMS=2.97D-05 Max=4.88D-04 NDo=     1
 LinEq1:  Iter=  5 NonCon=     1 RMS=1.39D-05 Max=1.80D-04 NDo=     1
 LinEq1:  Iter=  6 NonCon=     1 RMS=3.21D-06 Max=4.19D-05 NDo=     1
 LinEq1:  Iter=  7 NonCon=     1 RMS=1.13D-06 Max=1.77D-05 NDo=     1
 LinEq1:  Iter=  8 NonCon=     1 RMS=3.47D-07 Max=4.13D-06 NDo=     1
 LinEq1:  Iter=  9 NonCon=     1 RMS=9.96D-08 Max=1.67D-06 NDo=     1
 LinEq1:  Iter= 10 NonCon=     1 RMS=2.44D-08 Max=3.69D-07 NDo=     1
 LinEq1:  Iter= 11 NonCon=     1 RMS=5.74D-09 Max=6.66D-08 NDo=     1
 LinEq1:  Iter= 12 NonCon=     1 RMS=1.10D-09 Max=1.21D-08 NDo=     1
 LinEq1:  Iter= 13 NonCon=     1 RMS=2.91D-10 Max=2.98D-09 NDo=     1
 LinEq1:  Iter= 14 NonCon=     0 RMS=7.00D-11 Max=7.82D-10 NDo=     1
 Linear equations converged to 1.000D-10 1.000D-09 after    14 iterations.
 End of Minotr F.D. properties file   721 does not exist.
 End of Minotr F.D. properties file   722 does not exist.
 End of Minotr F.D. properties file   788 does not exist.
 Leave Link 1002 at Tue Oct 12 15:37:43 2021, MaxMem=  1048576000 cpu:        16.4
 (Enter /usr/local/gaussian/g09/l601.exe)
 Copying SCF densities to generalized density rwf, IOpCl= 0 IROHF=0.

 **********************************************************************

            Population analysis using the MP2 density.

 **********************************************************************

 Alpha  occ. eigenvalues -- -104.69153 -20.40927 -10.41128  -7.87837  -7.87615
 Alpha  occ. eigenvalues --   -7.87608  -7.52047  -5.34791  -5.34488  -5.34484
 Alpha  occ. eigenvalues --   -2.07617  -2.07438  -2.07434  -2.07104  -2.07104
 Alpha  occ. eigenvalues --   -1.14192  -0.83881  -0.69115  -0.43858  -0.38944
 Alpha  occ. eigenvalues --   -0.38031  -0.27613  -0.23530  -0.19703  -0.18891
 Alpha  occ. eigenvalues --   -0.18826
 Alpha virt. eigenvalues --    0.15732   0.18932   0.21237   0.22971   0.23762
 Alpha virt. eigenvalues --    0.24714   0.25163   0.29036   0.30418   0.31740
 Alpha virt. eigenvalues --    0.32225   0.32351   0.35579   0.35950   0.36842
 Alpha virt. eigenvalues --    0.38467   0.38661   0.41899   0.46647   0.49710
 Alpha virt. eigenvalues --    0.51781   0.54746   0.55507   0.57584   0.59056
 Alpha virt. eigenvalues --    0.62061   0.63781   0.67429   0.71653   0.73520
 Alpha virt. eigenvalues --    0.73657   0.75512   0.76144   0.76360   0.78701
 Alpha virt. eigenvalues --    0.79657   0.80184   0.81523   0.84043   0.84520
 Alpha virt. eigenvalues --    0.84824   0.86436   0.88466   0.93251   0.94736
 Alpha virt. eigenvalues --    0.95021   0.96692   0.97568   1.00308   1.02648
 Alpha virt. eigenvalues --    1.09427   1.12214   1.12287   1.14710   1.17153
 Alpha virt. eigenvalues --    1.18358   1.22678   1.22911   1.24906   1.25889
 Alpha virt. eigenvalues --    1.31551   1.32165   1.37546   1.42374   1.45883
 Alpha virt. eigenvalues --    1.51895   1.54076   1.54790   1.57390   1.59634
 Alpha virt. eigenvalues --    1.61920   1.69987   1.70167   1.70860   1.71013
 Alpha virt. eigenvalues --    1.72930   1.73932   1.74361   1.77819   1.85059
 Alpha virt. eigenvalues --    1.90512   1.91412   1.91915   1.99254   2.01866
 Alpha virt. eigenvalues --    2.01988   2.07439   2.10764   2.15870   2.32118
 Alpha virt. eigenvalues --    2.43164   2.45051   2.53543   2.54376   2.57145
 Alpha virt. eigenvalues --    2.57826   2.62516   2.65723   2.67571   2.70059
 Alpha virt. eigenvalues --    2.74881   2.76315   2.79358   2.80787   2.90396
 Alpha virt. eigenvalues --    2.91748   3.12209   3.13514   3.19431   3.24949
 Alpha virt. eigenvalues --    3.26411   3.31752   3.33089   3.35930   3.45137
 Alpha virt. eigenvalues --    3.54687   3.57337   3.61150   3.65180   3.66007
 Alpha virt. eigenvalues --    3.96418   4.14776   4.25235   4.39449   4.47948
 Alpha virt. eigenvalues --    4.51921   4.57674   4.64372   4.67485   4.77041
 Alpha virt. eigenvalues --    5.37219   5.39629   6.02295   6.53597   6.84643
 Alpha virt. eigenvalues --    6.91373   6.95971   6.97197   7.07618   7.18072
 Alpha virt. eigenvalues --    7.26051   7.38001   7.45486   7.46812   7.75116
 Alpha virt. eigenvalues --    8.17321  12.90877  59.16517
          Condensed to atoms (all electrons):
               1          2          3          4
     1  O    8.742905  -0.153530  -0.168320   0.187019
     2  Cl  -0.153530  17.164363   0.027620  -0.031038
     3  I   -0.168320   0.027620  25.669589  -0.040375
     4  H    0.187019  -0.031038  -0.040375   0.780391
 Mulliken charges:
               1
     1  O   -0.608074
     2  Cl  -0.007415
     3  I   -0.488513
     4  H    0.104002
 Sum of Mulliken charges =  -1.00000
 Mulliken charges with hydrogens summed into heavy atoms:
               1
     1  O   -0.504072
     2  Cl  -0.007415
     3  I   -0.488513
 Electronic spatial extent (au):  <R**2>=           1299.7584
 Charge=             -1.0000 electrons
 Dipole moment (field-independent basis, Debye):
    X=              0.5689    Y=              8.0125    Z=             -0.0000  Tot=              8.0327
 Quadrupole moment (field-independent basis, Debye-Ang):
   XX=            -55.9664   YY=            -80.5533   ZZ=            -52.5929
   XY=             -6.9735   XZ=              0.0000   YZ=              0.0000
 Traceless Quadrupole moment (field-independent basis, Debye-Ang):
   XX=              7.0712   YY=            -17.5158   ZZ=             10.4446
   XY=             -6.9735   XZ=              0.0000   YZ=              0.0000
 Octapole moment (field-independent basis, Debye-Ang**2):
  XXX=              3.3896  YYY=            395.2561  ZZZ=             -0.0000  XYY=             22.0248
  XXY=            107.6342  XXZ=             -0.0000  XZZ=              0.5411  YZZ=            102.5382
  YYZ=             -0.0000  XYZ=             -0.0000
 Hexadecapole moment (field-independent basis, Debye-Ang**3):
 XXXX=           -415.2558 YYYY=          -2301.6624 ZZZZ=            -81.5503 XXXY=           -237.2129
 XXXZ=              0.0000 YYYX=           -293.4983 YYYZ=              0.0000 ZZZX=              0.0000
 ZZZY=              0.0000 XXYY=           -429.9654 XXZZ=            -86.7038 YYZZ=           -356.4312
 XXYZ=              0.0000 YYXZ=              0.0000 ZZXY=            -77.9126
 N-N= 1.438512017436D+02 E-N=-2.195812106055D+03  KE= 6.458383414597D+02
 No NMR shielding tensors so no spin-rotation constants.
 Leave Link  601 at Tue Oct 12 15:37:43 2021, MaxMem=  1048576000 cpu:         2.2
 (Enter /usr/local/gaussian/g09/l607.exe)
 ******************************Gaussian NBO Version 3.1******************************
             N A T U R A L   A T O M I C   O R B I T A L   A N D
          N A T U R A L   B O N D   O R B I T A L   A N A L Y S I S
 ******************************Gaussian NBO Version 3.1******************************
       /RESON  / : Allow strongly delocalized NBO set

 Analyzing the MP2 density

 Job title: title                                                           

 Storage needed:     91686 in NPA,    121697 in NBO (1048575904 available)


 NATURAL POPULATIONS:  Natural atomic orbital occupancies 
                                                          
   NAO  Atom  No  lang   Type(AO)    Occupancy
 --------------------------------------------
     1    O    1  S      Cor( 1S)     1.99984
     2    O    1  S      Val( 2S)     1.85553
     3    O    1  S      Ryd( 3S)     0.01256
     4    O    1  S      Ryd( 4S)     0.00110
     5    O    1  S      Ryd( 5S)     0.00014
     6    O    1  px     Val( 2p)     1.17333
     7    O    1  px     Ryd( 3p)     0.00821
     8    O    1  px     Ryd( 4p)     0.00076
     9    O    1  px     Ryd( 5p)     0.00058
    10    O    1  py     Val( 2p)     1.74527
    11    O    1  py     Ryd( 3p)     0.01525
    12    O    1  py     Ryd( 4p)     0.00057
    13    O    1  py     Ryd( 5p)     0.00033
    14    O    1  pz     Val( 2p)     1.94282
    15    O    1  pz     Ryd( 3p)     0.02349
    16    O    1  pz     Ryd( 4p)     0.00056
    17    O    1  pz     Ryd( 5p)     0.00039
    18    O    1  dxy    Ryd( 3d)     0.00863
    19    O    1  dxy    Ryd( 4d)     0.00059
    20    O    1  dxy    Ryd( 5d)     0.00015
    21    O    1  dxz    Ryd( 3d)     0.00887
    22    O    1  dxz    Ryd( 4d)     0.00060
    23    O    1  dxz    Ryd( 5d)     0.00012
    24    O    1  dyz    Ryd( 3d)     0.00668
    25    O    1  dyz    Ryd( 4d)     0.00068
    26    O    1  dyz    Ryd( 5d)     0.00029
    27    O    1  dx2y2  Ryd( 3d)     0.00984
    28    O    1  dx2y2  Ryd( 4d)     0.00041
    29    O    1  dx2y2  Ryd( 5d)     0.00011
    30    O    1  dz2    Ryd( 3d)     0.00771
    31    O    1  dz2    Ryd( 4d)     0.00064
    32    O    1  dz2    Ryd( 5d)     0.00013
    33    O    1  f(0)   Ryd( 4f)     0.00063
    34    O    1  f(0)   Ryd( 5f)     0.00012
    35    O    1  f(C1)  Ryd( 4f)     0.00064
    36    O    1  f(C1)  Ryd( 5f)     0.00012
    37    O    1  f(S1)  Ryd( 4f)     0.00057
    38    O    1  f(S1)  Ryd( 5f)     0.00013
    39    O    1  f(C2)  Ryd( 4f)     0.00068
    40    O    1  f(C2)  Ryd( 5f)     0.00015
    41    O    1  f(S2)  Ryd( 4f)     0.00054
    42    O    1  f(S2)  Ryd( 5f)     0.00013
    43    O    1  f(C3)  Ryd( 4f)     0.00064
    44    O    1  f(C3)  Ryd( 5f)     0.00014
    45    O    1  f(S3)  Ryd( 4f)     0.00061
    46    O    1  f(S3)  Ryd( 5f)     0.00013

    47   Cl    2  S      Cor( 1S)     2.00000
    48   Cl    2  S      Cor( 2S)     1.99974
    49   Cl    2  S      Val( 3S)     1.87534
    50   Cl    2  S      Ryd( 4S)     0.00856
    51   Cl    2  S      Ryd( 5S)     0.00055
    52   Cl    2  S      Ryd( 6S)     0.00018
    53   Cl    2  px     Cor( 2p)     1.99995
    54   Cl    2  px     Val( 3p)     0.94807
    55   Cl    2  px     Ryd( 4p)     0.00715
    56   Cl    2  px     Ryd( 5p)     0.00057
    57   Cl    2  px     Ryd( 6p)     0.00017
    58   Cl    2  py     Cor( 2p)     2.00003
    59   Cl    2  py     Val( 3p)     1.95068
    60   Cl    2  py     Ryd( 4p)     0.01134
    61   Cl    2  py     Ryd( 5p)     0.00065
    62   Cl    2  py     Ryd( 6p)     0.00006
    63   Cl    2  pz     Cor( 2p)     2.00003
    64   Cl    2  pz     Val( 3p)     1.95293
    65   Cl    2  pz     Ryd( 4p)     0.01172
    66   Cl    2  pz     Ryd( 5p)     0.00075
    67   Cl    2  pz     Ryd( 6p)     0.00003
    68   Cl    2  dxy    Ryd( 3d)     0.02018
    69   Cl    2  dxy    Ryd( 4d)     0.00108
    70   Cl    2  dxy    Ryd( 5d)     0.00035
    71   Cl    2  dxz    Ryd( 3d)     0.02359
    72   Cl    2  dxz    Ryd( 4d)     0.00137
    73   Cl    2  dxz    Ryd( 5d)     0.00040
    74   Cl    2  dyz    Ryd( 3d)     0.01705
    75   Cl    2  dyz    Ryd( 4d)     0.00070
    76   Cl    2  dyz    Ryd( 5d)     0.00024
    77   Cl    2  dx2y2  Ryd( 3d)     0.01910
    78   Cl    2  dx2y2  Ryd( 4d)     0.00051
    79   Cl    2  dx2y2  Ryd( 5d)     0.00020
    80   Cl    2  dz2    Ryd( 3d)     0.01793
    81   Cl    2  dz2    Ryd( 4d)     0.00060
    82   Cl    2  dz2    Ryd( 5d)     0.00022
    83   Cl    2  f(0)   Ryd( 4f)     0.00133
    84   Cl    2  f(0)   Ryd( 5f)     0.00015
    85   Cl    2  f(C1)  Ryd( 4f)     0.00152
    86   Cl    2  f(C1)  Ryd( 5f)     0.00015
    87   Cl    2  f(S1)  Ryd( 4f)     0.00128
    88   Cl    2  f(S1)  Ryd( 5f)     0.00013
    89   Cl    2  f(C2)  Ryd( 4f)     0.00137
    90   Cl    2  f(C2)  Ryd( 5f)     0.00014
    91   Cl    2  f(S2)  Ryd( 4f)     0.00121
    92   Cl    2  f(S2)  Ryd( 5f)     0.00014
    93   Cl    2  f(C3)  Ryd( 4f)     0.00170
    94   Cl    2  f(C3)  Ryd( 5f)     0.00014
    95   Cl    2  f(S3)  Ryd( 4f)     0.00135
    96   Cl    2  f(S3)  Ryd( 5f)     0.00016

    97    I    3  S      Cor( 4S)     1.99919
    98    I    3  S      Val( 5S)     1.92459
    99    I    3  S      Ryd( 6S)     0.00600
   100    I    3  S      Ryd( 7S)     0.00090
   101    I    3  S      Ryd( 8S)     0.00028
   102    I    3  S      Ryd( 9S)     0.00002
   103    I    3  px     Cor( 4p)     1.99986
   104    I    3  px     Val( 5p)     1.93295
   105    I    3  px     Ryd( 6p)     0.00942
   106    I    3  px     Ryd( 7p)     0.00064
   107    I    3  px     Ryd( 8p)     0.00012
   108    I    3  py     Cor( 4p)     1.99950
   109    I    3  py     Val( 5p)     1.61942
   110    I    3  py     Ryd( 6p)     0.00722
   111    I    3  py     Ryd( 7p)     0.00051
   112    I    3  py     Ryd( 8p)     0.00015
   113    I    3  pz     Cor( 4p)     1.99989
   114    I    3  pz     Val( 5p)     1.95210
   115    I    3  pz     Ryd( 6p)     0.00953
   116    I    3  pz     Ryd( 7p)     0.00061
   117    I    3  pz     Ryd( 8p)     0.00011
   118    I    3  dxy    Cor( 4d)     1.99661
   119    I    3  dxy    Ryd( 5d)     0.01810
   120    I    3  dxy    Ryd( 6d)     0.00112
   121    I    3  dxy    Ryd( 7d)     0.00020
   122    I    3  dxz    Cor( 4d)     1.99679
   123    I    3  dxz    Ryd( 5d)     0.01913
   124    I    3  dxz    Ryd( 6d)     0.00149
   125    I    3  dxz    Ryd( 7d)     0.00020
   126    I    3  dyz    Cor( 4d)     1.99672
   127    I    3  dyz    Ryd( 5d)     0.01816
   128    I    3  dyz    Ryd( 6d)     0.00117
   129    I    3  dyz    Ryd( 7d)     0.00018
   130    I    3  dx2y2  Cor( 4d)     1.99631
   131    I    3  dx2y2  Ryd( 5d)     0.01872
   132    I    3  dx2y2  Ryd( 6d)     0.00107
   133    I    3  dx2y2  Ryd( 7d)     0.00026
   134    I    3  dz2    Cor( 4d)     1.99660
   135    I    3  dz2    Ryd( 5d)     0.01910
   136    I    3  dz2    Ryd( 6d)     0.00135
   137    I    3  dz2    Ryd( 7d)     0.00016
   138    I    3  f(0)   Ryd( 4f)     0.00237
   139    I    3  f(0)   Ryd( 5f)     0.00042
   140    I    3  f(C1)  Ryd( 4f)     0.00263
   141    I    3  f(C1)  Ryd( 5f)     0.00042
   142    I    3  f(S1)  Ryd( 4f)     0.00254
   143    I    3  f(S1)  Ryd( 5f)     0.00039
   144    I    3  f(C2)  Ryd( 4f)     0.00222
   145    I    3  f(C2)  Ryd( 5f)     0.00040
   146    I    3  f(S2)  Ryd( 4f)     0.00245
   147    I    3  f(S2)  Ryd( 5f)     0.00037
   148    I    3  f(C3)  Ryd( 4f)     0.00210
   149    I    3  f(C3)  Ryd( 5f)     0.00040
   150    I    3  f(S3)  Ryd( 4f)     0.00225
   151    I    3  f(S3)  Ryd( 5f)     0.00039

   152    H    4  S      Val( 1S)     0.68505
   153    H    4  S      Ryd( 2S)     0.00609
   154    H    4  S      Ryd( 3S)     0.00036
   155    H    4  S      Ryd( 4S)     0.00016
   156    H    4  px     Ryd( 2p)     0.00493
   157    H    4  px     Ryd( 3p)     0.00040
   158    H    4  px     Ryd( 4p)     0.00010
   159    H    4  py     Ryd( 2p)     0.00476
   160    H    4  py     Ryd( 3p)     0.00069
   161    H    4  py     Ryd( 4p)     0.00025
   162    H    4  pz     Ryd( 2p)     0.00661
   163    H    4  pz     Ryd( 3p)     0.00050
   164    H    4  pz     Ryd( 4p)     0.00020
   165    H    4  dxy    Ryd( 3d)     0.00257
   166    H    4  dxy    Ryd( 4d)     0.00014
   167    H    4  dxz    Ryd( 3d)     0.00097
   168    H    4  dxz    Ryd( 4d)     0.00004
   169    H    4  dyz    Ryd( 3d)     0.00241
   170    H    4  dyz    Ryd( 4d)     0.00012
   171    H    4  dx2y2  Ryd( 3d)     0.00204
   172    H    4  dx2y2  Ryd( 4d)     0.00021
   173    H    4  dz2    Ryd( 3d)     0.00134
   174    H    4  dz2    Ryd( 4d)     0.00011

 [ 28 electrons found in the effective core potential]

 WARNING:  5 low occupancy (<1.9990e) core orbitals found on  I    3


 Summary of Natural Population Analysis:                  
                                                          
                                       Natural Population 
                Natural  -----------------------------------------------
    Atom  No    Charge         Core      Valence    Rydberg      Total
 -----------------------------------------------------------------------
      O    1   -0.83140      1.99984     6.71695    0.11461     8.83140
     Cl    2    0.11721      9.99975     6.72703    0.15602    16.88279
      I    3   -0.56577     45.98147     7.42906    0.15524    53.56577
      H    4    0.27997      0.00000     0.68505    0.03498     0.72003
 =======================================================================
   * Total *   -1.00000     57.98106    21.55809    0.46085    80.00000

                                 Natural Population      
 --------------------------------------------------------
   Effective Core            28.00000
   Core                      29.98106 ( 99.9369% of  30)
   Valence                   21.55809 ( 97.9913% of  22)
   Natural Minimal Basis     79.53915 ( 99.4239% of  80)
   Natural Rydberg Basis      0.46085 (  0.5761% of  80)
 --------------------------------------------------------

    Atom  No          Natural Electron Configuration
 ----------------------------------------------------------------------------
      O    1      [core]2S( 1.86)2p( 4.86)3S( 0.01)3p( 0.05)3d( 0.04)
     Cl    2      [core]3S( 1.88)3p( 4.85)4S( 0.01)3d( 0.10)4p( 0.03)4f( 0.01)
      I    3      [core]5S( 1.92)5p( 5.50)6S( 0.01)4f( 0.02)5d( 0.09)6p( 0.03)6d( 0.01)
      H    4            1S( 0.69)2S( 0.01)2p( 0.02)3d( 0.01)


 NATURAL BOND ORBITAL ANALYSIS:
 Warning:  a bond orbital has occupanc of -0.00023

                       Occupancies       Lewis Structure    Low   High
           Occ.    -------------------  -----------------   occ   occ
  Cycle   Thresh.   Lewis   Non-Lewis     CR  BD  3C  LP    (L)   (NL)   Dev
 =============================================================================
   1(1)    1.90    79.09210   0.90790     15   2   0   9     1      1    0.51
 Warning:  a bond orbital has occupanc of -0.00023
   2(2)    1.90    79.22889   0.77111     15   2   0   9     1      1    0.33
 Warning:  a bond orbital has occupanc of -0.00023
   3(3)    1.90    79.09210   0.90790     15   2   0   9     1      1    0.51
 Warning:  a bond orbital has occupanc of -0.00023
   4(4)    1.90    79.22889   0.77111     15   2   0   9     1      1    0.33
 Warning:  a bond orbital has occupanc of -0.00023
   5(1)    1.80    79.22889   0.77111     15   2   0   9     1      1    0.33
 Warning:  a bond orbital has occupanc of -0.00023
   6(2)    1.80    79.09210   0.90790     15   2   0   9     1      1    0.51
 Warning:  a bond orbital has occupanc of -0.00023
   7(3)    1.80    79.22889   0.77111     15   2   0   9     1      1    0.33
 Warning:  a bond orbital has occupanc of -0.00023
   8(1)    1.70    79.09712   0.90288     15   3   0   8     0      2    0.33
 Warning:  a bond orbital has occupanc of -0.00023
   9(2)    1.70    79.09210   0.90790     15   2   0   9     1      1    0.51
 Warning:  a bond orbital has occupanc of -0.00023
  10(3)    1.70    79.09712   0.90288     15   3   0   8     0      2    0.33
 Warning:  a bond orbital has occupanc of -0.00023
  11(1)    1.60    79.23838   0.76162     15   2   0   9     0      1    0.33
 Warning:  a bond orbital has occupanc of -0.00023
  12(2)    1.60    79.23838   0.76162     15   2   0   9     0      1    0.33
 Warning:  a bond orbital has occupanc of -0.00023
  13(1)    1.50    78.84271   1.15729     15   1   0  10     0      1    0.51
 Warning:  a bond orbital has occupanc of -0.00023
  14(2)    1.50    78.84271   1.15729     15   1   0  10     0      1    0.51
 Warning:  a bond orbital has occupanc of -0.00023
  15(1)    1.60    79.23838   0.76162     15   2   0   9     0      1    0.33
 -----------------------------------------------------------------------------

 Structure accepted: RESONANCE keyword permits strongly delocalized structure

 WARNING:  5 low occupancy (<1.9990e) core orbitals found on  I    3

 --------------------------------------------------------
   Effective Core           28.00000
   Core                     29.98106 ( 99.937% of  30)
   Valence Lewis            21.25732 ( 96.624% of  22)
  ==================       ============================
   Total Lewis              79.23838 ( 99.048% of  80)
  -----------------------------------------------------
   Valence non-Lewis         0.34636 (  0.433% of  80)
   Rydberg non-Lewis         0.41526 (  0.519% of  80)
  ==================       ============================
   Total non-Lewis           0.76162 (  0.952% of  80)
 --------------------------------------------------------


       (Occupancy)   Bond orbital/ Coefficients/ Hybrids
 ---------------------------------------------------------------------------------
     1. (1.93392) BD ( 1) O   1 -Cl   2  
                ( 56.93%)   0.7545* O   1 s(  8.26%)p11.05( 91.25%)d 0.06(  0.48%)
                                                  f 0.00(  0.02%)
                                            0.0003  0.2804 -0.0613  0.0132 -0.0009
                                            0.9536 -0.0460 -0.0144 -0.0149  0.0135
                                           -0.0192 -0.0023  0.0029  0.0000  0.0000
                                            0.0000  0.0000 -0.0116 -0.0009  0.0009
                                            0.0000  0.0000  0.0000  0.0000  0.0000
                                            0.0000  0.0564  0.0032  0.0007 -0.0382
                                           -0.0028  0.0005  0.0000  0.0000 -0.0101
                                            0.0006  0.0001 -0.0004  0.0000  0.0000
                                            0.0000  0.0000  0.0087  0.0006 -0.0009
                                            0.0014
                ( 43.07%)   0.6563*Cl   2 s(  9.46%)p 9.44( 89.35%)d 0.11(  1.06%)
                                                  f 0.01(  0.12%)
                                           -0.0000  0.0007  0.3017 -0.0593 -0.0109
                                           -0.0022 -0.0005 -0.9429  0.0649  0.0125
                                           -0.0012 -0.0000 -0.0104 -0.0054  0.0027
                                           -0.0022  0.0000  0.0000  0.0000  0.0000
                                            0.0000  0.0082 -0.0012 -0.0009  0.0000
                                            0.0000  0.0000  0.0000  0.0000  0.0000
                                            0.0857 -0.0131 -0.0025 -0.0544  0.0083
                                            0.0023  0.0000  0.0000  0.0216 -0.0026
                                            0.0004 -0.0003  0.0000  0.0000  0.0000
                                            0.0000 -0.0268  0.0025 -0.0011  0.0006
     2. (1.94989) BD ( 1) I   3 - H   4  
                ( 76.17%)   0.8727* I   3 s( 12.15%)p 7.21( 87.59%)d 0.02(  0.24%)
                                                  f 0.00(  0.03%)
                                            0.0004  0.3485 -0.0053 -0.0061 -0.0003
                                            0.0007  0.0002  0.2166 -0.0039 -0.0011
                                            0.0003  0.0010  0.9102 -0.0206 -0.0065
                                            0.0005  0.0000  0.0000  0.0000  0.0000
                                            0.0000 -0.0000  0.0184  0.0001 -0.0010
                                            0.0000  0.0000  0.0000  0.0000  0.0000
                                            0.0000  0.0000  0.0000 -0.0000 -0.0373
                                            0.0012  0.0022  0.0000 -0.0249  0.0001
                                            0.0010  0.0000  0.0000 -0.0023 -0.0002
                                           -0.0100 -0.0009  0.0000  0.0000  0.0000
                                            0.0000 -0.0081 -0.0008 -0.0100 -0.0004
                ( 23.83%)   0.4882* H   4 s( 99.65%)p 0.00(  0.30%)d 0.00(  0.05%)
                                            0.9982 -0.0074 -0.0121  0.0020 -0.0108
                                           -0.0011 -0.0039 -0.0500 -0.0185 -0.0036
                                            0.0000  0.0000  0.0000  0.0056  0.0053
                                            0.0000  0.0000  0.0000  0.0000 -0.0119
                                           -0.0088 -0.0127 -0.0065
     3. (1.99984) CR ( 1) O   1           s(100.00%)p 0.00(  0.00%)
                                            1.0000 -0.0001  0.0000  0.0000  0.0000
                                           -0.0003  0.0000  0.0000  0.0000 -0.0005
                                            0.0000 -0.0000  0.0000  0.0000  0.0000
                                            0.0000  0.0000 -0.0000 -0.0000  0.0000
                                            0.0000  0.0000  0.0000  0.0000  0.0000
                                            0.0000 -0.0000 -0.0000 -0.0000  0.0000
                                            0.0000  0.0000  0.0000  0.0000  0.0000
                                           -0.0000  0.0000 -0.0000  0.0000  0.0000
                                            0.0000  0.0000 -0.0000  0.0000 -0.0000
                                           -0.0000
     4. (2.00000) CR ( 1)Cl   2           s(100.00%)
                                            1.0000  0.0000 -0.0000 -0.0000 -0.0000
                                           -0.0000 -0.0000 -0.0000  0.0000  0.0000
                                           -0.0000  0.0000 -0.0000 -0.0000  0.0000
                                           -0.0000  0.0000  0.0000  0.0000  0.0000
                                            0.0000  0.0000 -0.0000 -0.0000  0.0000
                                            0.0000  0.0000  0.0000  0.0000  0.0000
                                            0.0000 -0.0000 -0.0000 -0.0000  0.0000
                                            0.0000  0.0000  0.0000  0.0000 -0.0000
                                            0.0000 -0.0000  0.0000  0.0000  0.0000
                                            0.0000 -0.0000  0.0000 -0.0000  0.0000
     5. (1.99974) CR ( 2)Cl   2           s(100.00%)p 0.00(  0.00%)
                                            0.0000  1.0000 -0.0005  0.0000  0.0000
                                            0.0000  0.0000  0.0006 -0.0000 -0.0000
                                            0.0000 -0.0000  0.0000  0.0000 -0.0000
                                            0.0000  0.0000  0.0000  0.0000  0.0000
                                            0.0000 -0.0000  0.0000  0.0000  0.0000
                                            0.0000  0.0000  0.0000  0.0000  0.0000
                                           -0.0001  0.0000  0.0000  0.0000 -0.0000
                                           -0.0000  0.0000  0.0000 -0.0000  0.0000
                                           -0.0000  0.0000  0.0000  0.0000  0.0000
                                            0.0000  0.0000 -0.0000  0.0000 -0.0000
     6. (1.99995) CR ( 3)Cl   2           s(  0.00%)p 1.00(100.00%)
                                           -0.0000  0.0000  0.0001 -0.0000 -0.0000
                                           -0.0000  1.0000 -0.0005  0.0000  0.0000
                                           -0.0000  0.0000 -0.0000 -0.0000  0.0000
                                           -0.0000  0.0000  0.0000  0.0000  0.0000
                                            0.0000  0.0000 -0.0000 -0.0000  0.0000
                                            0.0000  0.0000  0.0000  0.0000  0.0000
                                            0.0000 -0.0000 -0.0000 -0.0000  0.0000
                                            0.0000  0.0000  0.0000  0.0000 -0.0000
                                            0.0000 -0.0000  0.0000  0.0000  0.0000
                                            0.0000 -0.0000  0.0000 -0.0000  0.0000
     7. (2.00003) CR ( 4)Cl   2           s(  0.00%)p 1.00(100.00%)
                                            0.0000 -0.0000 -0.0000  0.0000  0.0000
                                           -0.0000  0.0000 -0.0000  0.0000  0.0000
                                           -0.0000  1.0000  0.0001  0.0000  0.0000
                                            0.0000  0.0000  0.0000  0.0000  0.0000
                                            0.0000  0.0000  0.0000  0.0000  0.0000
                                            0.0000  0.0000  0.0000  0.0000  0.0000
                                           -0.0000 -0.0000 -0.0000 -0.0000 -0.0000
                                            0.0000  0.0000  0.0000  0.0000  0.0000
                                           -0.0000  0.0000  0.0000  0.0000  0.0000
                                            0.0000 -0.0000  0.0000  0.0000 -0.0000
     8. (2.00003) CR ( 5)Cl   2           s(  0.00%)p 1.00(100.00%)
                                            0.0000  0.0000  0.0000  0.0000  0.0000
                                            0.0000  0.0000  0.0000  0.0000  0.0000
                                            0.0000  0.0000  0.0000  0.0000  0.0000
                                            0.0000  1.0000  0.0001  0.0000  0.0000
                                           -0.0000  0.0000  0.0000  0.0000  0.0000
                                            0.0000  0.0000  0.0000  0.0000  0.0000
                                            0.0000  0.0000  0.0000  0.0000  0.0000
                                            0.0000 -0.0000  0.0000  0.0000  0.0000
                                            0.0000  0.0000  0.0000 -0.0000  0.0000
                                           -0.0000  0.0000  0.0000  0.0000  0.0000
     9. (1.99920) CR ( 1) I   3           s(100.00%)p 0.00(  0.00%)
                                            1.0000 -0.0007  0.0000  0.0000 -0.0000
                                           -0.0000 -0.0000 -0.0000  0.0000  0.0000
                                           -0.0000 -0.0000 -0.0002  0.0000  0.0000
                                            0.0000  0.0000  0.0000  0.0000  0.0000
                                            0.0000  0.0000 -0.0000  0.0000  0.0000
                                            0.0000  0.0000  0.0000  0.0000  0.0000
                                            0.0000  0.0000  0.0000 -0.0000  0.0000
                                           -0.0000 -0.0000 -0.0000  0.0000 -0.0000
                                           -0.0000  0.0000  0.0000  0.0000  0.0000
                                            0.0000  0.0000  0.0000  0.0000  0.0000
                                            0.0000  0.0000  0.0000  0.0000  0.0000
    10. (1.99986) CR ( 2) I   3           s(  0.00%)p 1.00(100.00%)
                                           -0.0000  0.0000  0.0000  0.0000  0.0000
                                           -0.0000  1.0000 -0.0008 -0.0000 -0.0000
                                            0.0000 -0.0000 -0.0001  0.0000  0.0000
                                           -0.0000  0.0000  0.0000  0.0000  0.0000
                                            0.0000  0.0000 -0.0000  0.0000  0.0000
                                            0.0000  0.0000  0.0000  0.0000  0.0000
                                            0.0000  0.0000  0.0000  0.0000  0.0000
                                            0.0000  0.0000  0.0000  0.0000 -0.0000
                                           -0.0000  0.0000  0.0000  0.0000  0.0000
                                            0.0000  0.0000  0.0000  0.0000  0.0000
                                            0.0000  0.0000  0.0000  0.0000 -0.0000
    11. (1.99951) CR ( 3) I   3           s(  0.00%)p 1.00(100.00%)
                                           -0.0000  0.0001  0.0000  0.0000  0.0000
                                           -0.0000 -0.0000 -0.0001  0.0000  0.0000
                                           -0.0000  1.0000 -0.0011  0.0000  0.0000
                                           -0.0000  0.0000  0.0000  0.0000  0.0000
                                            0.0000 -0.0000 -0.0000 -0.0000  0.0000
                                            0.0000  0.0000  0.0000  0.0000  0.0000
                                            0.0000  0.0000  0.0000  0.0000  0.0000
                                           -0.0000 -0.0000  0.0000  0.0000  0.0000
                                           -0.0000  0.0000  0.0000  0.0000  0.0000
                                            0.0000  0.0000  0.0000  0.0000  0.0000
                                            0.0000  0.0000  0.0000  0.0000  0.0000
    12. (1.99988) CR ( 4) I   3           s(  0.00%)p 1.00(100.00%)
                                            0.0000  0.0000  0.0000  0.0000  0.0000
                                            0.0000  0.0000  0.0000  0.0000  0.0000
                                            0.0000  0.0000  0.0000  0.0000  0.0000
                                            0.0000  1.0000 -0.0008 -0.0000 -0.0000
                                            0.0000  0.0000  0.0000  0.0000  0.0000
                                            0.0000 -0.0000  0.0000  0.0000  0.0000
                                           -0.0000  0.0000  0.0000  0.0000  0.0000
                                            0.0000  0.0000  0.0000  0.0000  0.0000
                                            0.0000  0.0000  0.0000  0.0000  0.0000
                                            0.0000  0.0000  0.0000  0.0000 -0.0000
                                           -0.0000  0.0000  0.0000  0.0000  0.0000
    13. (1.99661) CR ( 5) I   3           s(  0.00%)p 0.00(  0.00%)d 1.00(100.00%)
                                            0.0000  0.0001 -0.0000  0.0000  0.0000
                                           -0.0000  0.0000  0.0001  0.0000  0.0000
                                           -0.0000 -0.0000 -0.0000  0.0000  0.0000
                                           -0.0000  0.0000  0.0000  0.0000  0.0000
                                            0.0000  1.0000  0.0000 -0.0000 -0.0000
                                            0.0000  0.0000  0.0000  0.0000  0.0000
                                            0.0000  0.0000  0.0000  0.0000  0.0000
                                           -0.0000 -0.0000  0.0000  0.0000  0.0000
                                            0.0000  0.0000  0.0000 -0.0000 -0.0000
                                            0.0000  0.0000  0.0000  0.0000  0.0000
                                            0.0000 -0.0000 -0.0000  0.0000  0.0000
    14. (1.99679) CR ( 6) I   3           s(  0.00%)p 0.00(  0.00%)d 1.00(100.00%)
                                            0.0000  0.0000  0.0000  0.0000  0.0000
                                            0.0000  0.0000  0.0000  0.0000  0.0000
                                            0.0000  0.0000  0.0000  0.0000  0.0000
                                            0.0000  0.0000  0.0000  0.0000  0.0000
                                           -0.0000  0.0000  0.0000  0.0000  0.0000
                                            1.0000  0.0000 -0.0000 -0.0000 -0.0000
                                            0.0000 -0.0000 -0.0000  0.0000  0.0000
                                            0.0000  0.0000  0.0000  0.0000  0.0000
                                            0.0000 -0.0000 -0.0000  0.0000  0.0000
                                            0.0000  0.0000 -0.0000 -0.0000  0.0000
                                            0.0000  0.0000  0.0000  0.0000  0.0000
    15. (1.99672) CR ( 7) I   3           s(  0.00%)p 0.00(  0.00%)d 1.00(100.00%)
                                            0.0000  0.0000  0.0000  0.0000  0.0000
                                            0.0000  0.0000  0.0000  0.0000  0.0000
                                            0.0000  0.0000  0.0000  0.0000  0.0000
                                            0.0000  0.0000  0.0001  0.0000  0.0000
                                           -0.0000  0.0000  0.0000  0.0000  0.0000
                                           -0.0000  0.0000 -0.0000 -0.0000  1.0000
                                            0.0000 -0.0000 -0.0000  0.0000  0.0000
                                            0.0000  0.0000  0.0000  0.0000  0.0000
                                            0.0000 -0.0000 -0.0000  0.0000  0.0000
                                            0.0000  0.0000 -0.0000 -0.0000  0.0000
                                            0.0000  0.0000  0.0000  0.0000  0.0000
    16. (1.99631) CR ( 8) I   3           s(  0.00%)p 0.00(  0.00%)d 1.00(100.00%)
                                            0.0000  0.0001  0.0000  0.0000  0.0000
                                           -0.0000 -0.0000 -0.0000 -0.0000 -0.0000
                                           -0.0000 -0.0000 -0.0000  0.0000  0.0000
                                           -0.0000 -0.0000 -0.0000 -0.0000 -0.0000
                                           -0.0000 -0.0000 -0.0000  0.0000  0.0000
                                           -0.0000 -0.0000 -0.0000 -0.0000 -0.0000
                                           -0.0000 -0.0000 -0.0000 -1.0000  0.0000
                                            0.0000  0.0000  0.0000  0.0000  0.0000
                                            0.0000 -0.0000 -0.0000  0.0000  0.0000
                                            0.0000  0.0000 -0.0000 -0.0000 -0.0000
                                           -0.0000  0.0000  0.0000  0.0000  0.0000
    17. (1.99660) CR ( 9) I   3           s(  0.00%)p 0.00(  0.00%)d 1.00(100.00%)
                                           -0.0000 -0.0001 -0.0000 -0.0000 -0.0000
                                            0.0000  0.0000  0.0000 -0.0000 -0.0000
                                            0.0000  0.0000  0.0000 -0.0000 -0.0000
                                            0.0000  0.0000  0.0000  0.0000  0.0000
                                            0.0000  0.0000  0.0000  0.0000  0.0000
                                            0.0000  0.0000  0.0000  0.0000  0.0000
                                            0.0000  0.0000  0.0000 -0.0000 -0.0000
                                           -0.0000 -0.0000  1.0000 -0.0000 -0.0000
                                           -0.0000  0.0000  0.0000 -0.0000 -0.0000
                                           -0.0000 -0.0000  0.0000  0.0000  0.0000
                                            0.0000 -0.0000 -0.0000 -0.0000 -0.0000
    18. (1.96673) LP ( 1) O   1           s( 74.51%)p 0.34( 25.44%)d 0.00(  0.04%)
                                                  f 0.00(  0.00%)
                                            0.0002  0.8631  0.0134 -0.0070 -0.0007
                                           -0.2588  0.0018 -0.0033  0.0007  0.4329
                                            0.0052  0.0049 -0.0006  0.0000  0.0000
                                            0.0000  0.0000  0.0185  0.0027 -0.0020
                                            0.0000  0.0000  0.0000  0.0000  0.0000
                                            0.0000  0.0049  0.0006 -0.0014  0.0041
                                            0.0001  0.0016  0.0000  0.0000 -0.0004
                                            0.0006 -0.0012 -0.0000  0.0000  0.0000
                                            0.0000  0.0000  0.0031 -0.0019  0.0043
                                           -0.0010
    19. (1.94691) LP ( 2) O   1           s(  0.00%)p 1.00( 99.85%)d 0.00(  0.14%)
                                                  f 0.00(  0.01%)
                                            0.0000  0.0000  0.0000  0.0000  0.0000
                                            0.0000  0.0000  0.0000  0.0000  0.0000
                                            0.0000  0.0000  0.0000  0.9989  0.0175
                                            0.0047  0.0157  0.0000  0.0000  0.0000
                                            0.0327  0.0045 -0.0028 -0.0131  0.0059
                                            0.0094  0.0000  0.0000  0.0000  0.0000
                                            0.0000  0.0000 -0.0075 -0.0006  0.0000
                                            0.0000  0.0000  0.0000  0.0084 -0.0028
                                           -0.0009  0.0018  0.0000  0.0000  0.0000
                                            0.0000
    20. (1.69980) LP ( 3) O   1           s( 17.60%)p 4.67( 82.22%)d 0.01(  0.17%)
                                                  f 0.00(  0.01%)
                                           -0.0004  0.4194 -0.0064  0.0109  0.0020
                                           -0.1102  0.0070  0.0017  0.0069 -0.8999
                                           -0.0117 -0.0009  0.0084 -0.0000 -0.0000
                                           -0.0000 -0.0000 -0.0210 -0.0049  0.0003
                                           -0.0000 -0.0000 -0.0000 -0.0000 -0.0000
                                           -0.0000 -0.0290 -0.0038 -0.0001 -0.0182
                                           -0.0013  0.0020 -0.0000 -0.0000 -0.0000
                                            0.0006  0.0069 -0.0018 -0.0000 -0.0000
                                           -0.0000 -0.0000  0.0014  0.0001 -0.0047
                                           -0.0002
    21. (1.97357) LP ( 1)Cl   2           s( 90.70%)p 0.10(  9.27%)d 0.00(  0.03%)
                                                  f 0.00(  0.00%)
                                            0.0000  0.0003  0.9523  0.0077  0.0013
                                            0.0004  0.0001  0.3022 -0.0064 -0.0031
                                            0.0008  0.0000 -0.0363  0.0008  0.0002
                                           -0.0006  0.0000  0.0000  0.0000  0.0000
                                            0.0000 -0.0005 -0.0004 -0.0003  0.0000
                                            0.0000  0.0000  0.0000  0.0000  0.0000
                                           -0.0139  0.0001  0.0006  0.0085  0.0004
                                           -0.0001  0.0000  0.0000 -0.0025 -0.0002
                                            0.0000  0.0001  0.0000  0.0000  0.0000
                                            0.0000  0.0037  0.0001 -0.0004  0.0001
    22. (1.95473) LP ( 2)Cl   2           s(  0.00%)p 1.00( 99.93%)d 0.00(  0.06%)
                                                  f 0.00(  0.01%)
                                            0.0000  0.0000  0.0000  0.0000  0.0000
                                            0.0000  0.0000  0.0000  0.0000  0.0000
                                            0.0000  0.0000  0.0000  0.0000  0.0000
                                            0.0000 -0.0001  0.9995  0.0148  0.0049
                                           -0.0021  0.0000  0.0000  0.0000  0.0118
                                            0.0198  0.0077  0.0017  0.0014  0.0001
                                            0.0000  0.0000  0.0000  0.0000  0.0000
                                            0.0000 -0.0055  0.0016  0.0000  0.0000
                                            0.0000  0.0000  0.0064 -0.0015  0.0005
                                           -0.0003  0.0000  0.0000  0.0000  0.0000
    23. (1.95230) LP ( 3)Cl   2           s(  0.15%)p99.99( 99.80%)d 0.30(  0.04%)
                                                  f 0.06(  0.01%)
                                            0.0000 -0.0000  0.0379  0.0031  0.0041
                                           -0.0032  0.0000  0.0005  0.0013 -0.0000
                                           -0.0002 -0.0001  0.9989  0.0144  0.0013
                                            0.0013  0.0000  0.0000  0.0000  0.0000
                                            0.0000  0.0048  0.0180  0.0074  0.0000
                                            0.0000  0.0000  0.0000  0.0000  0.0000
                                           -0.0045 -0.0034 -0.0021  0.0007 -0.0010
                                            0.0002  0.0000  0.0000 -0.0001  0.0002
                                           -0.0025  0.0005  0.0000  0.0000  0.0000
                                            0.0000 -0.0008  0.0003  0.0084 -0.0020
    24. (1.97487) LP ( 1) I   3           s( 87.84%)p 0.14( 12.16%)d 0.00(  0.00%)
                                                  f 0.00(  0.00%)
                                            0.0006  0.9372  0.0023  0.0025  0.0005
                                           -0.0002 -0.0001 -0.0871  0.0004  0.0002
                                           -0.0002 -0.0005 -0.3376  0.0038  0.0015
                                           -0.0011  0.0000  0.0000  0.0000  0.0000
                                            0.0000 -0.0001 -0.0025 -0.0005 -0.0001
                                            0.0000  0.0000  0.0000  0.0000  0.0000
                                            0.0000  0.0000  0.0000  0.0001  0.0048
                                            0.0008  0.0001  0.0001  0.0034  0.0007
                                            0.0004  0.0000  0.0000  0.0004  0.0001
                                            0.0015  0.0002  0.0000  0.0000  0.0000
                                            0.0000  0.0013  0.0001  0.0015  0.0002
    25. (1.95243) LP ( 2) I   3           s(  0.00%)p 1.00( 99.99%)d 0.00(  0.01%)
                                                  f 0.00(  0.00%)
                                            0.0000  0.0000  0.0000  0.0000  0.0000
                                            0.0000  0.0000  0.0000  0.0000  0.0000
                                            0.0000  0.0000  0.0000  0.0000  0.0000
                                            0.0000  0.0008  0.9999  0.0073  0.0021
                                           -0.0000  0.0000  0.0000  0.0000  0.0000
                                           -0.0000  0.0004 -0.0013 -0.0019 -0.0001
                                            0.0060 -0.0025 -0.0052  0.0000  0.0000
                                            0.0000  0.0000  0.0000  0.0000  0.0000
                                            0.0000 -0.0032 -0.0013  0.0000  0.0000
                                            0.0000  0.0000 -0.0037 -0.0015  0.0017
                                            0.0006  0.0000  0.0000  0.0000  0.0000
    26. (1.95219) LP ( 3) I   3           s(  0.00%)p 1.00( 99.98%)d 0.00(  0.01%)
                                                  f 0.00(  0.00%)
                                            0.0000  0.0061 -0.0028 -0.0015 -0.0003
                                           -0.0000  0.0007  0.9722  0.0067  0.0021
                                           -0.0002 -0.0002 -0.2338 -0.0025 -0.0005
                                           -0.0001  0.0000  0.0000  0.0000  0.0000
                                            0.0000 -0.0001  0.0063 -0.0026 -0.0047
                                            0.0000  0.0000  0.0000  0.0000  0.0000
                                            0.0000  0.0000  0.0000 -0.0000  0.0015
                                           -0.0018 -0.0034  0.0000  0.0008  0.0008
                                            0.0006  0.0000  0.0000 -0.0012 -0.0004
                                            0.0005  0.0003  0.0000  0.0000  0.0000
                                            0.0000 -0.0039 -0.0015  0.0031  0.0010
    27. (0.02306) RY*( 1) O   1           s(  0.00%)p 1.00( 99.30%)d 0.01(  0.66%)
                                                  f 0.00(  0.04%)
                                            0.0000  0.0000  0.0000  0.0000  0.0000
                                            0.0000  0.0000  0.0000  0.0000  0.0000
                                            0.0000  0.0000  0.0000 -0.0204  0.9955
                                           -0.0386  0.0049  0.0000  0.0000  0.0000
                                            0.0666  0.0268  0.0041 -0.0355  0.0038
                                            0.0122  0.0000  0.0000  0.0000  0.0000
[...]
   158. (0.00088) RY*( 8) H   4           s( 16.19%)p 3.95( 64.03%)d 1.22( 19.77%)
                                            0.0038 -0.0040  0.3983 -0.0571 -0.0330
                                            0.2334  0.0990 -0.2505  0.6218  0.3543
                                            0.0000  0.0000  0.0000 -0.1183  0.0537
                                            0.0000  0.0000  0.0000  0.0000  0.2602
                                           -0.0869 -0.3234 -0.0313
   159. (0.00087) RY*( 9) H   4           s(  0.00%)p 1.00(  0.81%)d99.99( 99.19%)
                                            0.0000  0.0000  0.0000  0.0000  0.0000
                                            0.0000  0.0000  0.0000  0.0000  0.0000
                                            0.0095  0.0683 -0.0578  0.0000  0.0000
                                            0.9590 -0.0967 -0.2506 -0.0099  0.0000
                                            0.0000  0.0000  0.0000
   160. (0.00080) RY*(10) H   4           s(  2.96%)p 5.58( 16.49%)d27.25( 80.55%)
                                            0.0023  0.0098  0.1586 -0.0657  0.1271
                                            0.1224  0.0225 -0.1945  0.2339  0.2017
                                            0.0000  0.0000  0.0000  0.3663 -0.0008
                                            0.0000  0.0000  0.0000  0.0000 -0.2879
                                           -0.0210  0.7601 -0.1012
   161. (0.00053) RY*(11) H   4           s(  0.00%)p 1.00( 95.67%)d 0.05(  4.33%)
                                            0.0000  0.0000  0.0000  0.0000  0.0000
                                            0.0000  0.0000  0.0000  0.0000  0.0000
                                            0.1326  0.8657 -0.4356  0.0000  0.0000
                                           -0.0666 -0.0436  0.1098 -0.1577  0.0000
                                            0.0000  0.0000  0.0000
   162. (0.00035) RY*(12) H   4           s(  0.14%)p99.99( 99.30%)d 4.04(  0.56%)
                                            0.0030 -0.0241  0.0139  0.0246 -0.0377
                                           -0.9203  0.1366 -0.0571  0.3480 -0.0397
                                           -0.0000 -0.0000 -0.0000 -0.0012  0.0276
                                           -0.0000 -0.0000 -0.0000 -0.0000 -0.0243
                                            0.0529  0.0340  0.0169
   163. (0.00025) RY*(13) H   4           s( 37.50%)p 0.87( 32.77%)d 0.79( 29.73%)
                                            0.0081 -0.0422 -0.1467  0.5930  0.0638
                                            0.1984 -0.0079 -0.0470  0.3785 -0.3724
                                            0.0000  0.0000  0.0000  0.0642 -0.1630
                                            0.0000  0.0000  0.0000  0.0000  0.0375
                                            0.4227  0.0438  0.2908
   164. (0.00015) RY*(14) H   4           s( 69.89%)p 0.27( 18.92%)d 0.16( 11.19%)
                                           -0.0001  0.0127  0.7503  0.3685 -0.0644
                                           -0.1342 -0.2706 -0.0358 -0.2901 -0.0913
                                            0.0000  0.0000  0.0000 -0.0579 -0.2923
                                            0.0000  0.0000  0.0000  0.0000 -0.0342
                                           -0.1400  0.0351  0.0336
   165. (0.00011) RY*(15) H   4           s(  0.00%)p 1.00( 48.57%)d 1.06( 51.43%)
                                            0.0000  0.0000  0.0000  0.0000  0.0000
                                            0.0000  0.0000  0.0000  0.0000  0.0000
                                           -0.0248  0.4241  0.5525  0.0000  0.0000
                                            0.0202  0.2115 -0.0442  0.6835  0.0000
                                            0.0000  0.0000  0.0000
   166. (0.00012) RY*(16) H   4           s( 15.69%)p 1.08( 17.01%)d 4.29( 67.30%)
                                            0.0021  0.0099  0.3890 -0.0740  0.0301
                                            0.0408  0.2133 -0.0025 -0.1311 -0.3238
                                            0.0000  0.0000  0.0000  0.0108  0.7335
                                            0.0000  0.0000  0.0000  0.0000  0.0339
                                            0.3609  0.0317 -0.0496
   167. (0.00009) RY*(17) H   4           s( 41.25%)p 1.06( 43.66%)d 0.37( 15.09%)
   168. (0.00008) RY*(18) H   4           s(  0.00%)p 1.00( 54.01%)d 0.85( 45.99%)
   169. (0.00006) RY*(19) H   4           s( 10.04%)p 2.22( 22.32%)d 6.74( 67.64%)
   170. (0.00005) RY*(20) H   4           s(  3.18%)p27.29( 86.77%)d 3.16( 10.05%)
   171. (0.00003) RY*(21) H   4           s(  0.00%)p 1.00(  0.27%)d99.99( 99.73%)
   172. (0.00003) RY*(22) H   4           s(  0.28%)p 5.39(  1.53%)d99.99( 98.18%)
   173. (0.05710) BD*( 1) O   1 -Cl   2  
                ( 43.07%)   0.6563* O   1 s(  8.26%)p11.05( 91.25%)d 0.06(  0.48%)
                                                  f 0.00(  0.02%)
                                           -0.0003 -0.2804  0.0613 -0.0132  0.0009
                                           -0.9536  0.0460  0.0144  0.0149 -0.0135
                                            0.0192  0.0023 -0.0029 -0.0000 -0.0000
                                           -0.0000 -0.0000  0.0116  0.0009 -0.0009
                                           -0.0000 -0.0000 -0.0000 -0.0000 -0.0000
                                           -0.0000 -0.0564 -0.0032 -0.0007  0.0382
                                            0.0028 -0.0005 -0.0000 -0.0000  0.0101
                                           -0.0006 -0.0001  0.0004 -0.0000 -0.0000
                                           -0.0000 -0.0000 -0.0087 -0.0006  0.0009
                                           -0.0014
                ( 56.93%)  -0.7545*Cl   2 s(  9.46%)p 9.44( 89.35%)d 0.11(  1.06%)
                                                  f 0.01(  0.12%)
                                            0.0000 -0.0007 -0.3017  0.0593  0.0109
                                            0.0022  0.0005  0.9429 -0.0649 -0.0125
                                            0.0012  0.0000  0.0104  0.0054 -0.0027
                                            0.0022 -0.0000 -0.0000 -0.0000 -0.0000
                                           -0.0000 -0.0082  0.0012  0.0009 -0.0000
                                           -0.0000 -0.0000 -0.0000 -0.0000 -0.0000
                                           -0.0857  0.0131  0.0025  0.0544 -0.0083
                                           -0.0023 -0.0000 -0.0000 -0.0216  0.0026
                                           -0.0004  0.0003 -0.0000 -0.0000 -0.0000
                                           -0.0000  0.0268 -0.0025  0.0011 -0.0006
   174. (0.28926) BD*( 1) I   3 - H   4  
                ( 23.83%)   0.4882* I   3 s( 12.15%)p 7.21( 87.59%)d 0.02(  0.24%)
                                                  f 0.00(  0.03%)
                                           -0.0004 -0.3485  0.0053  0.0061  0.0003
                                           -0.0007 -0.0002 -0.2166  0.0039  0.0011
                                           -0.0003 -0.0010 -0.9102  0.0206  0.0065
                                           -0.0005 -0.0000 -0.0000 -0.0000 -0.0000
                                           -0.0000  0.0000 -0.0184 -0.0001  0.0010
                                           -0.0000 -0.0000 -0.0000 -0.0000 -0.0000
                                           -0.0000 -0.0000 -0.0000  0.0000  0.0373
                                           -0.0012 -0.0022 -0.0000  0.0249 -0.0001
                                           -0.0010 -0.0000 -0.0000  0.0023  0.0002
                                            0.0100  0.0009 -0.0000 -0.0000 -0.0000
                                           -0.0000  0.0081  0.0008  0.0100  0.0004
                ( 76.17%)  -0.8727* H   4 s( 99.65%)p 0.00(  0.30%)d 0.00(  0.05%)
                                           -0.9982  0.0074  0.0121 -0.0020  0.0108
                                            0.0011  0.0039  0.0500  0.0185  0.0036
                                           -0.0000 -0.0000 -0.0000 -0.0056 -0.0053
                                           -0.0000 -0.0000 -0.0000 -0.0000  0.0119
                                            0.0088  0.0127  0.0065


 NHO Directionality and "Bond Bending" (deviations from line of nuclear centers)

         [Thresholds for printing:  angular deviation  >  1.0 degree]
                                    hybrid p-character > 25.0%
                                    orbital occupancy  >  0.10e

                                Line of Centers        Hybrid 1              Hybrid 2
                                ---------------  -------------------   ------------------
                NBO               Theta   Phi    Theta   Phi    Dev    Theta   Phi    Dev
 ========================================================================================
     1. BD (   1) O   1 -Cl   2    90.0    0.0     --     --    --      90.0  181.0   1.0
    18. LP (   1) O   1             --     --     90.0  120.4   --       --     --    --
    19. LP (   2) O   1             --     --      0.0    0.0   --       --     --    --
    20. LP (   3) O   1             --     --     90.0  264.0   --       --     --    --
    22. LP (   2)Cl   2             --     --      0.0    0.0   --       --     --    --
    23. LP (   3)Cl   2             --     --     90.0   89.9   --       --     --    --
    25. LP (   2) I   3             --     --      0.0    0.0   --       --     --    --
    26. LP (   3) I   3             --     --     90.0  346.4   --       --     --    --


 Natural Bond Orbitals (Summary):

           NBO                  Occupancy  
 -----------------------------------------------
 Molecular unit  1  (OCl)
     1. BD (   1) O   1 -Cl   2          1.93392
     3. CR (   1) O   1                  1.99984
     4. CR (   1)Cl   2                  2.00000
     5. CR (   2)Cl   2                  1.99974
     6. CR (   3)Cl   2                  1.99995
     7. CR (   4)Cl   2                  2.00003
     8. CR (   5)Cl   2                  2.00003
    18. LP (   1) O   1                  1.96673
    19. LP (   2) O   1                  1.94691
    20. LP (   3) O   1                  1.69980
    21. LP (   1)Cl   2                  1.97357
    22. LP (   2)Cl   2                  1.95473
    23. LP (   3)Cl   2                  1.95230
    27. RY*(   1) O   1                  0.02306
    28. RY*(   2) O   1                  0.01897
    29. RY*(   3) O   1                  0.00853
    30. RY*(   4) O   1                  0.00695
    31. RY*(   5) O   1                  0.00682
    32. RY*(   6) O   1                  0.00636
    33. RY*(   7) O   1                  0.00579
    34. RY*(   8) O   1                  0.00492
    35. RY*(   9) O   1                  0.00216
    36. RY*(  10) O   1                  0.00068
    37. RY*(  11) O   1                  0.00067
    38. RY*(  12) O   1                  0.00063
    39. RY*(  13) O   1                  0.00060
    40. RY*(  14) O   1                  0.00054
    41. RY*(  15) O   1                  0.00052
    42. RY*(  16) O   1                  0.00050
    43. RY*(  17) O   1                  0.00050
    44. RY*(  18) O   1                  0.00048
    45. RY*(  19) O   1                  0.00046
    46. RY*(  20) O   1                  0.00046
    47. RY*(  21) O   1                  0.00046
    48. RY*(  22) O   1                  0.00046
    49. RY*(  23) O   1                  0.00042
    50. RY*(  24) O   1                  0.00028
    51. RY*(  25) O   1                  0.00026
    52. RY*(  26) O   1                  0.00014
    53. RY*(  27) O   1                  0.00013
    54. RY*(  28) O   1                  0.00011
    55. RY*(  29) O   1                  0.00011
    56. RY*(  30) O   1                  0.00009
    57. RY*(  31) O   1                  0.00009
    58. RY*(  32) O   1                  0.00009
    59. RY*(  33) O   1                  0.00009
    60. RY*(  34) O   1                  0.00009
    61. RY*(  35) O   1                  0.00008
    62. RY*(  36) O   1                  0.00009
    63. RY*(  37) O   1                  0.00008
    64. RY*(  38) O   1                  0.00004
    65. RY*(  39) O   1                  0.00004
    66. RY*(  40) O   1                  0.00001
    67. RY*(  41) O   1                 -0.00023
    68. RY*(   1)Cl   2                  0.02519
    69. RY*(   2)Cl   2                  0.02171
    70. RY*(   3)Cl   2                  0.01708
    71. RY*(   4)Cl   2                  0.01704
    72. RY*(   5)Cl   2                  0.01305
    73. RY*(   6)Cl   2                  0.00995
    74. RY*(   7)Cl   2                  0.00967
    75. RY*(   8)Cl   2                  0.00685
    76. RY*(   9)Cl   2                  0.00192
    77. RY*(  10)Cl   2                  0.00127
    78. RY*(  11)Cl   2                  0.00127
    79. RY*(  12)Cl   2                  0.00123
    80. RY*(  13)Cl   2                  0.00122
    81. RY*(  14)Cl   2                  0.00118
    82. RY*(  15)Cl   2                  0.00116
    83. RY*(  16)Cl   2                  0.00101
    84. RY*(  17)Cl   2                  0.00080
    85. RY*(  18)Cl   2                  0.00078
    86. RY*(  19)Cl   2                  0.00073
    87. RY*(  20)Cl   2                  0.00071
    88. RY*(  21)Cl   2                  0.00044
    89. RY*(  22)Cl   2                  0.00037
    90. RY*(  23)Cl   2                  0.00034
    91. RY*(  24)Cl   2                  0.00032
    92. RY*(  25)Cl   2                  0.00018
    93. RY*(  26)Cl   2                  0.00017
    94. RY*(  27)Cl   2                  0.00014
    95. RY*(  28)Cl   2                  0.00015
    96. RY*(  29)Cl   2                  0.00013
    97. RY*(  30)Cl   2                  0.00012
    98. RY*(  31)Cl   2                  0.00012
    99. RY*(  32)Cl   2                  0.00013
   100. RY*(  33)Cl   2                  0.00011
   101. RY*(  34)Cl   2                  0.00010
   102. RY*(  35)Cl   2                  0.00010
   103. RY*(  36)Cl   2                  0.00008
   104. RY*(  37)Cl   2                  0.00008
   105. RY*(  38)Cl   2                  0.00005
   106. RY*(  39)Cl   2                  0.00004
   107. RY*(  40)Cl   2                  0.00003
   108. RY*(  41)Cl   2                  0.00001
   173. BD*(   1) O   1 -Cl   2          0.05710
       -------------------------------
              Total Lewis   25.42754  ( 98.8852%)
        Valence non-Lewis    0.05710  (  0.2220%)
        Rydberg non-Lewis    0.22956  (  0.8927%)
       -------------------------------
            Total unit  1   25.71419  (100.0000%)
           Charge unit  1   -0.71419

 Molecular unit  2  (HI)
     2. BD (   1) I   3 - H   4          1.94989
     9. CR (   1) I   3                  1.99920
    10. CR (   2) I   3                  1.99986
    11. CR (   3) I   3                  1.99951
    12. CR (   4) I   3                  1.99988
    13. CR (   5) I   3                  1.99661
    14. CR (   6) I   3                  1.99679
    15. CR (   7) I   3                  1.99672
    16. CR (   8) I   3                  1.99631
    17. CR (   9) I   3                  1.99660
    24. LP (   1) I   3                  1.97487
    25. LP (   2) I   3                  1.95243
    26. LP (   3) I   3                  1.95219
   109. RY*(   1) I   3                  0.01923
   110. RY*(   2) I   3                  0.01924
   111. RY*(   3) I   3                  0.01801
   112. RY*(   4) I   3                  0.01785
   113. RY*(   5) I   3                  0.01708
   114. RY*(   6) I   3                  0.00943
   115. RY*(   7) I   3                  0.00941
   116. RY*(   8) I   3                  0.00829
   117. RY*(   9) I   3                  0.00366
   118. RY*(  10) I   3                  0.00272
   119. RY*(  11) I   3                  0.00272
   120. RY*(  12) I   3                  0.00252
   121. RY*(  13) I   3                  0.00253
   122. RY*(  14) I   3                  0.00216
   123. RY*(  15) I   3                  0.00206
   124. RY*(  16) I   3                  0.00202
   125. RY*(  17) I   3                  0.00150
   126. RY*(  18) I   3                  0.00150
   127. RY*(  19) I   3                  0.00109
   128. RY*(  20) I   3                  0.00099
   129. RY*(  21) I   3                  0.00098
   130. RY*(  22) I   3                  0.00078
   131. RY*(  23) I   3                  0.00058
   132. RY*(  24) I   3                  0.00059
   133. RY*(  25) I   3                  0.00039
   134. RY*(  26) I   3                  0.00039
   135. RY*(  27) I   3                  0.00036
   136. RY*(  28) I   3                  0.00035
   137. RY*(  29) I   3                  0.00032
   138. RY*(  30) I   3                  0.00030
   139. RY*(  31) I   3                  0.00030
   140. RY*(  32) I   3                  0.00028
   141. RY*(  33) I   3                  0.00021
   142. RY*(  34) I   3                  0.00018
   143. RY*(  35) I   3                  0.00015
   144. RY*(  36) I   3                  0.00012
   145. RY*(  37) I   3                  0.00010
   146. RY*(  38) I   3                  0.00010
   147. RY*(  39) I   3                  0.00008
   148. RY*(  40) I   3                  0.00008
   149. RY*(  41) I   3                  0.00006
   150. RY*(  42) I   3                  0.00001
   151. RY*(   1) H   4                  0.00736
   152. RY*(   2) H   4                  0.00706
   153. RY*(   3) H   4                  0.00575
   154. RY*(   4) H   4                  0.00498
   155. RY*(   5) H   4                  0.00186
   156. RY*(   6) H   4                  0.00180
   157. RY*(   7) H   4                  0.00176
   158. RY*(   8) H   4                  0.00088
   159. RY*(   9) H   4                  0.00087
   160. RY*(  10) H   4                  0.00080
   161. RY*(  11) H   4                  0.00053
   162. RY*(  12) H   4                  0.00035
   163. RY*(  13) H   4                  0.00025
   164. RY*(  14) H   4                  0.00015
   165. RY*(  15) H   4                  0.00011
   166. RY*(  16) H   4                  0.00012
   167. RY*(  17) H   4                  0.00009
   168. RY*(  18) H   4                  0.00008
   169. RY*(  19) H   4                  0.00006
   170. RY*(  20) H   4                  0.00005
   171. RY*(  21) H   4                  0.00003
   172. RY*(  22) H   4                  0.00003
   174. BD*(   1) I   3 - H   4          0.28926
       -------------------------------
              Total Lewis   53.81084  ( 99.1251%)
        Valence non-Lewis    0.28926  (  0.5329%)
        Rydberg non-Lewis    0.18570  (  0.3421%)
       -------------------------------
            Total unit  2   54.28581  (100.0000%)
           Charge unit  2   -0.28581
 Leave Link  607 at Tue Oct 12 15:37:44 2021, MaxMem=  1048576000 cpu:        10.4
 (Enter /usr/local/gaussian/g09/l9999.exe)
 1\1\GINC-KRYPTON\SP\RMP2-FC\Gen\Cl1H1I1O1(1-)\CGAVINH\12-Oct-2021\0\\#
 p pop=NBO SP NoSymm mp2/gen Pseudo=read density=current\\title\\-1,1\O
 \X,1,10.\Cl,1,1.68652173,2,90.\I,1,3.31229946,2,90.,3,103.24540347,0\H
 ,1,1.4,2,90.,3,103.24540347,0\\Version=ES64L-G09RevE.01\HF=-829.635759
 6\MP2=-830.3376949\RMSD=9.873e-09\Dipole=0.5712844,0.1151958,0.\Quadru
 pole=5.2572361,-13.0225645,7.7653284,-5.1846134,0.,0.\PG=CS [SG(Cl1H1I
 1O1)]\\@


 ONE OF THE BENEFITS OF A COLLEGE EDUCATION
 IS TO SHOW THE BOY ITS LITTLE AVAIL 
                                    EMERSON IN 'CULTURE'
 Job cpu time:       0 days  0 hours  2 minutes 39.4 seconds.
 File lengths (MBytes):  RWF=     13 Int=      0 D2E=      0 Chk=      3 Scr=      1
 Normal termination of Gaussian 09 at Tue Oct 12 15:37:44 2021.
