 Entering Gaussian System, Link 0=g09
 Input=ihocl_rOH_080_sp.gjf
 Output=ihocl_rOH_080_sp.log
 Initial command:
 /usr/local/gaussian/g09/l1.exe "/scratch/Gau-25349.inp" -scrdir="/scratch/"
 Entering Link 1 = /usr/local/gaussian/g09/l1.exe PID=     25350.
  
 Copyright (c) 1988,1990,1992,1993,1995,1998,2003,2009,2015,
            Gaussian, Inc.  All Rights Reserved.
  
 This is part of the Gaussian(R) 09 program.  It is based on
 the Gaussian(R) 03 system (copyright 2003, Gaussian, Inc.),
 the Gaussian(R) 98 system (copyright 1998, Gaussian, Inc.),
 the Gaussian(R) 94 system (copyright 1995, Gaussian, Inc.),
 the Gaussian 92(TM) system (copyright 1992, Gaussian, Inc.),
 the Gaussian 90(TM) system (copyright 1990, Gaussian, Inc.),
 the Gaussian 88(TM) system (copyright 1988, Gaussian, Inc.),
 the Gaussian 86(TM) system (copyright 1986, Carnegie Mellon
 University), and the Gaussian 82(TM) system (copyright 1983,
 Carnegie Mellon University). Gaussian is a federally registered
 trademark of Gaussian, Inc.
  
 This software contains proprietary and confidential information,
 including trade secrets, belonging to Gaussian, Inc.
  
 This software is provided under written license and may be
 used, copied, transmitted, or stored only in accord with that
 written license.
  
 The following legend is applicable only to US Government
 contracts under FAR:
  
                    RESTRICTED RIGHTS LEGEND
  
 Use, reproduction and disclosure by the US Government is
 subject to restrictions as set forth in subparagraphs (a)
 and (c) of the Commercial Computer Software - Restricted
 Rights clause in FAR 52.227-19.
  
 Gaussian, Inc.
 340 Quinnipiac St., Bldg. 40, Wallingford CT 06492
  
  
 ---------------------------------------------------------------
 Warning -- This program may not be used in any manner that
 competes with the business of Gaussian, Inc. or will provide
 assistance to any competitor of Gaussian, Inc.  The licensee
 of this program is prohibited from giving any competitor of
 Gaussian, Inc. access to this program.  By using this program,
 the user acknowledges that Gaussian, Inc. is engaged in the
 business of creating and licensing software in the field of
 computational chemistry and represents and warrants to the
 licensee that it is not a competitor of Gaussian, Inc. and that
 it will not use this program in any manner prohibited above.
 ---------------------------------------------------------------
  

 Cite this work as:
 Gaussian 09, Revision E.01,
 M. J. Frisch, G. W. Trucks, H. B. Schlegel, G. E. Scuseria, 
 M. A. Robb, J. R. Cheeseman, G. Scalmani, V. Barone, B. Mennucci, 
 G. A. Petersson, H. Nakatsuji, M. Caricato, X. Li, H. P. Hratchian, 
 A. F. Izmaylov, J. Bloino, G. Zheng, J. L. Sonnenberg, M. Hada, 
 M. Ehara, K. Toyota, R. Fukuda, J. Hasegawa, M. Ishida, T. Nakajima, 
 Y. Honda, O. Kitao, H. Nakai, T. Vreven, J. A. Montgomery, Jr., 
 J. E. Peralta, F. Ogliaro, M. Bearpark, J. J. Heyd, E. Brothers, 
 K. N. Kudin, V. N. Staroverov, T. Keith, R. Kobayashi, J. Normand, 
 K. Raghavachari, A. Rendell, J. C. Burant, S. S. Iyengar, J. Tomasi, 
 M. Cossi, N. Rega, J. M. Millam, M. Klene, J. E. Knox, J. B. Cross, 
 V. Bakken, C. Adamo, J. Jaramillo, R. Gomperts, R. E. Stratmann, 
 O. Yazyev, A. J. Austin, R. Cammi, C. Pomelli, J. W. Ochterski, 
 R. L. Martin, K. Morokuma, V. G. Zakrzewski, G. A. Voth, 
 P. Salvador, J. J. Dannenberg, S. Dapprich, A. D. Daniels, 
 O. Farkas, J. B. Foresman, J. V. Ortiz, J. Cioslowski, 
 and D. J. Fox, Gaussian, Inc., Wallingford CT, 2013.
 
 ******************************************
 Gaussian 09:  ES64L-G09RevE.01 30-Nov-2015
                12-Oct-2021 
 ******************************************
 %nproc=12
 Will use up to   12 processors via shared memory.
 %mem=8000MB
 %chk=/home/netid.washington.edu/cgavinh/mccoy_hocl/rOH_s_oop_0/ihocl/ihocl_rOH_0
 80_sp.chk
 --------------------------------------------------------
 #p pop=NBO SP NoSymm mp2/gen Pseudo=read density=current
 --------------------------------------------------------
 1/30=1,38=1/1;
 2/12=2,15=1,17=6,18=5,40=1/2;
 3/5=7,11=9,16=1,17=8,25=1,30=1,71=1/1,2,3;
 4//1;
 5/5=2,38=5/2;
 8/6=4,10=1/1;
 9/15=1,16=-3/6;
 10/5=1,13=10,31=1/2;
 6/7=2,8=2,9=2,10=2,22=-1,40=1/1,7;
 99/5=1,9=1/99;
 Leave Link    1 at Tue Oct 12 15:34:03 2021, MaxMem=  1048576000 cpu:         0.2
 (Enter /usr/local/gaussian/g09/l101.exe)
 -----
 title
 -----
 Symbolic Z-matrix:
 Charge = -1 Multiplicity = 1
 O
 X                    1     10. 
 Cl                   1    r1       2     90. 
 I                    1    r2       2     90.      3    a1       0
 H                    1    r3       2    oop      3    a1       0
       Variables:
  r1                    1.68652                  
  r2                    3.3123                   
  r3                    0.8                      
  a1                  103.2454                   
  OOP                  90.                       
 
 NAtoms=      4 NQM=        4 NQMF=       0 NMMI=      0 NMMIF=      0
                NMic=       0 NMicF=      0.
                    Isotopes and Nuclear Properties:
 (Nuclear quadrupole moments (NQMom) in fm**2, nuclear magnetic moments (NMagM)
  in nuclear magnetons)

  Atom         1           2           3           4
 IAtWgt=          16          35         127           1
 AtmWgt=  15.9949146  34.9688527 126.9004000   1.0078250
 NucSpn=           0           3           5           1
 AtZEff=   0.0000000   0.0000000   0.0000000   0.0000000
 NQMom=    0.0000000  -8.1650000 -71.0000000   0.0000000
 NMagM=    0.0000000   0.8218740   2.8132800   2.7928460
 AtZNuc=   8.0000000  17.0000000  53.0000000   1.0000000
 Leave Link  101 at Tue Oct 12 15:34:03 2021, MaxMem=  1048576000 cpu:         0.4
 (Enter /usr/local/gaussian/g09/l202.exe)
                          Input orientation:                          
 ---------------------------------------------------------------------
 Center     Atomic      Atomic             Coordinates (Angstroms)
 Number     Number       Type             X           Y           Z
 ---------------------------------------------------------------------
      1          8           0        0.000000    0.000000    0.000000
      2         17           0        1.686522    0.000000    0.000000
      3         53           0       -0.758922   -3.224184    0.000000
      4          1           0       -0.183298   -0.778718    0.000000
 ---------------------------------------------------------------------
                    Distance matrix (angstroms):
                    1          2          3          4
     1  O    0.000000
     2  Cl   1.686522   0.000000
     3  I    3.312299   4.046673   0.000000
     4  H    0.800000   2.025494   2.512299   0.000000
 Symmetry turned off by external request.
 Stoichiometry    ClHIO(1-)
 Framework group  CS[SG(ClHIO)]
 Deg. of freedom     5
 Full point group                 CS      NOp   2
 Rotational constants (GHZ):     21.6760947      0.9686967      0.9272579
 Leave Link  202 at Tue Oct 12 15:34:03 2021, MaxMem=  1048576000 cpu:         0.0
 (Enter /usr/local/gaussian/g09/l301.exe)
 General basis read from cards:  (5D, 7F)
 Centers:       4      1      2
 aug-cc-pVTZ
 ****
 Centers:       3
 S 11 1.00
     Exponent=  5.5465000000D+03 Coefficients=  1.5600000000D-04
     Exponent=  8.3821400000D+02 Coefficients=  9.8600000000D-04
     Exponent=  1.8218700000D+02 Coefficients=  2.7920000000D-03
     Exponent=  3.1212300000D+01 Coefficients= -4.3251000000D-02
     Exponent=  1.9531400000D+01 Coefficients=  2.3413400000D-01
     Exponent=  8.2409900000D+00 Coefficients= -7.5094300000D-01
     Exponent=  2.1945500000D+00 Coefficients=  8.8296800000D-01
     Exponent=  1.1091100000D+00 Coefficients=  4.6206100000D-01
     Exponent=  3.7464100000D-01 Coefficients=  2.2286000000D-02
     Exponent=  1.7708000000D-01 Coefficients= -4.3530000000D-03
     Exponent=  8.1061000000D-02 Coefficients=  1.1020000000D-03
 S 11 1.00
     Exponent=  5.5465000000D+03 Coefficients= -7.3000000000D-05
     Exponent=  8.3821400000D+02 Coefficients= -5.0800000000D-04
     Exponent=  1.8218700000D+02 Coefficients= -1.1580000000D-03
     Exponent=  3.1212300000D+01 Coefficients=  1.2193000000D-02
     Exponent=  1.9531400000D+01 Coefficients= -8.7854000000D-02
     Exponent=  8.2409900000D+00 Coefficients=  3.3820000000D-01
     Exponent=  2.1945500000D+00 Coefficients= -5.7655000000D-01
     Exponent=  1.1091100000D+00 Coefficients= -4.0929800000D-01
     Exponent=  3.7464100000D-01 Coefficients=  5.6745900000D-01
     Exponent=  1.7708000000D-01 Coefficients=  6.1248900000D-01
     Exponent=  8.1061000000D-02 Coefficients=  1.4323100000D-01
 S 1 1.00
     Exponent=  3.7464100000D-01 Coefficients=  1.0000000000D+00
 S 1 1.00
     Exponent=  1.7708000000D-01 Coefficients=  1.0000000000D+00
 S 1 1.00
     Exponent=  1.0010000000D-01 Coefficients=  1.0000000000D+00
 S 1 1.00
     Exponent=  4.1200000000D-02 Coefficients=  1.0000000000D+00
 P 9 1.00
     Exponent=  1.8898800000D+02 Coefficients=  5.8500000000D-04
     Exponent=  2.1286800000D+01 Coefficients=  3.6923000000D-02
     Exponent=  1.0039600000D+01 Coefficients= -2.3532400000D-01
     Exponent=  3.4518000000D+00 Coefficients=  3.4148300000D-01
     Exponent=  1.9745600000D+00 Coefficients=  5.3478800000D-01
     Exponent=  1.0242000000D+00 Coefficients=  2.6514100000D-01
     Exponent=  4.4943700000D-01 Coefficients=  2.5787000000D-02
     Exponent=  1.8664800000D-01 Coefficients=  5.2200000000D-04
     Exponent=  7.3481000000D-02 Coefficients=  6.0600000000D-04
 P 9 1.00
     Exponent=  1.8898800000D+02 Coefficients= -2.5600000000D-04
     Exponent=  2.1286800000D+01 Coefficients= -1.1682000000D-02
     Exponent=  1.0039600000D+01 Coefficients=  8.3192000000D-02
     Exponent=  3.4518000000D+00 Coefficients= -1.5697000000D-01
     Exponent=  1.9745600000D+00 Coefficients= -2.2451800000D-01
     Exponent=  1.0242000000D+00 Coefficients= -1.1445100000D-01
     Exponent=  4.4943700000D-01 Coefficients=  3.7535600000D-01
     Exponent=  1.8664800000D-01 Coefficients=  5.7513600000D-01
     Exponent=  7.3481000000D-02 Coefficients=  2.4591700000D-01
 P 1 1.00
     Exponent=  5.9810000000D-01 Coefficients=  1.0000000000D+00
 P 1 1.00
     Exponent=  9.6180000000D-02 Coefficients=  1.0000000000D+00
 P 1 1.00
     Exponent=  3.5900000000D-02 Coefficients=  1.0000000000D+00
 D 9 1.00
     Exponent=  1.3266200000D+02 Coefficients=  5.7200000000D-04
     Exponent=  3.7605400000D+01 Coefficients=  4.4020000000D-03
     Exponent=  1.0389100000D+01 Coefficients= -4.0922000000D-02
     Exponent=  6.4901700000D+00 Coefficients=  9.9661000000D-02
     Exponent=  3.4545100000D+00 Coefficients=  3.2266300000D-01
     Exponent=  1.8441300000D+00 Coefficients=  4.0034300000D-01
     Exponent=  9.6247800000D-01 Coefficients=  2.6830600000D-01
     Exponent=  4.7285300000D-01 Coefficients=  8.4847000000D-02
     Exponent=  1.9320000000D-01 Coefficients=  7.6320000000D-03
 D 1 1.00
     Exponent=  4.7285300000D-01 Coefficients=  1.0000000000D+00
 D 1 1.00
     Exponent=  1.9320000000D-01 Coefficients=  1.0000000000D+00
 D 1 1.00
     Exponent=  7.8200000000D-02 Coefficients=  1.0000000000D+00
 F 1 1.00
     Exponent=  4.0640000000D-01 Coefficients=  1.0000000000D+00
 F 1 1.00
     Exponent=  1.8480000000D-01 Coefficients=  1.0000000000D+00
 ****
 ======================================================================================================
                                       Pseudopotential Parameters
 ======================================================================================================
  Center     Atomic      Valence      Angular      Power
  Number     Number     Electrons     Momentum     of R      Exponent        Coefficient   SO-Coeffient
 ======================================================================================================
    1          8
                                   No pseudopotential on this center.
    2         17
                                   No pseudopotential on this center.
    3         53           25
                                      G and up 
                                                     2        1.0000000        0.00000000    0.00000000
                                      S - G
                                                     2       40.0333760       49.98964900    0.00000000
                                                     2       17.3005760      281.00655600    0.00000000
                                                     2        8.8517200       61.41673900    0.00000000
                                      P - G
                                                     2       15.7201410       67.41623900    0.00000000
                                                     2       15.2082220      134.80769600    0.00000000
                                                     2        8.2941860       14.56654800    0.00000000
                                                     2        7.7539490       28.96842200    0.00000000
                                      D - G
                                                     2       13.8177510       35.53875600    0.00000000
                                                     2       13.5878050       53.33975900    0.00000000
                                                     2        6.9476300        9.71646600    0.00000000
                                                     2        6.9600990       14.97750000    0.00000000
                                      F - G
                                                     2       18.5229500      -20.17661800    0.00000000
                                                     2       18.2510350      -26.08807700    0.00000000
                                                     2        7.5579010       -0.22043400    0.00000000
                                                     2        7.5974040       -0.22164600    0.00000000
    4          1
                                   No pseudopotential on this center.
 ======================================================================================================
 Ernie: Thresh=  0.10000D-02 Tol=  0.10000D-05 Strict=F.
 Ernie:  23 primitive shells out of 166 were deleted.
   174 basis functions,   383 primitive gaussians,   204 cartesian basis functions
    26 alpha electrons       26 beta electrons
       nuclear repulsion energy       145.2003884050 Hartrees.
 IExCor=    0 DFT=F Ex=HF Corr=None ExCW=0 ScaHFX=  1.000000
 ScaDFX=  1.000000  1.000000  1.000000  1.000000 ScalE2=  1.000000  1.000000
 IRadAn=      0 IRanWt=     -1 IRanGd=            0 ICorTp=0 IEmpDi=  4
 NAtoms=    4 NActive=    4 NUniq=    4 SFac= 1.00D+00 NAtFMM=   60 NAOKFM=F Big=F
 Integral buffers will be    131072 words long.
 Raffenetti 1 integral format.
 Two-electron integral symmetry is turned off.
 Leave Link  301 at Tue Oct 12 15:34:03 2021, MaxMem=  1048576000 cpu:         0.6
 (Enter /usr/local/gaussian/g09/l302.exe)
 NPDir=0 NMtPBC=     1 NCelOv=     1 NCel=       1 NClECP=     1 NCelD=      1
         NCelK=      1 NCelE2=     1 NClLst=     1 CellRange=     0.0.
 One-electron integrals computed using PRISM.
   1 Symmetry operations used in ECPInt.
 ECPInt:  NShTT=    1596 NPrTT=   10643 LenC2=    1597 LenP2D=    8419.
 LDataN:  DoStor=T MaxTD1= 7 Len=  274
 NBasis=   174 RedAO= T EigKep=  1.70D-04  NBF=   174
 NBsUse=   174 1.00D-06 EigRej= -1.00D+00 NBFU=   174
 Leave Link  302 at Tue Oct 12 15:34:03 2021, MaxMem=  1048576000 cpu:         3.1
 (Enter /usr/local/gaussian/g09/l303.exe)
 DipDrv:  MaxL=1.
 Leave Link  303 at Tue Oct 12 15:34:03 2021, MaxMem=  1048576000 cpu:         0.2
 (Enter /usr/local/gaussian/g09/l401.exe)
 ExpMin= 2.53D-02 ExpMax= 4.56D+05 ExpMxC= 1.44D+03 IAcc=3 IRadAn=         5 AccDes= 0.00D+00
 Harris functional with IExCor=  205 and IRadAn=       5 diagonalized for initial guess.
 HarFok:  IExCor=  205 AccDes= 0.00D+00 IRadAn=         5 IDoV= 1 UseB2=F ITyADJ=14
 ICtDFT=  3500011 ScaDFX=  1.000000  1.000000  1.000000  1.000000
 Defaulting to unpruned grid for atomic number  53.
 Defaulting to unpruned grid for atomic number  53.
 Defaulting to unpruned grid for atomic number  53.
 Defaulting to unpruned grid for atomic number  53.
 Defaulting to unpruned grid for atomic number  53.
 Defaulting to unpruned grid for atomic number  53.
 Defaulting to unpruned grid for atomic number  53.
 Defaulting to unpruned grid for atomic number  53.
 Defaulting to unpruned grid for atomic number  53.
 Defaulting to unpruned grid for atomic number  53.
 Defaulting to unpruned grid for atomic number  53.
 Defaulting to unpruned grid for atomic number  53.
 FoFCou: FMM=F IPFlag=           0 FMFlag=      100000 FMFlg1=           0
         NFxFlg=           0 DoJE=T BraDBF=F KetDBF=T FulRan=T
         wScrn=  0.000000 ICntrl=     500 IOpCl=  0 I1Cent=   200000004 NGrid=           0
         NMat0=    1 NMatS0=      1 NMatT0=    0 NMatD0=    1 NMtDS0=    0 NMtDT0=    0
 Symmetry not used in FoFCou.
 Harris En= -831.026915218243    
 JPrj=0 DoOrth=F DoCkMO=F.
 Leave Link  401 at Tue Oct 12 15:34:03 2021, MaxMem=  1048576000 cpu:         3.1
 (Enter /usr/local/gaussian/g09/l502.exe)
 Closed shell SCF:
 Using DIIS extrapolation, IDIIS=  1040.
 Two-electron integral symmetry not used.
 Keep R1 ints in memory in canonical form, NReq=124441351.
 IVT=      147078 IEndB=      147078 NGot=  1048576000 MDV=   932520998
 LenX=   932520998 LenY=   932478941
 Requested convergence on RMS density matrix=1.00D-08 within 128 cycles.
 Requested convergence on MAX density matrix=1.00D-06.
 Requested convergence on             energy=1.00D-06.
 No special actions if energy rises.
 FoFCou: FMM=F IPFlag=           0 FMFlag=           0 FMFlg1=           0
         NFxFlg=           0 DoJE=F BraDBF=F KetDBF=F FulRan=T
         wScrn=  0.000000 ICntrl=     600 IOpCl=  0 I1Cent=           0 NGrid=           0
         NMat0=    1 NMatS0=  15225 NMatT0=    0 NMatD0=    1 NMtDS0=    0 NMtDT0=    0
 Symmetry not used in FoFCou.

 Cycle   1  Pass 1  IDiag  1:
 E= -829.468018134774    
 DIIS: error= 3.77D-02 at cycle   1 NSaved=   1.
 NSaved= 1 IEnMin= 1 EnMin= -829.468018134774     IErMin= 1 ErrMin= 3.77D-02
 ErrMax= 3.77D-02  0.00D+00 EMaxC= 1.00D-01 BMatC= 4.98D-01 BMatP= 4.98D-01
 IDIUse=3 WtCom= 6.23D-01 WtEn= 3.77D-01
 Coeff-Com:  0.100D+01
 Coeff-En:   0.100D+01
 Coeff:      0.100D+01
 Gap=     0.377 Goal=   None    Shift=    0.000
 GapD=    0.377 DampG=1.000 DampE=0.500 DampFc=0.5000 IDamp=-1.
 Damping current iteration by 5.00D-01
 RMSDP=3.47D-03 MaxDP=1.02D-01              OVMax= 1.28D-01

 Cycle   2  Pass 1  IDiag  1:
 E= -829.560467100897     Delta-E=       -0.092448966123 Rises=F Damp=T
 DIIS: error= 1.82D-02 at cycle   2 NSaved=   2.
 NSaved= 2 IEnMin= 2 EnMin= -829.560467100897     IErMin= 2 ErrMin= 1.82D-02
 ErrMax= 1.82D-02  0.00D+00 EMaxC= 1.00D-01 BMatC= 9.12D-02 BMatP= 4.98D-01
 IDIUse=3 WtCom= 8.18D-01 WtEn= 1.82D-01
 Coeff-Com: -0.536D+00 0.154D+01
 Coeff-En:   0.000D+00 0.100D+01
 Coeff:     -0.438D+00 0.144D+01
 Gap=     0.287 Goal=   None    Shift=    0.000
 RMSDP=1.49D-03 MaxDP=8.19D-02 DE=-9.24D-02 OVMax= 7.94D-02

 Cycle   3  Pass 1  IDiag  1:
 E= -829.646299172685     Delta-E=       -0.085832071789 Rises=F Damp=F
 DIIS: error= 5.98D-03 at cycle   3 NSaved=   3.
 NSaved= 3 IEnMin= 3 EnMin= -829.646299172685     IErMin= 3 ErrMin= 5.98D-03
 ErrMax= 5.98D-03  0.00D+00 EMaxC= 1.00D-01 BMatC= 5.26D-03 BMatP= 9.12D-02
 IDIUse=3 WtCom= 9.40D-01 WtEn= 5.98D-02
 Coeff-Com: -0.193D+00 0.386D+00 0.808D+00
 Coeff-En:   0.000D+00 0.000D+00 0.100D+01
 Coeff:     -0.182D+00 0.363D+00 0.819D+00
 Gap=     0.291 Goal=   None    Shift=    0.000
 RMSDP=3.71D-04 MaxDP=1.54D-02 DE=-8.58D-02 OVMax= 2.59D-02

 Cycle   4  Pass 1  IDiag  1:
 E= -829.650192928387     Delta-E=       -0.003893755702 Rises=F Damp=F
 DIIS: error= 1.46D-03 at cycle   4 NSaved=   4.
 NSaved= 4 IEnMin= 4 EnMin= -829.650192928387     IErMin= 4 ErrMin= 1.46D-03
 ErrMax= 1.46D-03  0.00D+00 EMaxC= 1.00D-01 BMatC= 1.73D-04 BMatP= 5.26D-03
 IDIUse=3 WtCom= 9.85D-01 WtEn= 1.46D-02
 Coeff-Com:  0.591D-02-0.277D-01 0.100D+00 0.921D+00
 Coeff-En:   0.000D+00 0.000D+00 0.000D+00 0.100D+01
 Coeff:      0.583D-02-0.273D-01 0.989D-01 0.923D+00
 Gap=     0.295 Goal=   None    Shift=    0.000
 RMSDP=9.76D-05 MaxDP=5.63D-03 DE=-3.89D-03 OVMax= 3.29D-03

 Cycle   5  Pass 1  IDiag  1:
 E= -829.650383774672     Delta-E=       -0.000190846285 Rises=F Damp=F
 DIIS: error= 2.86D-04 at cycle   5 NSaved=   5.
 NSaved= 5 IEnMin= 5 EnMin= -829.650383774672     IErMin= 5 ErrMin= 2.86D-04
 ErrMax= 2.86D-04  0.00D+00 EMaxC= 1.00D-01 BMatC= 1.52D-05 BMatP= 1.73D-04
 IDIUse=3 WtCom= 9.97D-01 WtEn= 2.86D-03
 Coeff-Com:  0.207D-01-0.377D-01-0.819D-01-0.881D-01 0.119D+01
 Coeff-En:   0.000D+00 0.000D+00 0.000D+00 0.000D+00 0.100D+01
 Coeff:      0.207D-01-0.376D-01-0.816D-01-0.879D-01 0.119D+01
 Gap=     0.293 Goal=   None    Shift=    0.000
 RMSDP=5.25D-05 MaxDP=2.11D-03 DE=-1.91D-04 OVMax= 3.10D-03

 Cycle   6  Pass 1  IDiag  1:
 E= -829.650423276965     Delta-E=       -0.000039502293 Rises=F Damp=F
 DIIS: error= 1.20D-04 at cycle   6 NSaved=   6.
 NSaved= 6 IEnMin= 6 EnMin= -829.650423276965     IErMin= 6 ErrMin= 1.20D-04
 ErrMax= 1.20D-04  0.00D+00 EMaxC= 1.00D-01 BMatC= 1.88D-06 BMatP= 1.52D-05
 IDIUse=3 WtCom= 9.99D-01 WtEn= 1.20D-03
 Coeff-Com: -0.636D-02 0.129D-01 0.173D-01-0.896D-01-0.255D+00 0.132D+01
 Coeff-En:   0.000D+00 0.000D+00 0.000D+00 0.000D+00 0.000D+00 0.100D+01
 Coeff:     -0.636D-02 0.129D-01 0.173D-01-0.895D-01-0.255D+00 0.132D+01
 Gap=     0.294 Goal=   None    Shift=    0.000
 RMSDP=1.66D-05 MaxDP=4.93D-04 DE=-3.95D-05 OVMax= 1.40D-03

 Cycle   7  Pass 1  IDiag  1:
 E= -829.650429747629     Delta-E=       -0.000006470663 Rises=F Damp=F
 DIIS: error= 4.28D-05 at cycle   7 NSaved=   7.
 NSaved= 7 IEnMin= 7 EnMin= -829.650429747629     IErMin= 7 ErrMin= 4.28D-05
 ErrMax= 4.28D-05  0.00D+00 EMaxC= 1.00D-01 BMatC= 1.82D-07 BMatP= 1.88D-06
 IDIUse=1 WtCom= 1.00D+00 WtEn= 0.00D+00
 Coeff-Com: -0.181D-03 0.721D-04 0.433D-02 0.221D-01-0.827D-01-0.193D+00
 Coeff-Com:  0.125D+01
 Coeff:     -0.181D-03 0.721D-04 0.433D-02 0.221D-01-0.827D-01-0.193D+00
 Coeff:      0.125D+01
 Gap=     0.294 Goal=   None    Shift=    0.000
 RMSDP=5.93D-06 MaxDP=1.63D-04 DE=-6.47D-06 OVMax= 5.72D-04

 Cycle   8  Pass 1  IDiag  1:
 E= -829.650430489704     Delta-E=       -0.000000742075 Rises=F Damp=F
 DIIS: error= 1.21D-05 at cycle   8 NSaved=   8.
 NSaved= 8 IEnMin= 8 EnMin= -829.650430489704     IErMin= 8 ErrMin= 1.21D-05
 ErrMax= 1.21D-05  0.00D+00 EMaxC= 1.00D-01 BMatC= 2.21D-08 BMatP= 1.82D-07
 IDIUse=1 WtCom= 1.00D+00 WtEn= 0.00D+00
 Coeff-Com:  0.974D-03-0.197D-02-0.212D-02 0.127D-01 0.272D-01-0.174D+00
 Coeff-Com:  0.545D-01 0.108D+01
 Coeff:      0.974D-03-0.197D-02-0.212D-02 0.127D-01 0.272D-01-0.174D+00
 Coeff:      0.545D-01 0.108D+01
 Gap=     0.294 Goal=   None    Shift=    0.000
 RMSDP=1.93D-06 MaxDP=4.47D-05 DE=-7.42D-07 OVMax= 2.14D-04

 Cycle   9  Pass 1  IDiag  1:
 E= -829.650430566856     Delta-E=       -0.000000077153 Rises=F Damp=F
 DIIS: error= 4.03D-06 at cycle   9 NSaved=   9.
 NSaved= 9 IEnMin= 9 EnMin= -829.650430566856     IErMin= 9 ErrMin= 4.03D-06
 ErrMax= 4.03D-06  0.00D+00 EMaxC= 1.00D-01 BMatC= 2.39D-09 BMatP= 2.21D-08
 IDIUse=1 WtCom= 1.00D+00 WtEn= 0.00D+00
 Coeff-Com: -0.263D-03 0.555D-03 0.149D-03-0.614D-02 0.280D-02 0.686D-01
 Coeff-Com: -0.126D+00-0.449D+00 0.151D+01
 Coeff:     -0.263D-03 0.555D-03 0.149D-03-0.614D-02 0.280D-02 0.686D-01
 Coeff:     -0.126D+00-0.449D+00 0.151D+01
 Gap=     0.294 Goal=   None    Shift=    0.000
 RMSDP=8.85D-07 MaxDP=2.54D-05 DE=-7.72D-08 OVMax= 1.06D-04

 Cycle  10  Pass 1  IDiag  1:
 E= -829.650430579530     Delta-E=       -0.000000012674 Rises=F Damp=F
 DIIS: error= 1.40D-06 at cycle  10 NSaved=  10.
 NSaved=10 IEnMin=10 EnMin= -829.650430579530     IErMin=10 ErrMin= 1.40D-06
 ErrMax= 1.40D-06  0.00D+00 EMaxC= 1.00D-01 BMatC= 2.26D-10 BMatP= 2.39D-09
 IDIUse=1 WtCom= 1.00D+00 WtEn= 0.00D+00
 Coeff-Com: -0.413D-04 0.802D-04 0.144D-03 0.178D-03-0.376D-02 0.323D-02
 Coeff-Com:  0.270D-01-0.226D-01-0.328D+00 0.132D+01
 Coeff:     -0.413D-04 0.802D-04 0.144D-03 0.178D-03-0.376D-02 0.323D-02
 Coeff:      0.270D-01-0.226D-01-0.328D+00 0.132D+01
 Gap=     0.294 Goal=   None    Shift=    0.000
 RMSDP=2.59D-07 MaxDP=8.30D-06 DE=-1.27D-08 OVMax= 3.14D-05

 Cycle  11  Pass 1  IDiag  1:
 E= -829.650430580668     Delta-E=       -0.000000001138 Rises=F Damp=F
 DIIS: error= 4.91D-07 at cycle  11 NSaved=  11.
 NSaved=11 IEnMin=11 EnMin= -829.650430580668     IErMin=11 ErrMin= 4.91D-07
 ErrMax= 4.91D-07  0.00D+00 EMaxC= 1.00D-01 BMatC= 1.97D-11 BMatP= 2.26D-10
 IDIUse=1 WtCom= 1.00D+00 WtEn= 0.00D+00
 Coeff-Com:  0.331D-04-0.702D-04-0.311D-04 0.724D-03-0.115D-03-0.834D-02
 Coeff-Com:  0.123D-01 0.510D-01-0.137D+00-0.157D+00 0.124D+01
 Coeff:      0.331D-04-0.702D-04-0.311D-04 0.724D-03-0.115D-03-0.834D-02
 Coeff:      0.123D-01 0.510D-01-0.137D+00-0.157D+00 0.124D+01
 Gap=     0.294 Goal=   None    Shift=    0.000
 RMSDP=8.21D-08 MaxDP=2.66D-06 DE=-1.14D-09 OVMax= 9.49D-06

 Cycle  12  Pass 1  IDiag  1:
 E= -829.650430580763     Delta-E=       -0.000000000094 Rises=F Damp=F
 DIIS: error= 9.66D-08 at cycle  12 NSaved=  12.
 NSaved=12 IEnMin=12 EnMin= -829.650430580763     IErMin=12 ErrMin= 9.66D-08
 ErrMax= 9.66D-08  0.00D+00 EMaxC= 1.00D-01 BMatC= 7.90D-13 BMatP= 1.97D-11
 IDIUse=1 WtCom= 1.00D+00 WtEn= 0.00D+00
 Coeff-Com: -0.198D-05 0.468D-05-0.558D-05-0.930D-04 0.282D-03 0.735D-03
 Coeff-Com: -0.295D-02-0.559D-02 0.350D-01-0.399D-01-0.195D+00 0.121D+01
 Coeff:     -0.198D-05 0.468D-05-0.558D-05-0.930D-04 0.282D-03 0.735D-03
 Coeff:     -0.295D-02-0.559D-02 0.350D-01-0.399D-01-0.195D+00 0.121D+01
 Gap=     0.294 Goal=   None    Shift=    0.000
 RMSDP=2.14D-08 MaxDP=9.67D-07 DE=-9.45D-11 OVMax= 1.28D-06

 Cycle  13  Pass 1  IDiag  1:
 E= -829.650430580767     Delta-E=       -0.000000000005 Rises=F Damp=F
 DIIS: error= 2.08D-08 at cycle  13 NSaved=  13.
 NSaved=13 IEnMin=13 EnMin= -829.650430580767     IErMin=13 ErrMin= 2.08D-08
 ErrMax= 2.08D-08  0.00D+00 EMaxC= 1.00D-01 BMatC= 6.71D-14 BMatP= 7.90D-13
 IDIUse=1 WtCom= 1.00D+00 WtEn= 0.00D+00
 Coeff-Com: -0.215D-05 0.459D-05 0.125D-05-0.435D-04-0.254D-05 0.520D-03
 Coeff-Com: -0.699D-03-0.297D-02 0.723D-02 0.140D-01-0.848D-01-0.334D-01
 Coeff-Com:  0.110D+01
 Coeff:     -0.215D-05 0.459D-05 0.125D-05-0.435D-04-0.254D-05 0.520D-03
 Coeff:     -0.699D-03-0.297D-02 0.723D-02 0.140D-01-0.848D-01-0.334D-01
 Coeff:      0.110D+01
 Gap=     0.294 Goal=   None    Shift=    0.000
 RMSDP=5.65D-09 MaxDP=3.43D-07 DE=-4.55D-12 OVMax= 4.00D-07

 SCF Done:  E(RHF) =  -829.650430581     A.U. after   13 cycles
            NFock= 13  Conv=0.57D-08     -V/T= 2.2841
 KE= 6.461094980848D+02 PE=-2.198786435274D+03 EE= 5.778261182032D+02
 Leave Link  502 at Tue Oct 12 15:34:07 2021, MaxMem=  1048576000 cpu:        17.3
 (Enter /usr/local/gaussian/g09/l801.exe)
 ExpMin= 2.53D-02 ExpMax= 4.56D+05 ExpMxC= 1.44D+03 IAcc=3 IRadAn=         5 AccDes= 0.00D+00
 HarFok:  IExCor=  205 AccDes= 0.00D+00 IRadAn=         5 IDoV=-2 UseB2=F ITyADJ=14
 ICtDFT= 12500011 ScaDFX=  1.000000  1.000000  1.000000  1.000000
 Defaulting to unpruned grid for atomic number  53.
 Defaulting to unpruned grid for atomic number  53.
 Defaulting to unpruned grid for atomic number  53.
 Defaulting to unpruned grid for atomic number  53.
 Defaulting to unpruned grid for atomic number  53.
 Defaulting to unpruned grid for atomic number  53.
 Defaulting to unpruned grid for atomic number  53.
 Defaulting to unpruned grid for atomic number  53.
 Defaulting to unpruned grid for atomic number  53.
 Defaulting to unpruned grid for atomic number  53.
 Defaulting to unpruned grid for atomic number  53.
 Defaulting to unpruned grid for atomic number  53.
 Largest valence mixing into a core orbital is  4.48D-04
 Largest core mixing into a valence orbital is  1.60D-04
 Range of M.O.s used for correlation:    11   174
 NBasis=   174 NAE=    26 NBE=    26 NFC=    10 NFV=     0
 NROrb=    164 NOA=    16 NOB=    16 NVA=   148 NVB=   148

 **** Warning!!: The largest alpha MO coefficient is  0.20156371D+02

 Leave Link  801 at Tue Oct 12 15:34:07 2021, MaxMem=  1048576000 cpu:         0.8
 (Enter /usr/local/gaussian/g09/l906.exe)
 Frozen-core derivative calculation, NFC=  10 NFV=   0.
 FulOut=F Deriv=T AODrv=F NAtomX=     4
   MMem=         239  MDisk=          16 MDiskD=          16
  W3Min=      922896 MinDsk=     1491158 NBas6D=         204
 NBas2D=       21411    NTT=       20910    LW2=    26219120
    MDV=  1048172287 MDiskM=       25641 NBas2p=       21407
 Fully in-core method, ICMem=   539113593.
 IMap=   1   2   3   4   5   6   7   8   9  10  11  12  13  14  15  16  17  18  19  20
 IMap=  21  22  23  24  25  26
 JobTyp=1 Pass  1 fully in-core, NPsUse= 12.
 Compute canonical integrals.
 FoFCou: FMM=F IPFlag=           0 FMFlag=           0 FMFlg1=           0
         NFxFlg=           0 DoJE=F BraDBF=F KetDBF=F FulRan=T
         wScrn=  0.000000 ICntrl=     600 IOpCl=  1 I1Cent=           0 NGrid=           0
         NMat0=    1 NMatS0=  21411 NMatT0=    0 NMatD0=    1 NMtDS0=    0 NMtDT0=    0
 Symmetry not used in FoFCou.
 Spin components of T(2) and E(2):
     alpha-alpha T2 =       0.3011882152D-01 E2=     -0.8964785826D-01
     alpha-beta  T2 =       0.1602572057D+00 E2=     -0.4913053809D+00
     beta-beta   T2 =       0.3011882152D-01 E2=     -0.8964785826D-01
 The integrals were generated   1 times.
 ANorm=    0.1104760087D+01
 E2 =    -0.6706010974D+00 EUMP2 =    -0.83032103167817D+03
 Leave Link  906 at Tue Oct 12 15:34:15 2021, MaxMem=  1048576000 cpu:       104.4
 (Enter /usr/local/gaussian/g09/l1002.exe)
 Minotr:  Closed shell wavefunction.
          Computing MP2/KS-MP2 derivatives.
          Using Z-Vector for PSCF gradient.
          Skipping F1 and S1 gradient terms here.
          Frozen-core window.
          Direct CPHF calculation.
          Differentiating once with respect to electric field.
                with respect to dipole field.
          Electric field/nuclear overlap derivatives assumed to be zero.
          Requested convergence is 1.0D-10 RMS, and 1.0D-09 maximum.
          NewPWx=F KeepS1=T KeepF1=T KeepIn=T MapXYZ=F SortEE=F KeepMc=T.
          MDV=    1048575800 using IRadAn=       0.
 Keep R1 ints in memory in canonical form, NReq=124351794.
 FoFCou: FMM=F IPFlag=           0 FMFlag=           0 FMFlg1=           0
         NFxFlg=           0 DoJE=F BraDBF=F KetDBF=F FulRan=T
         wScrn=  0.000000 ICntrl=     600 IOpCl=  0 I1Cent=           0 NGrid=           0
         NMat0=    1 NMatS0=  15225 NMatT0=    0 NMatD0=    1 NMtDS0=    0 NMtDT0=    0
 Symmetry not used in FoFCou.
          Solving linear equations separately, MaxMat=       0.
          There are     1 degrees of freedom in the 1st order CPHF.  IDoFFX=0 NUNeed=     1.
 LinEq1:  Iter=  0 NonCon=     1 RMS=2.64D-03 Max=4.05D-02 NDo=     1
 AX will form     1 AO Fock derivatives at one time.
 LinEq1:  Iter=  1 NonCon=     1 RMS=4.05D-04 Max=4.56D-03 NDo=     1
 LinEq1:  Iter=  2 NonCon=     1 RMS=1.70D-04 Max=3.14D-03 NDo=     1
 LinEq1:  Iter=  3 NonCon=     1 RMS=4.20D-05 Max=6.79D-04 NDo=     1
 LinEq1:  Iter=  4 NonCon=     1 RMS=1.68D-05 Max=5.41D-04 NDo=     1
 LinEq1:  Iter=  5 NonCon=     1 RMS=5.44D-06 Max=6.81D-05 NDo=     1
 LinEq1:  Iter=  6 NonCon=     1 RMS=1.51D-06 Max=2.12D-05 NDo=     1
 LinEq1:  Iter=  7 NonCon=     1 RMS=3.19D-07 Max=4.21D-06 NDo=     1
 LinEq1:  Iter=  8 NonCon=     1 RMS=8.09D-08 Max=1.44D-06 NDo=     1
 LinEq1:  Iter=  9 NonCon=     1 RMS=2.20D-08 Max=3.65D-07 NDo=     1
 LinEq1:  Iter= 10 NonCon=     1 RMS=5.19D-09 Max=1.21D-07 NDo=     1
 LinEq1:  Iter= 11 NonCon=     1 RMS=1.54D-09 Max=3.39D-08 NDo=     1
 LinEq1:  Iter= 12 NonCon=     1 RMS=4.75D-10 Max=7.58D-09 NDo=     1
 LinEq1:  Iter= 13 NonCon=     1 RMS=1.03D-10 Max=1.23D-09 NDo=     1
 LinEq1:  Iter= 14 NonCon=     0 RMS=2.05D-11 Max=3.08D-10 NDo=     1
 Linear equations converged to 1.000D-10 1.000D-09 after    14 iterations.
 End of Minotr F.D. properties file   721 does not exist.
 End of Minotr F.D. properties file   722 does not exist.
 End of Minotr F.D. properties file   788 does not exist.
 Leave Link 1002 at Tue Oct 12 15:34:19 2021, MaxMem=  1048576000 cpu:        16.5
 (Enter /usr/local/gaussian/g09/l601.exe)
 Copying SCF densities to generalized density rwf, IOpCl= 0 IROHF=0.

 **********************************************************************

            Population analysis using the MP2 density.

 **********************************************************************

 Alpha  occ. eigenvalues -- -104.75636 -20.47495 -10.47561  -7.94280  -7.93996
 Alpha  occ. eigenvalues --   -7.93985  -7.46908  -5.29463  -5.29440  -5.29437
 Alpha  occ. eigenvalues --   -2.02211  -2.02193  -2.02191  -2.02166  -2.02166
 Alpha  occ. eigenvalues --   -1.31132  -0.93998  -0.63726  -0.60688  -0.47380
 Alpha  occ. eigenvalues --   -0.46585  -0.33585  -0.30791  -0.15260  -0.14483
 Alpha  occ. eigenvalues --   -0.14480
 Alpha virt. eigenvalues --    0.14911   0.17170   0.21643   0.22350   0.24049
 Alpha virt. eigenvalues --    0.25157   0.25448   0.26599   0.29192   0.29878
 Alpha virt. eigenvalues --    0.30115   0.31133   0.34355   0.37748   0.38081
 Alpha virt. eigenvalues --    0.39190   0.42097   0.43581   0.44338   0.49977
 Alpha virt. eigenvalues --    0.52452   0.54474   0.54961   0.56385   0.57534
 Alpha virt. eigenvalues --    0.58685   0.63351   0.66152   0.73844   0.75096
 Alpha virt. eigenvalues --    0.75419   0.77638   0.77995   0.79777   0.79859
 Alpha virt. eigenvalues --    0.80987   0.81571   0.83878   0.84495   0.86105
 Alpha virt. eigenvalues --    0.86909   0.88108   0.88359   0.88702   0.89192
 Alpha virt. eigenvalues --    0.93276   0.95061   0.95697   0.98971   1.01541
 Alpha virt. eigenvalues --    1.05274   1.06671   1.08586   1.10125   1.12566
 Alpha virt. eigenvalues --    1.13076   1.18928   1.19054   1.21348   1.23761
 Alpha virt. eigenvalues --    1.24318   1.32722   1.35854   1.40195   1.45085
 Alpha virt. eigenvalues --    1.49540   1.52947   1.55034   1.60687   1.62702
 Alpha virt. eigenvalues --    1.65056   1.66666   1.72734   1.75108   1.75221
 Alpha virt. eigenvalues --    1.76949   1.77599   1.78197   1.81233   1.86906
 Alpha virt. eigenvalues --    1.88017   1.89489   1.91393   1.95290   2.05836
 Alpha virt. eigenvalues --    2.05844   2.11580   2.12077   2.14372   2.21870
 Alpha virt. eigenvalues --    2.36053   2.48718   2.52207   2.54024   2.56613
 Alpha virt. eigenvalues --    2.57960   2.60949   2.66930   2.67822   2.69937
 Alpha virt. eigenvalues --    2.71510   2.75433   2.77924   2.79897   2.93442
 Alpha virt. eigenvalues --    2.99629   3.06963   3.07370   3.16630   3.19181
 Alpha virt. eigenvalues --    3.20370   3.22695   3.24588   3.26351   3.29840
 Alpha virt. eigenvalues --    3.33484   3.50743   3.52647   3.55606   3.96305
 Alpha virt. eigenvalues --    4.07530   4.44236   4.47449   4.51281   4.68912
 Alpha virt. eigenvalues --    4.75701   4.77036   5.07150   5.25676   5.91934
 Alpha virt. eigenvalues --    6.05996   6.20947   6.42438   6.62496   6.86462
 Alpha virt. eigenvalues --    6.89153   6.91138   7.01458   7.27697   7.36764
 Alpha virt. eigenvalues --    7.39836   7.84201   7.99881   8.03424   8.60104
 Alpha virt. eigenvalues --    8.91056  19.91857  59.22214
          Condensed to atoms (all electrons):
               1          2          3          4
     1  O    8.437666  -0.085944  -0.061367   0.020922
     2  Cl  -0.085944  17.020451   0.003864  -0.020108
     3  I   -0.061367   0.003864  25.932519   0.039338
     4  H    0.020922  -0.020108   0.039338   0.815955
 Mulliken charges:
               1
     1  O   -0.311277
     2  Cl   0.081737
     3  I   -0.914353
     4  H    0.143893
 Sum of Mulliken charges =  -1.00000
 Mulliken charges with hydrogens summed into heavy atoms:
               1
     1  O   -0.167384
     2  Cl   0.081737
     3  I   -0.914353
 Electronic spatial extent (au):  <R**2>=           1307.2826
 Charge=             -1.0000 electrons
 Dipole moment (field-independent basis, Debye):
    X=              2.7111    Y=             12.6193    Z=             -0.0000  Tot=             12.9072
 Quadrupole moment (field-independent basis, Debye-Ang):
   XX=            -55.2245   YY=            -96.9991   ZZ=            -53.3495
   XY=            -10.6664   XZ=              0.0000   YZ=              0.0000
 Traceless Quadrupole moment (field-independent basis, Debye-Ang):
   XX=             13.2998   YY=            -28.4747   ZZ=             15.1749
   XY=            -10.6664   XZ=              0.0000   YZ=              0.0000
 Octapole moment (field-independent basis, Debye-Ang**2):
  XXX=             16.8374  YYY=            467.3751  ZZZ=              0.0000  XYY=             36.7971
  XXY=            116.2941  XXZ=             -0.0000  XZZ=              3.0175  YZZ=            108.7325
  YYZ=             -0.0000  XYZ=              0.0000
 Hexadecapole moment (field-independent basis, Debye-Ang**3):
 XXXX=           -406.7307 YYYY=          -2629.0575 ZZZZ=            -89.0466 XXXY=           -254.3340
 XXXZ=             -0.0000 YYYX=           -353.3475 YYYZ=              0.0000 ZZZX=             -0.0000
 ZZZY=             -0.0000 XXYY=           -461.8615 XXZZ=            -87.8933 YYZZ=           -379.3243
 XXYZ=              0.0000 YYXZ=              0.0000 ZZXY=            -82.6906
 N-N= 1.452003884050D+02 E-N=-2.198326153725D+03  KE= 6.464559961552D+02
 No NMR shielding tensors so no spin-rotation constants.
 Leave Link  601 at Tue Oct 12 15:34:19 2021, MaxMem=  1048576000 cpu:         2.2
 (Enter /usr/local/gaussian/g09/l607.exe)
 ******************************Gaussian NBO Version 3.1******************************
             N A T U R A L   A T O M I C   O R B I T A L   A N D
          N A T U R A L   B O N D   O R B I T A L   A N A L Y S I S
 ******************************Gaussian NBO Version 3.1******************************
       /RESON  / : Allow strongly delocalized NBO set

 Analyzing the MP2 density

 Job title: title                                                           

 Storage needed:     91686 in NPA,    121697 in NBO (1048575896 available)


 NATURAL POPULATIONS:  Natural atomic orbital occupancies 
                                                          
   NAO  Atom  No  lang   Type(AO)    Occupancy
 --------------------------------------------
     1    O    1  S      Cor( 1S)     1.99947
     2    O    1  S      Val( 2S)     1.71303
     3    O    1  S      Ryd( 3S)     0.00911
     4    O    1  S      Ryd( 4S)     0.00096
     5    O    1  S      Ryd( 5S)     0.00021
     6    O    1  px     Val( 2p)     1.22279
     7    O    1  px     Ryd( 3p)     0.00586
     8    O    1  px     Ryd( 4p)     0.00059
     9    O    1  px     Ryd( 5p)     0.00025
    10    O    1  py     Val( 2p)     1.66412
    11    O    1  py     Ryd( 3p)     0.01194
    12    O    1  py     Ryd( 4p)     0.00070
    13    O    1  py     Ryd( 5p)     0.00033
    14    O    1  pz     Val( 2p)     1.94860
    15    O    1  pz     Ryd( 3p)     0.01874
    16    O    1  pz     Ryd( 4p)     0.00069
    17    O    1  pz     Ryd( 5p)     0.00014
    18    O    1  dxy    Ryd( 3d)     0.00882
    19    O    1  dxy    Ryd( 4d)     0.00044
    20    O    1  dxy    Ryd( 5d)     0.00014
    21    O    1  dxz    Ryd( 3d)     0.00826
    22    O    1  dxz    Ryd( 4d)     0.00052
    23    O    1  dxz    Ryd( 5d)     0.00010
    24    O    1  dyz    Ryd( 3d)     0.00822
    25    O    1  dyz    Ryd( 4d)     0.00054
    26    O    1  dyz    Ryd( 5d)     0.00034
    27    O    1  dx2y2  Ryd( 3d)     0.01262
    28    O    1  dx2y2  Ryd( 4d)     0.00030
    29    O    1  dx2y2  Ryd( 5d)     0.00023
    30    O    1  dz2    Ryd( 3d)     0.00946
    31    O    1  dz2    Ryd( 4d)     0.00045
    32    O    1  dz2    Ryd( 5d)     0.00012
    33    O    1  f(0)   Ryd( 4f)     0.00070
    34    O    1  f(0)   Ryd( 5f)     0.00010
    35    O    1  f(C1)  Ryd( 4f)     0.00067
    36    O    1  f(C1)  Ryd( 5f)     0.00011
    37    O    1  f(S1)  Ryd( 4f)     0.00051
    38    O    1  f(S1)  Ryd( 5f)     0.00011
    39    O    1  f(C2)  Ryd( 4f)     0.00055
    40    O    1  f(C2)  Ryd( 5f)     0.00012
    41    O    1  f(S2)  Ryd( 4f)     0.00051
    42    O    1  f(S2)  Ryd( 5f)     0.00012
    43    O    1  f(C3)  Ryd( 4f)     0.00052
    44    O    1  f(C3)  Ryd( 5f)     0.00015
    45    O    1  f(S3)  Ryd( 4f)     0.00049
    46    O    1  f(S3)  Ryd( 5f)     0.00017

    47   Cl    2  S      Cor( 1S)     2.00000
    48   Cl    2  S      Cor( 2S)     1.99985
    49   Cl    2  S      Val( 3S)     1.88849
    50   Cl    2  S      Ryd( 4S)     0.00755
    51   Cl    2  S      Ryd( 5S)     0.00051
    52   Cl    2  S      Ryd( 6S)     0.00014
    53   Cl    2  px     Cor( 2p)     1.99997
    54   Cl    2  px     Val( 3p)     0.88711
    55   Cl    2  px     Ryd( 4p)     0.00647
    56   Cl    2  px     Ryd( 5p)     0.00053
    57   Cl    2  px     Ryd( 6p)     0.00016
    58   Cl    2  py     Cor( 2p)     2.00003
    59   Cl    2  py     Val( 3p)     1.95342
    60   Cl    2  py     Ryd( 4p)     0.00935
    61   Cl    2  py     Ryd( 5p)     0.00051
    62   Cl    2  py     Ryd( 6p)     0.00011
    63   Cl    2  pz     Cor( 2p)     2.00003
    64   Cl    2  pz     Val( 3p)     1.95505
    65   Cl    2  pz     Ryd( 4p)     0.01003
    66   Cl    2  pz     Ryd( 5p)     0.00067
    67   Cl    2  pz     Ryd( 6p)     0.00003
    68   Cl    2  dxy    Ryd( 3d)     0.01603
    69   Cl    2  dxy    Ryd( 4d)     0.00063
    70   Cl    2  dxy    Ryd( 5d)     0.00029
    71   Cl    2  dxz    Ryd( 3d)     0.02115
    72   Cl    2  dxz    Ryd( 4d)     0.00091
    73   Cl    2  dxz    Ryd( 5d)     0.00034
    74   Cl    2  dyz    Ryd( 3d)     0.01669
    75   Cl    2  dyz    Ryd( 4d)     0.00074
    76   Cl    2  dyz    Ryd( 5d)     0.00016
    77   Cl    2  dx2y2  Ryd( 3d)     0.01884
    78   Cl    2  dx2y2  Ryd( 4d)     0.00048
    79   Cl    2  dx2y2  Ryd( 5d)     0.00015
    80   Cl    2  dz2    Ryd( 3d)     0.01747
    81   Cl    2  dz2    Ryd( 4d)     0.00061
    82   Cl    2  dz2    Ryd( 5d)     0.00013
    83   Cl    2  f(0)   Ryd( 4f)     0.00132
    84   Cl    2  f(0)   Ryd( 5f)     0.00013
    85   Cl    2  f(C1)  Ryd( 4f)     0.00141
    86   Cl    2  f(C1)  Ryd( 5f)     0.00014
    87   Cl    2  f(S1)  Ryd( 4f)     0.00126
    88   Cl    2  f(S1)  Ryd( 5f)     0.00013
    89   Cl    2  f(C2)  Ryd( 4f)     0.00135
    90   Cl    2  f(C2)  Ryd( 5f)     0.00013
    91   Cl    2  f(S2)  Ryd( 4f)     0.00119
    92   Cl    2  f(S2)  Ryd( 5f)     0.00013
    93   Cl    2  f(C3)  Ryd( 4f)     0.00150
    94   Cl    2  f(C3)  Ryd( 5f)     0.00013
    95   Cl    2  f(S3)  Ryd( 4f)     0.00125
    96   Cl    2  f(S3)  Ryd( 5f)     0.00013

    97    I    3  S      Cor( 4S)     2.00001
    98    I    3  S      Val( 5S)     1.97836
    99    I    3  S      Ryd( 6S)     0.00256
   100    I    3  S      Ryd( 7S)     0.00051
   101    I    3  S      Ryd( 8S)     0.00012
   102    I    3  S      Ryd( 9S)     0.00000
   103    I    3  px     Cor( 4p)     2.00006
   104    I    3  px     Val( 5p)     1.94952
   105    I    3  px     Ryd( 6p)     0.01077
   106    I    3  px     Ryd( 7p)     0.00074
   107    I    3  px     Ryd( 8p)     0.00010
   108    I    3  py     Cor( 4p)     2.00002
   109    I    3  py     Val( 5p)     1.92326
   110    I    3  py     Ryd( 6p)     0.00982
   111    I    3  py     Ryd( 7p)     0.00064
   112    I    3  py     Ryd( 8p)     0.00014
   113    I    3  pz     Cor( 4p)     2.00007
   114    I    3  pz     Val( 5p)     1.95128
   115    I    3  pz     Ryd( 6p)     0.01089
   116    I    3  pz     Ryd( 7p)     0.00074
   117    I    3  pz     Ryd( 8p)     0.00010
   118    I    3  dxy    Cor( 4d)     1.99673
   119    I    3  dxy    Ryd( 5d)     0.02042
   120    I    3  dxy    Ryd( 6d)     0.00143
   121    I    3  dxy    Ryd( 7d)     0.00019
   122    I    3  dxz    Cor( 4d)     1.99678
   123    I    3  dxz    Ryd( 5d)     0.02022
   124    I    3  dxz    Ryd( 6d)     0.00167
   125    I    3  dxz    Ryd( 7d)     0.00020
   126    I    3  dyz    Cor( 4d)     1.99675
   127    I    3  dyz    Ryd( 5d)     0.02052
   128    I    3  dyz    Ryd( 6d)     0.00141
   129    I    3  dyz    Ryd( 7d)     0.00017
   130    I    3  dx2y2  Cor( 4d)     1.99671
   131    I    3  dx2y2  Ryd( 5d)     0.02034
   132    I    3  dx2y2  Ryd( 6d)     0.00161
   133    I    3  dx2y2  Ryd( 7d)     0.00022
   134    I    3  dz2    Cor( 4d)     1.99675
   135    I    3  dz2    Ryd( 5d)     0.02023
   136    I    3  dz2    Ryd( 6d)     0.00167
   137    I    3  dz2    Ryd( 7d)     0.00018
   138    I    3  f(0)   Ryd( 4f)     0.00273
   139    I    3  f(0)   Ryd( 5f)     0.00044
   140    I    3  f(C1)  Ryd( 4f)     0.00276
   141    I    3  f(C1)  Ryd( 5f)     0.00043
   142    I    3  f(S1)  Ryd( 4f)     0.00277
   143    I    3  f(S1)  Ryd( 5f)     0.00045
   144    I    3  f(C2)  Ryd( 4f)     0.00272
   145    I    3  f(C2)  Ryd( 5f)     0.00044
   146    I    3  f(S2)  Ryd( 4f)     0.00278
   147    I    3  f(S2)  Ryd( 5f)     0.00045
   148    I    3  f(C3)  Ryd( 4f)     0.00271
   149    I    3  f(C3)  Ryd( 5f)     0.00045
   150    I    3  f(S3)  Ryd( 4f)     0.00272
   151    I    3  f(S3)  Ryd( 5f)     0.00045

   152    H    4  S      Val( 1S)     0.53700
   153    H    4  S      Ryd( 2S)     0.00925
   154    H    4  S      Ryd( 3S)     0.00034
   155    H    4  S      Ryd( 4S)     0.00010
   156    H    4  px     Ryd( 2p)     0.00379
   157    H    4  px     Ryd( 3p)     0.00043
   158    H    4  px     Ryd( 4p)     0.00015
   159    H    4  py     Ryd( 2p)     0.00551
   160    H    4  py     Ryd( 3p)     0.00065
   161    H    4  py     Ryd( 4p)     0.00049
   162    H    4  pz     Ryd( 2p)     0.00571
   163    H    4  pz     Ryd( 3p)     0.00044
   164    H    4  pz     Ryd( 4p)     0.00016
   165    H    4  dxy    Ryd( 3d)     0.00029
   166    H    4  dxy    Ryd( 4d)     0.00012
   167    H    4  dxz    Ryd( 3d)     0.00021
   168    H    4  dxz    Ryd( 4d)     0.00010
   169    H    4  dyz    Ryd( 3d)     0.00043
   170    H    4  dyz    Ryd( 4d)     0.00010
   171    H    4  dx2y2  Ryd( 3d)     0.00024
   172    H    4  dx2y2  Ryd( 4d)     0.00015
   173    H    4  dz2    Ryd( 3d)     0.00021
   174    H    4  dz2    Ryd( 4d)     0.00015

 [ 28 electrons found in the effective core potential]

 WARNING:  5 low occupancy (<1.9990e) core orbitals found on  I    3


 Summary of Natural Population Analysis:                  
                                                          
                                       Natural Population 
                Natural  -----------------------------------------------
    Atom  No    Charge         Core      Valence    Rydberg      Total
 -----------------------------------------------------------------------
      O    1   -0.65291      1.99947     6.54854    0.10489     8.65291
     Cl    2    0.17518      9.99988     6.68407    0.14088    16.82482
      I    3   -0.95625     45.98388     7.80241    0.16995    53.95625
      H    4    0.43398      0.00000     0.53700    0.02902     0.56602
 =======================================================================
   * Total *   -1.00000     57.98323    21.57202    0.44475    80.00000

                                 Natural Population      
 --------------------------------------------------------
   Effective Core            28.00000
   Core                      29.98323 ( 99.9441% of  30)
   Valence                   21.57202 ( 98.0547% of  22)
   Natural Minimal Basis     79.55525 ( 99.4441% of  80)
   Natural Rydberg Basis      0.44475 (  0.5559% of  80)
 --------------------------------------------------------

    Atom  No          Natural Electron Configuration
 ----------------------------------------------------------------------------
      O    1      [core]2S( 1.71)2p( 4.84)3S( 0.01)3p( 0.04)3d( 0.05)
     Cl    2      [core]3S( 1.89)3p( 4.80)4S( 0.01)3d( 0.09)4p( 0.03)4f( 0.01)
      I    3      [core]5S( 1.98)5p( 5.82)4f( 0.02)5d( 0.10)6p( 0.03)6d( 0.01)
      H    4            1S( 0.54)2S( 0.01)2p( 0.02)


 NATURAL BOND ORBITAL ANALYSIS:

                       Occupancies       Lewis Structure    Low   High
           Occ.    -------------------  -----------------   occ   occ
  Cycle   Thresh.   Lewis   Non-Lewis     CR  BD  3C  LP    (L)   (NL)   Dev
 =============================================================================
   1(1)    1.90    79.50996   0.49004     15   2   0   9     0      0    0.04
 -----------------------------------------------------------------------------

 Structure accepted: No low occupancy Lewis orbitals

 WARNING:  5 low occupancy (<1.9990e) core orbitals found on  I    3

 --------------------------------------------------------
   Effective Core           28.00000
   Core                     29.98323 ( 99.944% of  30)
   Valence Lewis            21.52673 ( 97.849% of  22)
  ==================       ============================
   Total Lewis              79.50996 ( 99.387% of  80)
  -----------------------------------------------------
   Valence non-Lewis         0.09344 (  0.117% of  80)
   Rydberg non-Lewis         0.39660 (  0.496% of  80)
  ==================       ============================
   Total non-Lewis           0.49004 (  0.613% of  80)
 --------------------------------------------------------


       (Occupancy)   Bond orbital/ Coefficients/ Hybrids
 ---------------------------------------------------------------------------------
     1. (1.94173) BD ( 1) O   1 -Cl   2  
                ( 59.71%)   0.7727* O   1 s( 10.88%)p 8.14( 88.61%)d 0.05(  0.50%)
                                                  f 0.00(  0.02%)
                                            0.0003  0.3271 -0.0405 -0.0125 -0.0008
                                            0.9406 -0.0195 -0.0109 -0.0083  0.0007
                                           -0.0285 -0.0042 -0.0004  0.0000  0.0000
                                            0.0000  0.0000 -0.0278 -0.0016  0.0025
                                            0.0000  0.0000  0.0000  0.0000  0.0000
                                            0.0000  0.0498  0.0059  0.0023 -0.0406
                                           -0.0037  0.0007  0.0000  0.0000 -0.0116
                                            0.0011 -0.0004  0.0000  0.0000  0.0000
                                            0.0000  0.0000  0.0044 -0.0003 -0.0003
                                            0.0028
                ( 40.29%)   0.6347*Cl   2 s(  7.93%)p11.44( 90.71%)d 0.16(  1.25%)
                                                  f 0.01(  0.11%)
                                           -0.0000  0.0005  0.2762 -0.0542 -0.0100
                                            0.0025 -0.0003 -0.9499  0.0669  0.0143
                                           -0.0036 -0.0000 -0.0072 -0.0010  0.0024
                                           -0.0005  0.0000  0.0000  0.0000  0.0000
                                            0.0000  0.0133  0.0000  0.0010  0.0000
                                            0.0000  0.0000  0.0000  0.0000  0.0000
                                            0.0934 -0.0096  0.0002 -0.0587  0.0051
                                            0.0005  0.0000  0.0000  0.0207 -0.0033
                                            0.0004 -0.0002  0.0000  0.0000  0.0000
                                            0.0000 -0.0248  0.0029 -0.0007  0.0000
     2. (1.97402) BD ( 1) O   1 - H   4  
                ( 74.13%)   0.8610* O   1 s( 36.49%)p 1.73( 63.03%)d 0.01(  0.47%)
                                                  f 0.00(  0.01%)
                                           -0.0003 -0.6039  0.0145  0.0044 -0.0004
                                            0.2072 -0.0211 -0.0012 -0.0012  0.7655
                                           -0.0301 -0.0057 -0.0030  0.0000  0.0000
                                            0.0000  0.0000 -0.0043  0.0043 -0.0006
                                            0.0000  0.0000  0.0000  0.0000  0.0000
                                            0.0000  0.0573  0.0019  0.0048  0.0366
                                           -0.0016 -0.0015  0.0000  0.0000 -0.0015
                                           -0.0009 -0.0076 -0.0020  0.0000  0.0000
                                            0.0000  0.0000 -0.0015 -0.0036  0.0004
                                           -0.0043
                ( 25.87%)   0.5086* H   4 s( 99.89%)p 0.00(  0.10%)d 0.00(  0.00%)
                                           -0.9992 -0.0202 -0.0009  0.0002 -0.0118
                                           -0.0060 -0.0009  0.0081 -0.0266  0.0096
                                            0.0000  0.0000  0.0000  0.0012  0.0007
                                            0.0000  0.0000  0.0000  0.0000 -0.0013
                                            0.0031 -0.0030  0.0049
     3. (1.99947) CR ( 1) O   1           s(100.00%)p 0.00(  0.00%)
                                            1.0000 -0.0004  0.0000  0.0000  0.0000
                                           -0.0002  0.0000  0.0000  0.0000  0.0001
                                           -0.0000 -0.0000 -0.0000  0.0000  0.0000
                                            0.0000  0.0000  0.0000  0.0000 -0.0000
                                            0.0000  0.0000  0.0000  0.0000  0.0000
                                            0.0000 -0.0000 -0.0000  0.0000  0.0000
                                            0.0000 -0.0000  0.0000  0.0000  0.0000
                                           -0.0000 -0.0000 -0.0000  0.0000  0.0000
                                            0.0000  0.0000 -0.0000 -0.0000 -0.0000
                                           -0.0000
     4. (2.00000) CR ( 1)Cl   2           s(100.00%)
                                            1.0000  0.0000  0.0000 -0.0000 -0.0000
                                            0.0000 -0.0000 -0.0000  0.0000  0.0000
                                           -0.0000 -0.0000 -0.0000 -0.0000  0.0000
                                           -0.0000  0.0000  0.0000  0.0000  0.0000
                                            0.0000  0.0000 -0.0000  0.0000  0.0000
                                            0.0000  0.0000  0.0000  0.0000  0.0000
                                            0.0000 -0.0000  0.0000 -0.0000  0.0000
                                            0.0000  0.0000  0.0000  0.0000 -0.0000
                                            0.0000 -0.0000  0.0000  0.0000  0.0000
                                            0.0000 -0.0000  0.0000 -0.0000 -0.0000
     5. (1.99985) CR ( 2)Cl   2           s(100.00%)p 0.00(  0.00%)
                                            0.0000  1.0000 -0.0004  0.0000  0.0000
                                           -0.0000  0.0000  0.0004 -0.0000 -0.0000
                                            0.0000  0.0000  0.0000  0.0000 -0.0000
                                            0.0000  0.0000  0.0000  0.0000  0.0000
                                            0.0000 -0.0000  0.0000 -0.0000  0.0000
                                            0.0000  0.0000  0.0000  0.0000  0.0000
                                           -0.0000  0.0000 -0.0000  0.0000 -0.0000
                                           -0.0000  0.0000  0.0000 -0.0000  0.0000
                                           -0.0000  0.0000  0.0000  0.0000  0.0000
                                            0.0000  0.0000 -0.0000  0.0000 -0.0000
     6. (1.99997) CR ( 3)Cl   2           s(  0.00%)p 1.00(100.00%)
                                           -0.0000  0.0000  0.0001 -0.0000 -0.0000
                                            0.0000  1.0000 -0.0003  0.0000  0.0000
                                           -0.0000 -0.0000 -0.0000 -0.0000  0.0000
                                           -0.0000  0.0000  0.0000  0.0000  0.0000
                                            0.0000  0.0000 -0.0000  0.0000  0.0000
                                            0.0000  0.0000  0.0000  0.0000  0.0000
                                            0.0000 -0.0000  0.0000 -0.0000  0.0000
                                            0.0000  0.0000  0.0000  0.0000 -0.0000
                                            0.0000 -0.0000  0.0000  0.0000  0.0000
                                            0.0000 -0.0000  0.0000 -0.0000  0.0000
     7. (2.00003) CR ( 4)Cl   2           s(  0.00%)p 1.00(100.00%)
                                           -0.0000  0.0000  0.0000  0.0000  0.0000
                                            0.0000 -0.0000 -0.0000  0.0000  0.0000
                                           -0.0000  1.0000  0.0002  0.0000  0.0000
                                            0.0000  0.0000  0.0000  0.0000  0.0000
                                            0.0000 -0.0000  0.0000  0.0000  0.0000
                                            0.0000  0.0000  0.0000  0.0000  0.0000
                                           -0.0000 -0.0000 -0.0000 -0.0000 -0.0000
                                           -0.0000  0.0000  0.0000  0.0000 -0.0000
                                           -0.0000  0.0000  0.0000  0.0000  0.0000
                                            0.0000 -0.0000  0.0000  0.0000 -0.0000
     8. (2.00003) CR ( 5)Cl   2           s(  0.00%)p 1.00(100.00%)
                                            0.0000  0.0000  0.0000  0.0000  0.0000
                                            0.0000  0.0000  0.0000  0.0000  0.0000
                                            0.0000  0.0000  0.0000  0.0000  0.0000
                                            0.0000  1.0000  0.0002  0.0000  0.0000
                                           -0.0000  0.0000  0.0000  0.0000  0.0000
                                            0.0000  0.0000  0.0000  0.0000  0.0000
                                            0.0000  0.0000  0.0000  0.0000  0.0000
                                            0.0000 -0.0000  0.0000  0.0000  0.0000
                                            0.0000  0.0000  0.0000 -0.0000  0.0000
                                           -0.0000  0.0000  0.0000  0.0000  0.0000
     9. (2.00001) CR ( 1) I   3           s(100.00%)p 0.00(  0.00%)
                                            1.0000  0.0000 -0.0000 -0.0000  0.0000
                                            0.0000 -0.0000  0.0000 -0.0000 -0.0000
                                            0.0000 -0.0000  0.0001 -0.0000 -0.0000
                                            0.0000  0.0000  0.0000  0.0000  0.0000
                                            0.0000 -0.0000  0.0000 -0.0000 -0.0000
                                            0.0000  0.0000  0.0000  0.0000  0.0000
                                            0.0000  0.0000  0.0000  0.0000 -0.0000
                                            0.0000  0.0000  0.0000 -0.0000  0.0000
                                            0.0000  0.0000  0.0000 -0.0000 -0.0000
                                           -0.0000 -0.0000  0.0000  0.0000  0.0000
                                            0.0000 -0.0000 -0.0000 -0.0000 -0.0000
    10. (2.00006) CR ( 2) I   3           s(  0.00%)p 1.00(100.00%)
                                           -0.0000  0.0000 -0.0000 -0.0000  0.0000
                                            0.0000  1.0000 -0.0001 -0.0000 -0.0000
                                            0.0000 -0.0000  0.0001 -0.0000 -0.0000
                                            0.0000  0.0000  0.0000  0.0000  0.0000
                                            0.0000 -0.0000 -0.0000  0.0000  0.0000
                                            0.0000  0.0000  0.0000  0.0000  0.0000
                                            0.0000  0.0000  0.0000  0.0000 -0.0000
                                            0.0000  0.0000  0.0000 -0.0000  0.0000
                                            0.0000  0.0000  0.0000  0.0000  0.0000
                                           -0.0000 -0.0000  0.0000  0.0000  0.0000
                                            0.0000  0.0000  0.0000 -0.0000 -0.0000
    11. (2.00002) CR ( 3) I   3           s(  0.00%)p 1.00(100.00%)
                                           -0.0000  0.0001 -0.0000 -0.0000  0.0000
                                            0.0000 -0.0000  0.0001 -0.0000 -0.0000
                                            0.0000  1.0000  0.0002 -0.0000 -0.0000
                                            0.0000  0.0000  0.0000  0.0000  0.0000
                                            0.0000 -0.0000  0.0000 -0.0000 -0.0000
                                            0.0000  0.0000  0.0000  0.0000  0.0000
                                            0.0000  0.0000  0.0000  0.0000 -0.0000
                                            0.0000  0.0000  0.0000 -0.0000  0.0000
                                            0.0000  0.0000  0.0000 -0.0000 -0.0000
                                           -0.0000 -0.0000  0.0000  0.0000  0.0000
                                            0.0000 -0.0000 -0.0000 -0.0000 -0.0000
    12. (2.00007) CR ( 4) I   3           s(  0.00%)p 1.00(100.00%)
                                            0.0000  0.0000  0.0000  0.0000  0.0000
                                            0.0000  0.0000  0.0000  0.0000  0.0000
                                            0.0000  0.0000  0.0000  0.0000  0.0000
                                            0.0000  1.0000 -0.0001 -0.0000 -0.0000
                                            0.0000  0.0000  0.0000  0.0000  0.0000
                                            0.0000 -0.0000  0.0000  0.0000  0.0000
                                           -0.0000  0.0000  0.0000  0.0000  0.0000
                                            0.0000  0.0000  0.0000  0.0000  0.0000
                                            0.0000  0.0000  0.0000  0.0000  0.0000
                                            0.0000  0.0000  0.0000  0.0000 -0.0000
                                           -0.0000  0.0000  0.0000  0.0000  0.0000
    13. (1.99673) CR ( 5) I   3           s(  0.00%)p 0.00(  0.00%)d 1.00(100.00%)
                                           -0.0000  0.0000 -0.0000 -0.0000  0.0000
                                            0.0000 -0.0000  0.0000 -0.0000 -0.0000
                                            0.0000 -0.0000  0.0001 -0.0000 -0.0000
                                            0.0000  0.0000  0.0000  0.0000  0.0000
                                            0.0000  1.0000  0.0000 -0.0000 -0.0000
                                            0.0000  0.0000  0.0000  0.0000  0.0000
                                            0.0000  0.0000  0.0000  0.0000 -0.0000
                                            0.0000  0.0000  0.0000 -0.0000  0.0000
                                            0.0000  0.0000  0.0000 -0.0000 -0.0000
                                           -0.0000 -0.0000  0.0000  0.0000  0.0000
                                            0.0000 -0.0000 -0.0000 -0.0000 -0.0000
    14. (1.99678) CR ( 6) I   3           s(  0.00%)p 0.00(  0.00%)d 1.00(100.00%)
                                            0.0000  0.0000  0.0000  0.0000  0.0000
                                            0.0000  0.0000  0.0000  0.0000  0.0000
                                            0.0000  0.0000  0.0000  0.0000  0.0000
                                            0.0000  0.0000  0.0000  0.0000  0.0000
                                           -0.0000  0.0000  0.0000  0.0000  0.0000
                                            1.0000  0.0000 -0.0000 -0.0000 -0.0000
                                            0.0000 -0.0000 -0.0000  0.0000  0.0000
                                            0.0000  0.0000  0.0000  0.0000  0.0000
                                            0.0000 -0.0000 -0.0000  0.0000  0.0000
                                            0.0000  0.0000 -0.0000 -0.0000  0.0000
                                            0.0000  0.0000  0.0000  0.0000  0.0000
    15. (1.99675) CR ( 7) I   3           s(  0.00%)p 0.00(  0.00%)d 1.00(100.00%)
                                            0.0000  0.0000  0.0000  0.0000  0.0000
                                            0.0000  0.0000  0.0000  0.0000  0.0000
                                            0.0000  0.0000  0.0000  0.0000  0.0000
                                            0.0000  0.0000  0.0000  0.0000  0.0000
                                           -0.0000  0.0000  0.0000  0.0000  0.0000
                                           -0.0000  0.0000 -0.0000 -0.0000  1.0000
                                            0.0000 -0.0000 -0.0000  0.0000  0.0000
                                            0.0000  0.0000  0.0000  0.0000  0.0000
                                            0.0000 -0.0000 -0.0000  0.0000  0.0000
                                            0.0000  0.0000 -0.0000 -0.0000  0.0000
                                            0.0000  0.0000  0.0000  0.0000  0.0000
    16. (1.99671) CR ( 8) I   3           s(  0.00%)p 0.00(  0.00%)d 1.00(100.00%)
                                            0.0000 -0.0001  0.0000  0.0000 -0.0000
                                           -0.0000  0.0000 -0.0000  0.0000  0.0000
                                           -0.0000  0.0000 -0.0002  0.0000  0.0000
                                           -0.0000  0.0000  0.0000  0.0000  0.0000
                                            0.0000  0.0000 -0.0000  0.0000  0.0000
                                            0.0000  0.0000  0.0000  0.0000  0.0000
                                            0.0000  0.0000  0.0000  1.0000  0.0000
                                           -0.0000 -0.0000 -0.0000  0.0000 -0.0000
                                           -0.0000  0.0000  0.0000  0.0000  0.0000
                                            0.0000  0.0000  0.0000  0.0000  0.0000
                                            0.0000  0.0000  0.0000  0.0000  0.0000
    17. (1.99675) CR ( 9) I   3           s(  0.00%)p 0.00(  0.00%)d 1.00(100.00%)
                                            0.0000 -0.0000  0.0000  0.0000 -0.0000
                                           -0.0000  0.0000 -0.0000  0.0000  0.0000
                                           -0.0000  0.0000 -0.0001  0.0000  0.0000
                                           -0.0000  0.0000  0.0000  0.0000  0.0000
                                            0.0000  0.0000 -0.0000  0.0000  0.0000
                                            0.0000  0.0000  0.0000  0.0000  0.0000
                                            0.0000  0.0000  0.0000 -0.0000  0.0000
                                           -0.0000 -0.0000  1.0000  0.0000 -0.0000
                                           -0.0000  0.0000  0.0000  0.0000  0.0000
                                            0.0000  0.0000  0.0000  0.0000  0.0000
                                            0.0000  0.0000  0.0000  0.0000  0.0000
    18. (1.96697) LP ( 1) O   1           s( 52.75%)p 0.89( 47.12%)d 0.00(  0.13%)
                                                  f 0.00(  0.00%)
                                            0.0002  0.7260  0.0192  0.0063 -0.0004
                                           -0.2516 -0.0071 -0.0030 -0.0018  0.6385
                                            0.0095  0.0052  0.0014  0.0000  0.0000
                                            0.0000  0.0000  0.0241  0.0030 -0.0032
                                            0.0000  0.0000  0.0000  0.0000  0.0000
                                            0.0000  0.0203 -0.0015 -0.0050  0.0153
                                           -0.0006 -0.0004  0.0000  0.0000  0.0001
                                            0.0006 -0.0034 -0.0001  0.0000  0.0000
                                            0.0000  0.0000  0.0034 -0.0024  0.0034
                                           -0.0029
    19. (1.95428) LP ( 2) O   1           s(  0.00%)p 1.00( 99.78%)d 0.00(  0.21%)
                                                  f 0.00(  0.01%)
                                            0.0000  0.0000  0.0000  0.0000  0.0000
                                            0.0000  0.0000  0.0000  0.0000  0.0000
                                            0.0000  0.0000  0.0000  0.9985  0.0260
                                            0.0054  0.0049  0.0000  0.0000  0.0000
                                            0.0273  0.0059 -0.0002 -0.0337  0.0044
                                            0.0111  0.0000  0.0000  0.0000  0.0000
                                            0.0000  0.0000 -0.0104  0.0003  0.0000
                                            0.0000  0.0000  0.0000  0.0039 -0.0030
                                            0.0010  0.0016  0.0000  0.0000  0.0000
                                            0.0000
    20. (1.97490) LP ( 1)Cl   2           s( 92.29%)p 0.08(  7.68%)d 0.00(  0.02%)
                                                  f 0.00(  0.00%)
                                            0.0000  0.0003  0.9607  0.0060  0.0011
                                           -0.0003  0.0000  0.2769 -0.0061 -0.0028
                                            0.0009 -0.0000 -0.0120  0.0016  0.0002
                                           -0.0005  0.0000  0.0000  0.0000  0.0000
                                            0.0000  0.0003 -0.0001 -0.0004  0.0000
                                            0.0000  0.0000  0.0000  0.0000  0.0000
                                           -0.0118  0.0004 -0.0002  0.0073  0.0005
                                            0.0006  0.0000  0.0000 -0.0019 -0.0005
                                            0.0001 -0.0000  0.0000  0.0000  0.0000
                                            0.0000  0.0032  0.0001 -0.0005  0.0003
    21. (1.95644) LP ( 2)Cl   2           s(  0.00%)p 1.00( 99.95%)d 0.00(  0.04%)
                                                  f 0.00(  0.01%)
                                            0.0000  0.0000  0.0000  0.0000  0.0000
                                            0.0000  0.0000  0.0000  0.0000  0.0000
                                            0.0000  0.0000  0.0000  0.0000  0.0000
                                            0.0000 -0.0002  0.9996  0.0153  0.0050
                                           -0.0021  0.0000  0.0000  0.0000  0.0056
                                            0.0152  0.0091  0.0035  0.0031  0.0013
                                            0.0000  0.0000  0.0000  0.0000  0.0000
                                            0.0000 -0.0057  0.0008  0.0000  0.0000
                                            0.0000  0.0000  0.0068 -0.0009  0.0011
                                           -0.0008  0.0000  0.0000  0.0000  0.0000
    22. (1.95476) LP ( 3)Cl   2           s(  0.02%)p99.99( 99.93%)d 1.38(  0.03%)
                                                  f 0.38(  0.01%)
                                            0.0000 -0.0000  0.0137  0.0058  0.0039
                                            0.0019  0.0000 -0.0046 -0.0002 -0.0003
                                           -0.0009 -0.0002  0.9996  0.0130  0.0016
                                            0.0004  0.0000  0.0000  0.0000  0.0000
                                            0.0000 -0.0043  0.0119  0.0081  0.0000
                                            0.0000  0.0000  0.0000  0.0000  0.0000
                                           -0.0079 -0.0050 -0.0035 -0.0007 -0.0026
                                           -0.0009  0.0000  0.0000  0.0001  0.0001
                                           -0.0025  0.0000  0.0000  0.0000  0.0000
                                            0.0000 -0.0016  0.0005  0.0090 -0.0012
    23. (1.97956) LP ( 1) I   3           s( 98.04%)p 0.02(  1.96%)d 0.00(  0.00%)
                                                  f 0.00(  0.00%)
                                            0.0000  0.9901  0.0001  0.0003 -0.0002
                                           -0.0000 -0.0000 -0.0364  0.0002 -0.0002
                                           -0.0000 -0.0001 -0.1352  0.0006 -0.0007
                                            0.0002  0.0000  0.0000  0.0000  0.0000
                                            0.0000 -0.0000  0.0009 -0.0003  0.0000
                                            0.0000  0.0000  0.0000  0.0000  0.0000
                                            0.0000  0.0000  0.0000  0.0000 -0.0016
                                            0.0006 -0.0000  0.0000 -0.0011  0.0004
                                           -0.0000  0.0000  0.0000 -0.0001 -0.0001
                                           -0.0006 -0.0004  0.0000  0.0000  0.0000
                                            0.0000 -0.0005 -0.0003 -0.0006 -0.0003
    24. (1.95142) LP ( 2) I   3           s(  0.00%)p 1.00( 99.99%)d 0.00(  0.01%)
                                                  f 0.00(  0.00%)
                                            0.0000  0.0000  0.0000  0.0000  0.0000
                                            0.0000  0.0000  0.0000  0.0000  0.0000
                                            0.0000  0.0000  0.0000  0.0000  0.0000
                                            0.0000  0.0001  1.0000  0.0011  0.0013
                                           -0.0003  0.0000  0.0000  0.0000  0.0000
                                           -0.0000  0.0018 -0.0005 -0.0001 -0.0000
                                            0.0071 -0.0018 -0.0008  0.0000  0.0000
                                            0.0000  0.0000  0.0000  0.0000  0.0000
                                            0.0000 -0.0019 -0.0013  0.0000  0.0000
                                            0.0000  0.0000 -0.0021 -0.0012  0.0011
                                            0.0008  0.0000  0.0000  0.0000  0.0000
    25. (1.95113) LP ( 3) I   3           s(  0.00%)p 1.00( 99.99%)d 0.00(  0.01%)
                                                  f 0.00(  0.00%)
                                           -0.0000  0.0053 -0.0003 -0.0001  0.0006
                                           -0.0001  0.0001  0.9747  0.0011  0.0011
                                           -0.0004 -0.0000 -0.2234 -0.0002 -0.0004
                                            0.0002  0.0000  0.0000  0.0000  0.0000
                                            0.0000 -0.0000  0.0073 -0.0015 -0.0010
                                            0.0000  0.0000  0.0000  0.0000  0.0000
                                            0.0000  0.0000  0.0000 -0.0000  0.0028
                                           -0.0002 -0.0009  0.0000 -0.0001  0.0001
                                            0.0000  0.0000  0.0000 -0.0008 -0.0005
                                            0.0001 -0.0001  0.0000  0.0000  0.0000
                                            0.0000 -0.0023 -0.0013  0.0016  0.0008
    26. (1.92152) LP ( 4) I   3           s(  1.96%)p50.11( 98.00%)d 0.02(  0.04%)
                                                  f 0.00(  0.00%)
                                           -0.0001  0.1398 -0.0007 -0.0022  0.0016
                                            0.0004 -0.0001  0.2204 -0.0011 -0.0008
                                            0.0010 -0.0002  0.9651 -0.0021 -0.0024
                                            0.0005  0.0000  0.0000  0.0000  0.0000
                                            0.0000 -0.0001  0.0075 -0.0015 -0.0004
                                            0.0000  0.0000  0.0000  0.0000  0.0000
                                            0.0000  0.0000  0.0000  0.0002 -0.0152
                                            0.0020  0.0010  0.0001 -0.0103  0.0017
                                            0.0004  0.0000  0.0000 -0.0009 -0.0006
                                           -0.0038 -0.0021  0.0000  0.0000  0.0000
                                            0.0000 -0.0030 -0.0018 -0.0034 -0.0013
    27. (0.01762) RY*( 1) O   1           s(  0.00%)p 1.00( 98.72%)d 0.01(  1.21%)
                                                  f 0.00(  0.07%)
                                            0.0000  0.0000  0.0000  0.0000  0.0000
                                            0.0000  0.0000  0.0000  0.0000  0.0000
                                            0.0000  0.0000  0.0000 -0.0303  0.9922
                                           -0.0405 -0.0100  0.0000  0.0000  0.0000
                                            0.0912  0.0298  0.0102 -0.0465  0.0069
                                            0.0235  0.0000  0.0000  0.0000  0.0000
                                            0.0000  0.0000 -0.0051  0.0091  0.0000
                                            0.0000  0.0000  0.0000  0.0196 -0.0137
                                           -0.0066  0.0021  0.0000  0.0000  0.0000
                                            0.0000
    28. (0.01464) RY*( 2) O   1           s( 30.89%)p 2.17( 67.12%)d 0.06(  1.79%)
                                                  f 0.01(  0.20%)
                                           -0.0000 -0.0073  0.5513 -0.0694  0.0010
                                            0.0457 -0.3378  0.0078  0.0168 -0.0107
                                            0.7437 -0.0085 -0.0376  0.0000  0.0000
                                            0.0000  0.0000  0.1238  0.0224  0.0020
                                            0.0000  0.0000  0.0000  0.0000  0.0000
                                            0.0000  0.0125  0.0081 -0.0013  0.0407
                                           -0.0017 -0.0136  0.0000  0.0000 -0.0052
                                            0.0024  0.0055  0.0024  0.0000  0.0000
                                            0.0000  0.0000  0.0309 -0.0125  0.0265
                                           -0.0125
    29. (0.00729) RY*( 3) O   1           s( 10.67%)p 0.40(  4.25%)d 7.83( 83.58%)
                                                  f 0.14(  1.50%)
                                           -0.0000  0.0175  0.3232 -0.0433  0.0072
                                           -0.0266 -0.1255  0.0065  0.0090 -0.0067
                                           -0.1480  0.0321 -0.0543 -0.0000 -0.0000
                                           -0.0000 -0.0000 -0.9081 -0.0244 -0.0255
                                           -0.0000 -0.0000 -0.0000 -0.0000 -0.0000
                                           -0.0000  0.0559  0.0214  0.0316  0.0725
                                            0.0026  0.0072 -0.0000 -0.0000 -0.0311
                                            0.0142  0.0107 -0.0058 -0.0000 -0.0000
                                           -0.0000 -0.0000 -0.0717  0.0185 -0.0830
                                            0.0361
    30. (0.00690) RY*( 4) O   1           s(  0.00%)p 1.00(  0.66%)d99.99( 97.82%)
                                                  f 2.28(  1.51%)
                                            0.0000  0.0000  0.0000  0.0000  0.0000
                                            0.0000  0.0000  0.0000  0.0000  0.0000
                                            0.0000  0.0000  0.0000 -0.0155 -0.0785
                                           -0.0150  0.0032  0.0000  0.0000  0.0000
[...]
                                            0.0882 -0.0033  0.8166  0.0219  0.0000
                                            0.0000  0.0000  0.0000
   158. (0.00032) RY*( 8) H   4           s( 26.76%)p 1.49( 39.91%)d 1.25( 33.33%)
                                            0.0031 -0.0279  0.5100  0.0817 -0.0241
                                            0.5068  0.2681  0.0453 -0.2603  0.0062
                                            0.0000  0.0000  0.0000 -0.4867  0.1028
                                            0.0000  0.0000  0.0000  0.0000  0.2847
                                           -0.0420  0.0318 -0.0448
   159. (0.00030) RY*( 9) H   4           s(  0.00%)p 1.00( 75.88%)d 0.32( 24.12%)
                                            0.0000  0.0000  0.0000  0.0000  0.0000
                                            0.0000  0.0000  0.0000  0.0000  0.0000
                                           -0.0813  0.8516  0.1639  0.0000  0.0000
                                           -0.0762  0.0651 -0.4629  0.1300  0.0000
                                            0.0000  0.0000  0.0000
   160. (0.00023) RY*(10) H   4           s(  3.47%)p13.40( 46.52%)d14.41( 50.01%)
                                           -0.0133 -0.0135  0.1512 -0.1072  0.0265
                                            0.3769 -0.0133  0.1219  0.5517 -0.0545
                                            0.0000  0.0000  0.0000 -0.0723  0.0065
                                            0.0000  0.0000  0.0000  0.0000 -0.4230
                                            0.2237 -0.4864  0.1711
   161. (0.00020) RY*(11) H   4           s(  0.00%)p 1.00(  3.30%)d29.31( 96.70%)
                                            0.0000  0.0000  0.0000  0.0000  0.0000
                                            0.0000  0.0000  0.0000  0.0000  0.0000
                                           -0.0209  0.0297  0.1780  0.0000  0.0000
                                            0.9691  0.0745 -0.0654 -0.1339  0.0000
                                            0.0000  0.0000  0.0000
   162. (0.00021) RY*(12) H   4           s( 20.83%)p 0.47(  9.87%)d 3.33( 69.30%)
                                           -0.0052 -0.0461  0.4535 -0.0213  0.1368
                                            0.2298 -0.1286  0.0317  0.0954 -0.0229
                                            0.0000  0.0000  0.0000  0.4883  0.0260
                                            0.0000  0.0000  0.0000  0.0000 -0.2319
                                           -0.0499  0.6132  0.1472
   163. (0.00016) RY*(13) H   4           s( 10.99%)p 0.92( 10.16%)d 7.17( 78.85%)
                                           -0.0022 -0.0300  0.3249 -0.0586  0.0514
                                            0.0045 -0.3058  0.0120  0.0632 -0.0368
                                            0.0000  0.0000  0.0000  0.4570  0.0427
                                            0.0000  0.0000  0.0000  0.0000  0.5462
                                            0.0877 -0.4079 -0.3245
   164. (0.00017) RY*(14) H   4           s(  0.00%)p 1.00( 61.92%)d 0.62( 38.08%)
                                            0.0000  0.0000  0.0000  0.0000  0.0000
                                            0.0000  0.0000  0.0000  0.0000  0.0000
                                            0.0008  0.0585  0.7847  0.0000  0.0000
                                           -0.1826 -0.1975  0.2481 -0.4969  0.0000
                                            0.0000  0.0000  0.0000
   165. (0.00015) RY*(15) H   4           s(  5.94%)p 9.65( 57.34%)d 6.18( 36.72%)
                                           -0.0107 -0.0340  0.0184  0.2404  0.0456
                                           -0.0506  0.6524  0.0650  0.2925 -0.2308
                                            0.0000  0.0000  0.0000  0.2261 -0.4891
                                            0.0000  0.0000  0.0000  0.0000  0.1635
                                           -0.2183 -0.0246 -0.0434
   166. (0.00012) RY*(16) H   4           s( 37.93%)p 0.88( 33.43%)d 0.76( 28.64%)
                                           -0.0143 -0.0517 -0.2313  0.5683 -0.0459
                                            0.1424 -0.2464  0.0431  0.4971 -0.0479
                                            0.0000  0.0000  0.0000 -0.1942  0.1977
                                            0.0000  0.0000  0.0000  0.0000  0.2052
                                            0.0923  0.3040 -0.2579
   167. (0.00009) RY*(17) H   4           s(  0.00%)p 1.00(  0.11%)d99.99( 99.89%)
   168. (0.00008) RY*(18) H   4           s(  0.72%)p 6.35(  4.55%)d99.99( 94.73%)
   169. (0.00006) RY*(19) H   4           s( 48.09%)p 0.26( 12.28%)d 0.82( 39.63%)
   170. (0.00004) RY*(20) H   4           s(  0.00%)p 1.00( 27.47%)d 2.64( 72.53%)
   171. (0.00003) RY*(21) H   4           s(  0.14%)p99.99( 33.98%)d99.99( 65.88%)
   172. (0.00002) RY*(22) H   4           s( 12.75%)p 2.44( 31.11%)d 4.40( 56.14%)
   173. (0.05732) BD*( 1) O   1 -Cl   2  
                ( 40.29%)   0.6347* O   1 s( 10.88%)p 8.14( 88.61%)d 0.05(  0.50%)
                                                  f 0.00(  0.02%)
                                           -0.0003 -0.3271  0.0405  0.0125  0.0008
                                           -0.9406  0.0195  0.0109  0.0083 -0.0007
                                            0.0285  0.0042  0.0004 -0.0000 -0.0000
                                           -0.0000 -0.0000  0.0278  0.0016 -0.0025
                                           -0.0000 -0.0000 -0.0000 -0.0000 -0.0000
                                           -0.0000 -0.0498 -0.0059 -0.0023  0.0406
                                            0.0037 -0.0007 -0.0000 -0.0000  0.0116
                                           -0.0011  0.0004 -0.0000 -0.0000 -0.0000
                                           -0.0000 -0.0000 -0.0044  0.0003  0.0003
                                           -0.0028
                ( 59.71%)  -0.7727*Cl   2 s(  7.93%)p11.44( 90.71%)d 0.16(  1.25%)
                                                  f 0.01(  0.11%)
                                            0.0000 -0.0005 -0.2762  0.0542  0.0100
                                           -0.0025  0.0003  0.9499 -0.0669 -0.0143
                                            0.0036  0.0000  0.0072  0.0010 -0.0024
                                            0.0005 -0.0000 -0.0000 -0.0000 -0.0000
                                           -0.0000 -0.0133 -0.0000 -0.0010 -0.0000
                                           -0.0000 -0.0000 -0.0000 -0.0000 -0.0000
                                           -0.0934  0.0096 -0.0002  0.0587 -0.0051
                                           -0.0005 -0.0000 -0.0000 -0.0207  0.0033
                                           -0.0004  0.0002 -0.0000 -0.0000 -0.0000
                                           -0.0000  0.0248 -0.0029  0.0007 -0.0000
   174. (0.03611) BD*( 1) O   1 - H   4  
                ( 25.87%)   0.5086* O   1 s( 36.49%)p 1.73( 63.03%)d 0.01(  0.47%)
                                                  f 0.00(  0.01%)
                                            0.0003  0.6039 -0.0145 -0.0044  0.0004
                                           -0.2072  0.0211  0.0012  0.0012 -0.7655
                                            0.0301  0.0057  0.0030 -0.0000 -0.0000
                                           -0.0000 -0.0000  0.0043 -0.0043  0.0006
                                           -0.0000 -0.0000 -0.0000 -0.0000 -0.0000
                                           -0.0000 -0.0573 -0.0019 -0.0048 -0.0366
                                            0.0016  0.0015 -0.0000 -0.0000  0.0015
                                            0.0009  0.0076  0.0020 -0.0000 -0.0000
                                           -0.0000 -0.0000  0.0015  0.0036 -0.0004
                                            0.0043
                ( 74.13%)  -0.8610* H   4 s( 99.89%)p 0.00(  0.10%)d 0.00(  0.00%)
                                            0.9992  0.0202  0.0009 -0.0002  0.0118
                                            0.0060  0.0009 -0.0081  0.0266 -0.0096
                                           -0.0000 -0.0000 -0.0000 -0.0012 -0.0007
                                           -0.0000 -0.0000 -0.0000 -0.0000  0.0013
                                           -0.0031  0.0030 -0.0049


 NHO Directionality and "Bond Bending" (deviations from line of nuclear centers)

         [Thresholds for printing:  angular deviation  >  1.0 degree]
                                    hybrid p-character > 25.0%
                                    orbital occupancy  >  0.10e

                                Line of Centers        Hybrid 1              Hybrid 2
                                ---------------  -------------------   ------------------
                NBO               Theta   Phi    Theta   Phi    Dev    Theta   Phi    Dev
 ========================================================================================
     1. BD (   1) O   1 -Cl   2    90.0    0.0    90.0  357.9   2.1      --     --    --
    18. LP (   1) O   1             --     --     90.0  111.9   --       --     --    --
    19. LP (   2) O   1             --     --      0.0    0.0   --       --     --    --
    21. LP (   2)Cl   2             --     --      0.0    0.0   --       --     --    --
    22. LP (   3)Cl   2             --     --     90.0   90.3   --       --     --    --
    24. LP (   2) I   3             --     --      0.0    0.0   --       --     --    --
    25. LP (   3) I   3             --     --     90.0  347.1   --       --     --    --
    26. LP (   4) I   3             --     --     90.0   77.1   --       --     --    --


 Natural Bond Orbitals (Summary):

           NBO                  Occupancy  
 -----------------------------------------------
 Molecular unit  1  (HOCl)
     1. BD (   1) O   1 -Cl   2          1.94173
     2. BD (   1) O   1 - H   4          1.97402
     3. CR (   1) O   1                  1.99947
     4. CR (   1)Cl   2                  2.00000
     5. CR (   2)Cl   2                  1.99985
     6. CR (   3)Cl   2                  1.99997
     7. CR (   4)Cl   2                  2.00003
     8. CR (   5)Cl   2                  2.00003
    18. LP (   1) O   1                  1.96697
    19. LP (   2) O   1                  1.95428
    20. LP (   1)Cl   2                  1.97490
    21. LP (   2)Cl   2                  1.95644
    22. LP (   3)Cl   2                  1.95476
    27. RY*(   1) O   1                  0.01762
    28. RY*(   2) O   1                  0.01464
    29. RY*(   3) O   1                  0.00729
    30. RY*(   4) O   1                  0.00690
    31. RY*(   5) O   1                  0.00600
    32. RY*(   6) O   1                  0.00568
    33. RY*(   7) O   1                  0.00560
    34. RY*(   8) O   1                  0.00253
    35. RY*(   9) O   1                  0.00188
    36. RY*(  10) O   1                  0.00088
    37. RY*(  11) O   1                  0.00066
    38. RY*(  12) O   1                  0.00055
    39. RY*(  13) O   1                  0.00054
    40. RY*(  14) O   1                  0.00048
    41. RY*(  15) O   1                  0.00048
    42. RY*(  16) O   1                  0.00045
    43. RY*(  17) O   1                  0.00044
    44. RY*(  18) O   1                  0.00044
    45. RY*(  19) O   1                  0.00043
    46. RY*(  20) O   1                  0.00043
    47. RY*(  21) O   1                  0.00040
    48. RY*(  22) O   1                  0.00040
    49. RY*(  23) O   1                  0.00031
    50. RY*(  24) O   1                  0.00028
    51. RY*(  25) O   1                  0.00023
    52. RY*(  26) O   1                  0.00018
    53. RY*(  27) O   1                  0.00013
    54. RY*(  28) O   1                  0.00013
    55. RY*(  29) O   1                  0.00013
    56. RY*(  30) O   1                  0.00008
    57. RY*(  31) O   1                  0.00008
    58. RY*(  32) O   1                  0.00008
    59. RY*(  33) O   1                  0.00008
    60. RY*(  34) O   1                  0.00009
    61. RY*(  35) O   1                  0.00007
    62. RY*(  36) O   1                  0.00007
    63. RY*(  37) O   1                  0.00006
    64. RY*(  38) O   1                  0.00005
    65. RY*(  39) O   1                  0.00004
    66. RY*(  40) O   1                  0.00003
    67. RY*(  41) O   1                  0.00003
    68. RY*(   1)Cl   2                  0.02207
    69. RY*(   2)Cl   2                  0.01710
    70. RY*(   3)Cl   2                  0.01664
    71. RY*(   4)Cl   2                  0.01604
    72. RY*(   5)Cl   2                  0.01135
    73. RY*(   6)Cl   2                  0.00899
    74. RY*(   7)Cl   2                  0.00875
    75. RY*(   8)Cl   2                  0.00607
    76. RY*(   9)Cl   2                  0.00166
    77. RY*(  10)Cl   2                  0.00126
    78. RY*(  11)Cl   2                  0.00126
    79. RY*(  12)Cl   2                  0.00118
    80. RY*(  13)Cl   2                  0.00119
    81. RY*(  14)Cl   2                  0.00115
    82. RY*(  15)Cl   2                  0.00108
    83. RY*(  16)Cl   2                  0.00091
    84. RY*(  17)Cl   2                  0.00075
    85. RY*(  18)Cl   2                  0.00075
    86. RY*(  19)Cl   2                  0.00062
    87. RY*(  20)Cl   2                  0.00052
    88. RY*(  21)Cl   2                  0.00042
    89. RY*(  22)Cl   2                  0.00036
    90. RY*(  23)Cl   2                  0.00034
    91. RY*(  24)Cl   2                  0.00030
    92. RY*(  25)Cl   2                  0.00018
    93. RY*(  26)Cl   2                  0.00014
    94. RY*(  27)Cl   2                  0.00014
    95. RY*(  28)Cl   2                  0.00012
    96. RY*(  29)Cl   2                  0.00012
    97. RY*(  30)Cl   2                  0.00012
    98. RY*(  31)Cl   2                  0.00010
    99. RY*(  32)Cl   2                  0.00009
   100. RY*(  33)Cl   2                  0.00009
   101. RY*(  34)Cl   2                  0.00010
   102. RY*(  35)Cl   2                  0.00008
   103. RY*(  36)Cl   2                  0.00009
   104. RY*(  37)Cl   2                  0.00007
   105. RY*(  38)Cl   2                  0.00006
   106. RY*(  39)Cl   2                  0.00004
   107. RY*(  40)Cl   2                  0.00003
   108. RY*(  41)Cl   2                  0.00001
   151. RY*(   1) H   4                  0.01045
   152. RY*(   2) H   4                  0.00588
   153. RY*(   3) H   4                  0.00503
   154. RY*(   4) H   4                  0.00350
   155. RY*(   5) H   4                  0.00066
   156. RY*(   6) H   4                  0.00047
   157. RY*(   7) H   4                  0.00046
   158. RY*(   8) H   4                  0.00032
   159. RY*(   9) H   4                  0.00030
   160. RY*(  10) H   4                  0.00023
   161. RY*(  11) H   4                  0.00020
   162. RY*(  12) H   4                  0.00021
   163. RY*(  13) H   4                  0.00016
   164. RY*(  14) H   4                  0.00017
   165. RY*(  15) H   4                  0.00015
   166. RY*(  16) H   4                  0.00012
   167. RY*(  17) H   4                  0.00009
   168. RY*(  18) H   4                  0.00008
   169. RY*(  19) H   4                  0.00006
   170. RY*(  20) H   4                  0.00004
   171. RY*(  21) H   4                  0.00003
   172. RY*(  22) H   4                  0.00002
   173. BD*(   1) O   1 -Cl   2          0.05732
   174. BD*(   1) O   1 - H   4          0.03611
       -------------------------------
              Total Lewis   25.72245  ( 98.7663%)
        Valence non-Lewis    0.09344  (  0.3588%)
        Rydberg non-Lewis    0.22786  (  0.8749%)
       -------------------------------
            Total unit  1   26.04375  (100.0000%)
           Charge unit  1   -0.04375

 Molecular unit  2  (I)
     9. CR (   1) I   3                  2.00001
    10. CR (   2) I   3                  2.00006
    11. CR (   3) I   3                  2.00002
    12. CR (   4) I   3                  2.00007
    13. CR (   5) I   3                  1.99673
    14. CR (   6) I   3                  1.99678
    15. CR (   7) I   3                  1.99675
    16. CR (   8) I   3                  1.99671
    17. CR (   9) I   3                  1.99675
    23. LP (   1) I   3                  1.97956
    24. LP (   2) I   3                  1.95142
    25. LP (   3) I   3                  1.95113
    26. LP (   4) I   3                  1.92152
   109. RY*(   1) I   3                  0.02044
   110. RY*(   2) I   3                  0.02036
   111. RY*(   3) I   3                  0.02022
   112. RY*(   4) I   3                  0.02021
   113. RY*(   5) I   3                  0.01971
   114. RY*(   6) I   3                  0.01089
   115. RY*(   7) I   3                  0.01083
   116. RY*(   8) I   3                  0.00974
   117. RY*(   9) I   3                  0.00320
   118. RY*(  10) I   3                  0.00279
   119. RY*(  11) I   3                  0.00280
   120. RY*(  12) I   3                  0.00277
   121. RY*(  13) I   3                  0.00277
   122. RY*(  14) I   3                  0.00271
   123. RY*(  15) I   3                  0.00271
   124. RY*(  16) I   3                  0.00267
   125. RY*(  17) I   3                  0.00168
   126. RY*(  18) I   3                  0.00168
   127. RY*(  19) I   3                  0.00141
   128. RY*(  20) I   3                  0.00137
   129. RY*(  21) I   3                  0.00121
   130. RY*(  22) I   3                  0.00073
   131. RY*(  23) I   3                  0.00073
   132. RY*(  24) I   3                  0.00065
   133. RY*(  25) I   3                  0.00045
   134. RY*(  26) I   3                  0.00046
   135. RY*(  27) I   3                  0.00044
   136. RY*(  28) I   3                  0.00042
   137. RY*(  29) I   3                  0.00043
   138. RY*(  30) I   3                  0.00042
   139. RY*(  31) I   3                  0.00040
   140. RY*(  32) I   3                  0.00034
   141. RY*(  33) I   3                  0.00021
   142. RY*(  34) I   3                  0.00019
   143. RY*(  35) I   3                  0.00015
   144. RY*(  36) I   3                  0.00013
   145. RY*(  37) I   3                  0.00012
   146. RY*(  38) I   3                  0.00010
   147. RY*(  39) I   3                  0.00010
   148. RY*(  40) I   3                  0.00007
   149. RY*(  41) I   3                  0.00007
   150. RY*(  42) I   3                  0.00000
       -------------------------------
              Total Lewis   53.78751  ( 99.6873%)
        Valence non-Lewis    0.00000  (  0.0000%)
        Rydberg non-Lewis    0.16874  (  0.3127%)
       -------------------------------
            Total unit  2   53.95625  (100.0000%)
           Charge unit  2   -0.95625
 Leave Link  607 at Tue Oct 12 15:34:19 2021, MaxMem=  1048576000 cpu:         5.6
 (Enter /usr/local/gaussian/g09/l9999.exe)
 1\1\GINC-KRYPTON\SP\RMP2-FC\Gen\Cl1H1I1O1(1-)\CGAVINH\12-Oct-2021\0\\#
 p pop=NBO SP NoSymm mp2/gen Pseudo=read density=current\\title\\-1,1\O
 \X,1,10.\Cl,1,1.68652173,2,90.\I,1,3.31229946,2,90.,3,103.24540347,0\H
 ,1,0.8,2,90.,3,103.24540347,0\\Version=ES64L-G09RevE.01\HF=-829.650430
 6\MP2=-830.3210317\RMSD=5.654e-09\Dipole=1.419177,1.9492803,0.\Quadrup
 ole=9.8881086,-21.1702475,11.2821388,-7.93024,0.,0.\PG=CS [SG(Cl1H1I1O
 1)]\\@


 QUANTUM MECHANICS IS BOHRING -- M.S. GORDON
 Job cpu time:       0 days  0 hours  2 minutes 34.9 seconds.
 File lengths (MBytes):  RWF=     13 Int=      0 D2E=      0 Chk=      3 Scr=      1
 Normal termination of Gaussian 09 at Tue Oct 12 15:34:19 2021.
