 Entering Gaussian System, Link 0=g09
 Input=ihocl_rOH_115_sp.gjf
 Output=ihocl_rOH_115_sp.log
 Initial command:
 /usr/local/gaussian/g09/l1.exe "/scratch/Gau-26553.inp" -scrdir="/scratch/"
 Entering Link 1 = /usr/local/gaussian/g09/l1.exe PID=     26554.
  
 Copyright (c) 1988,1990,1992,1993,1995,1998,2003,2009,2015,
            Gaussian, Inc.  All Rights Reserved.
  
 This is part of the Gaussian(R) 09 program.  It is based on
 the Gaussian(R) 03 system (copyright 2003, Gaussian, Inc.),
 the Gaussian(R) 98 system (copyright 1998, Gaussian, Inc.),
 the Gaussian(R) 94 system (copyright 1995, Gaussian, Inc.),
 the Gaussian 92(TM) system (copyright 1992, Gaussian, Inc.),
 the Gaussian 90(TM) system (copyright 1990, Gaussian, Inc.),
 the Gaussian 88(TM) system (copyright 1988, Gaussian, Inc.),
 the Gaussian 86(TM) system (copyright 1986, Carnegie Mellon
 University), and the Gaussian 82(TM) system (copyright 1983,
 Carnegie Mellon University). Gaussian is a federally registered
 trademark of Gaussian, Inc.
  
 This software contains proprietary and confidential information,
 including trade secrets, belonging to Gaussian, Inc.
  
 This software is provided under written license and may be
 used, copied, transmitted, or stored only in accord with that
 written license.
  
 The following legend is applicable only to US Government
 contracts under FAR:
  
                    RESTRICTED RIGHTS LEGEND
  
 Use, reproduction and disclosure by the US Government is
 subject to restrictions as set forth in subparagraphs (a)
 and (c) of the Commercial Computer Software - Restricted
 Rights clause in FAR 52.227-19.
  
 Gaussian, Inc.
 340 Quinnipiac St., Bldg. 40, Wallingford CT 06492
  
  
 ---------------------------------------------------------------
 Warning -- This program may not be used in any manner that
 competes with the business of Gaussian, Inc. or will provide
 assistance to any competitor of Gaussian, Inc.  The licensee
 of this program is prohibited from giving any competitor of
 Gaussian, Inc. access to this program.  By using this program,
 the user acknowledges that Gaussian, Inc. is engaged in the
 business of creating and licensing software in the field of
 computational chemistry and represents and warrants to the
 licensee that it is not a competitor of Gaussian, Inc. and that
 it will not use this program in any manner prohibited above.
 ---------------------------------------------------------------
  

 Cite this work as:
 Gaussian 09, Revision E.01,
 M. J. Frisch, G. W. Trucks, H. B. Schlegel, G. E. Scuseria, 
 M. A. Robb, J. R. Cheeseman, G. Scalmani, V. Barone, B. Mennucci, 
 G. A. Petersson, H. Nakatsuji, M. Caricato, X. Li, H. P. Hratchian, 
 A. F. Izmaylov, J. Bloino, G. Zheng, J. L. Sonnenberg, M. Hada, 
 M. Ehara, K. Toyota, R. Fukuda, J. Hasegawa, M. Ishida, T. Nakajima, 
 Y. Honda, O. Kitao, H. Nakai, T. Vreven, J. A. Montgomery, Jr., 
 J. E. Peralta, F. Ogliaro, M. Bearpark, J. J. Heyd, E. Brothers, 
 K. N. Kudin, V. N. Staroverov, T. Keith, R. Kobayashi, J. Normand, 
 K. Raghavachari, A. Rendell, J. C. Burant, S. S. Iyengar, J. Tomasi, 
 M. Cossi, N. Rega, J. M. Millam, M. Klene, J. E. Knox, J. B. Cross, 
 V. Bakken, C. Adamo, J. Jaramillo, R. Gomperts, R. E. Stratmann, 
 O. Yazyev, A. J. Austin, R. Cammi, C. Pomelli, J. W. Ochterski, 
 R. L. Martin, K. Morokuma, V. G. Zakrzewski, G. A. Voth, 
 P. Salvador, J. J. Dannenberg, S. Dapprich, A. D. Daniels, 
 O. Farkas, J. B. Foresman, J. V. Ortiz, J. Cioslowski, 
 and D. J. Fox, Gaussian, Inc., Wallingford CT, 2013.
 
 ******************************************
 Gaussian 09:  ES64L-G09RevE.01 30-Nov-2015
                12-Oct-2021 
 ******************************************
 %nproc=12
 Will use up to   12 processors via shared memory.
 %mem=8000MB
 %chk=/home/netid.washington.edu/cgavinh/mccoy_hocl/rOH_s_oop_0/ihocl/ihocl_rOH_1
 15_sp.chk
 --------------------------------------------------------
 #p pop=NBO SP NoSymm mp2/gen Pseudo=read density=current
 --------------------------------------------------------
 1/30=1,38=1/1;
 2/12=2,15=1,17=6,18=5,40=1/2;
 3/5=7,11=9,16=1,17=8,25=1,30=1,71=1/1,2,3;
 4//1;
 5/5=2,38=5/2;
 8/6=4,10=1/1;
 9/15=1,16=-3/6;
 10/5=1,13=10,31=1/2;
 6/7=2,8=2,9=2,10=2,22=-1,40=1/1,7;
 99/5=1,9=1/99;
 Leave Link    1 at Tue Oct 12 15:36:01 2021, MaxMem=  1048576000 cpu:         0.2
 (Enter /usr/local/gaussian/g09/l101.exe)
 -----
 title
 -----
 Symbolic Z-matrix:
 Charge = -1 Multiplicity = 1
 O
 X                    1     10. 
 Cl                   1    r1       2     90. 
 I                    1    r2       2     90.      3    a1       0
 H                    1    r3       2    oop      3    a1       0
       Variables:
  r1                    1.68652                  
  r2                    3.3123                   
  r3                    1.15                     
  a1                  103.2454                   
  OOP                  90.                       
 
 NAtoms=      4 NQM=        4 NQMF=       0 NMMI=      0 NMMIF=      0
                NMic=       0 NMicF=      0.
                    Isotopes and Nuclear Properties:
 (Nuclear quadrupole moments (NQMom) in fm**2, nuclear magnetic moments (NMagM)
  in nuclear magnetons)

  Atom         1           2           3           4
 IAtWgt=          16          35         127           1
 AtmWgt=  15.9949146  34.9688527 126.9004000   1.0078250
 NucSpn=           0           3           5           1
 AtZEff=   0.0000000   0.0000000   0.0000000   0.0000000
 NQMom=    0.0000000  -8.1650000 -71.0000000   0.0000000
 NMagM=    0.0000000   0.8218740   2.8132800   2.7928460
 AtZNuc=   8.0000000  17.0000000  53.0000000   1.0000000
 Leave Link  101 at Tue Oct 12 15:36:01 2021, MaxMem=  1048576000 cpu:         0.4
 (Enter /usr/local/gaussian/g09/l202.exe)
                          Input orientation:                          
 ---------------------------------------------------------------------
 Center     Atomic      Atomic             Coordinates (Angstroms)
 Number     Number       Type             X           Y           Z
 ---------------------------------------------------------------------
      1          8           0        0.000000    0.000000    0.000000
      2         17           0        1.686522    0.000000    0.000000
      3         53           0       -0.758922   -3.224184    0.000000
      4          1           0       -0.263491   -1.119407    0.000000
 ---------------------------------------------------------------------
                    Distance matrix (angstroms):
                    1          2          3          4
     1  O    0.000000
     2  Cl   1.686522   0.000000
     3  I    3.312299   4.046673   0.000000
     4  H    1.150000   2.248471   2.162299   0.000000
 Symmetry turned off by external request.
 Stoichiometry    ClHIO(1-)
 Framework group  CS[SG(ClHIO)]
 Deg. of freedom     5
 Full point group                 CS      NOp   2
 Rotational constants (GHZ):     21.8322500      0.9700983      0.9288267
 Leave Link  202 at Tue Oct 12 15:36:01 2021, MaxMem=  1048576000 cpu:         0.0
 (Enter /usr/local/gaussian/g09/l301.exe)
 General basis read from cards:  (5D, 7F)
 Centers:       4      1      2
 aug-cc-pVTZ
 ****
 Centers:       3
 S 11 1.00
     Exponent=  5.5465000000D+03 Coefficients=  1.5600000000D-04
     Exponent=  8.3821400000D+02 Coefficients=  9.8600000000D-04
     Exponent=  1.8218700000D+02 Coefficients=  2.7920000000D-03
     Exponent=  3.1212300000D+01 Coefficients= -4.3251000000D-02
     Exponent=  1.9531400000D+01 Coefficients=  2.3413400000D-01
     Exponent=  8.2409900000D+00 Coefficients= -7.5094300000D-01
     Exponent=  2.1945500000D+00 Coefficients=  8.8296800000D-01
     Exponent=  1.1091100000D+00 Coefficients=  4.6206100000D-01
     Exponent=  3.7464100000D-01 Coefficients=  2.2286000000D-02
     Exponent=  1.7708000000D-01 Coefficients= -4.3530000000D-03
     Exponent=  8.1061000000D-02 Coefficients=  1.1020000000D-03
 S 11 1.00
     Exponent=  5.5465000000D+03 Coefficients= -7.3000000000D-05
     Exponent=  8.3821400000D+02 Coefficients= -5.0800000000D-04
     Exponent=  1.8218700000D+02 Coefficients= -1.1580000000D-03
     Exponent=  3.1212300000D+01 Coefficients=  1.2193000000D-02
     Exponent=  1.9531400000D+01 Coefficients= -8.7854000000D-02
     Exponent=  8.2409900000D+00 Coefficients=  3.3820000000D-01
     Exponent=  2.1945500000D+00 Coefficients= -5.7655000000D-01
     Exponent=  1.1091100000D+00 Coefficients= -4.0929800000D-01
     Exponent=  3.7464100000D-01 Coefficients=  5.6745900000D-01
     Exponent=  1.7708000000D-01 Coefficients=  6.1248900000D-01
     Exponent=  8.1061000000D-02 Coefficients=  1.4323100000D-01
 S 1 1.00
     Exponent=  3.7464100000D-01 Coefficients=  1.0000000000D+00
 S 1 1.00
     Exponent=  1.7708000000D-01 Coefficients=  1.0000000000D+00
 S 1 1.00
     Exponent=  1.0010000000D-01 Coefficients=  1.0000000000D+00
 S 1 1.00
     Exponent=  4.1200000000D-02 Coefficients=  1.0000000000D+00
 P 9 1.00
     Exponent=  1.8898800000D+02 Coefficients=  5.8500000000D-04
     Exponent=  2.1286800000D+01 Coefficients=  3.6923000000D-02
     Exponent=  1.0039600000D+01 Coefficients= -2.3532400000D-01
     Exponent=  3.4518000000D+00 Coefficients=  3.4148300000D-01
     Exponent=  1.9745600000D+00 Coefficients=  5.3478800000D-01
     Exponent=  1.0242000000D+00 Coefficients=  2.6514100000D-01
     Exponent=  4.4943700000D-01 Coefficients=  2.5787000000D-02
     Exponent=  1.8664800000D-01 Coefficients=  5.2200000000D-04
     Exponent=  7.3481000000D-02 Coefficients=  6.0600000000D-04
 P 9 1.00
     Exponent=  1.8898800000D+02 Coefficients= -2.5600000000D-04
     Exponent=  2.1286800000D+01 Coefficients= -1.1682000000D-02
     Exponent=  1.0039600000D+01 Coefficients=  8.3192000000D-02
     Exponent=  3.4518000000D+00 Coefficients= -1.5697000000D-01
     Exponent=  1.9745600000D+00 Coefficients= -2.2451800000D-01
     Exponent=  1.0242000000D+00 Coefficients= -1.1445100000D-01
     Exponent=  4.4943700000D-01 Coefficients=  3.7535600000D-01
     Exponent=  1.8664800000D-01 Coefficients=  5.7513600000D-01
     Exponent=  7.3481000000D-02 Coefficients=  2.4591700000D-01
 P 1 1.00
     Exponent=  5.9810000000D-01 Coefficients=  1.0000000000D+00
 P 1 1.00
     Exponent=  9.6180000000D-02 Coefficients=  1.0000000000D+00
 P 1 1.00
     Exponent=  3.5900000000D-02 Coefficients=  1.0000000000D+00
 D 9 1.00
     Exponent=  1.3266200000D+02 Coefficients=  5.7200000000D-04
     Exponent=  3.7605400000D+01 Coefficients=  4.4020000000D-03
     Exponent=  1.0389100000D+01 Coefficients= -4.0922000000D-02
     Exponent=  6.4901700000D+00 Coefficients=  9.9661000000D-02
     Exponent=  3.4545100000D+00 Coefficients=  3.2266300000D-01
     Exponent=  1.8441300000D+00 Coefficients=  4.0034300000D-01
     Exponent=  9.6247800000D-01 Coefficients=  2.6830600000D-01
     Exponent=  4.7285300000D-01 Coefficients=  8.4847000000D-02
     Exponent=  1.9320000000D-01 Coefficients=  7.6320000000D-03
 D 1 1.00
     Exponent=  4.7285300000D-01 Coefficients=  1.0000000000D+00
 D 1 1.00
     Exponent=  1.9320000000D-01 Coefficients=  1.0000000000D+00
 D 1 1.00
     Exponent=  7.8200000000D-02 Coefficients=  1.0000000000D+00
 F 1 1.00
     Exponent=  4.0640000000D-01 Coefficients=  1.0000000000D+00
 F 1 1.00
     Exponent=  1.8480000000D-01 Coefficients=  1.0000000000D+00
 ****
 ======================================================================================================
                                       Pseudopotential Parameters
 ======================================================================================================
  Center     Atomic      Valence      Angular      Power
  Number     Number     Electrons     Momentum     of R      Exponent        Coefficient   SO-Coeffient
 ======================================================================================================
    1          8
                                   No pseudopotential on this center.
    2         17
                                   No pseudopotential on this center.
    3         53           25
                                      G and up 
                                                     2        1.0000000        0.00000000    0.00000000
                                      S - G
                                                     2       40.0333760       49.98964900    0.00000000
                                                     2       17.3005760      281.00655600    0.00000000
                                                     2        8.8517200       61.41673900    0.00000000
                                      P - G
                                                     2       15.7201410       67.41623900    0.00000000
                                                     2       15.2082220      134.80769600    0.00000000
                                                     2        8.2941860       14.56654800    0.00000000
                                                     2        7.7539490       28.96842200    0.00000000
                                      D - G
                                                     2       13.8177510       35.53875600    0.00000000
                                                     2       13.5878050       53.33975900    0.00000000
                                                     2        6.9476300        9.71646600    0.00000000
                                                     2        6.9600990       14.97750000    0.00000000
                                      F - G
                                                     2       18.5229500      -20.17661800    0.00000000
                                                     2       18.2510350      -26.08807700    0.00000000
                                                     2        7.5579010       -0.22043400    0.00000000
                                                     2        7.5974040       -0.22164600    0.00000000
    4          1
                                   No pseudopotential on this center.
 ======================================================================================================
 Ernie: Thresh=  0.10000D-02 Tol=  0.10000D-05 Strict=F.
 Ernie:  23 primitive shells out of 166 were deleted.
   174 basis functions,   383 primitive gaussians,   204 cartesian basis functions
    26 alpha electrons       26 beta electrons
       nuclear repulsion energy       144.0017626802 Hartrees.
 IExCor=    0 DFT=F Ex=HF Corr=None ExCW=0 ScaHFX=  1.000000
 ScaDFX=  1.000000  1.000000  1.000000  1.000000 ScalE2=  1.000000  1.000000
 IRadAn=      0 IRanWt=     -1 IRanGd=            0 ICorTp=0 IEmpDi=  4
 NAtoms=    4 NActive=    4 NUniq=    4 SFac= 1.00D+00 NAtFMM=   60 NAOKFM=F Big=F
 Integral buffers will be    131072 words long.
 Raffenetti 1 integral format.
 Two-electron integral symmetry is turned off.
 Leave Link  301 at Tue Oct 12 15:36:01 2021, MaxMem=  1048576000 cpu:         0.6
 (Enter /usr/local/gaussian/g09/l302.exe)
 NPDir=0 NMtPBC=     1 NCelOv=     1 NCel=       1 NClECP=     1 NCelD=      1
         NCelK=      1 NCelE2=     1 NClLst=     1 CellRange=     0.0.
 One-electron integrals computed using PRISM.
   1 Symmetry operations used in ECPInt.
 ECPInt:  NShTT=    1596 NPrTT=   10643 LenC2=    1597 LenP2D=    8423.
 LDataN:  DoStor=T MaxTD1= 7 Len=  274
 NBasis=   174 RedAO= T EigKep=  2.44D-04  NBF=   174
 NBsUse=   174 1.00D-06 EigRej= -1.00D+00 NBFU=   174
 Leave Link  302 at Tue Oct 12 15:36:01 2021, MaxMem=  1048576000 cpu:         2.8
 (Enter /usr/local/gaussian/g09/l303.exe)
 DipDrv:  MaxL=1.
 Leave Link  303 at Tue Oct 12 15:36:01 2021, MaxMem=  1048576000 cpu:         0.2
 (Enter /usr/local/gaussian/g09/l401.exe)
 ExpMin= 2.53D-02 ExpMax= 4.56D+05 ExpMxC= 1.44D+03 IAcc=3 IRadAn=         5 AccDes= 0.00D+00
 Harris functional with IExCor=  205 and IRadAn=       5 diagonalized for initial guess.
 HarFok:  IExCor=  205 AccDes= 0.00D+00 IRadAn=         5 IDoV= 1 UseB2=F ITyADJ=14
 ICtDFT=  3500011 ScaDFX=  1.000000  1.000000  1.000000  1.000000
 Defaulting to unpruned grid for atomic number  53.
 Defaulting to unpruned grid for atomic number  53.
 Defaulting to unpruned grid for atomic number  53.
 Defaulting to unpruned grid for atomic number  53.
 Defaulting to unpruned grid for atomic number  53.
 Defaulting to unpruned grid for atomic number  53.
 Defaulting to unpruned grid for atomic number  53.
 Defaulting to unpruned grid for atomic number  53.
 Defaulting to unpruned grid for atomic number  53.
 Defaulting to unpruned grid for atomic number  53.
 Defaulting to unpruned grid for atomic number  53.
 Defaulting to unpruned grid for atomic number  53.
 FoFCou: FMM=F IPFlag=           0 FMFlag=      100000 FMFlg1=           0
         NFxFlg=           0 DoJE=T BraDBF=F KetDBF=T FulRan=T
         wScrn=  0.000000 ICntrl=     500 IOpCl=  0 I1Cent=   200000004 NGrid=           0
         NMat0=    1 NMatS0=      1 NMatT0=    0 NMatD0=    1 NMtDS0=    0 NMtDT0=    0
 Symmetry not used in FoFCou.
 Harris En= -831.047054686433    
 JPrj=0 DoOrth=F DoCkMO=F.
 Leave Link  401 at Tue Oct 12 15:36:02 2021, MaxMem=  1048576000 cpu:         3.1
 (Enter /usr/local/gaussian/g09/l502.exe)
 Closed shell SCF:
 Using DIIS extrapolation, IDIIS=  1040.
 Two-electron integral symmetry not used.
 Keep R1 ints in memory in canonical form, NReq=124441421.
 IVT=      147078 IEndB=      147078 NGot=  1048576000 MDV=   932520998
 LenX=   932520998 LenY=   932478941
 Requested convergence on RMS density matrix=1.00D-08 within 128 cycles.
 Requested convergence on MAX density matrix=1.00D-06.
 Requested convergence on             energy=1.00D-06.
 No special actions if energy rises.
 FoFCou: FMM=F IPFlag=           0 FMFlag=           0 FMFlg1=           0
         NFxFlg=           0 DoJE=F BraDBF=F KetDBF=F FulRan=T
         wScrn=  0.000000 ICntrl=     600 IOpCl=  0 I1Cent=           0 NGrid=           0
         NMat0=    1 NMatS0=  15225 NMatT0=    0 NMatD0=    1 NMtDS0=    0 NMtDT0=    0
 Symmetry not used in FoFCou.

 Cycle   1  Pass 1  IDiag  1:
 E= -829.518048822651    
 DIIS: error= 2.71D-02 at cycle   1 NSaved=   1.
 NSaved= 1 IEnMin= 1 EnMin= -829.518048822651     IErMin= 1 ErrMin= 2.71D-02
 ErrMax= 2.71D-02  0.00D+00 EMaxC= 1.00D-01 BMatC= 4.51D-01 BMatP= 4.51D-01
 IDIUse=3 WtCom= 7.29D-01 WtEn= 2.71D-01
 Coeff-Com:  0.100D+01
 Coeff-En:   0.100D+01
 Coeff:      0.100D+01
 Gap=     0.449 Goal=   None    Shift=    0.000
 GapD=    0.449 DampG=2.000 DampE=0.500 DampFc=1.0000 IDamp=-1.
 RMSDP=3.85D-03 MaxDP=1.36D-01              OVMax= 1.23D-01

 Cycle   2  Pass 1  IDiag  1:
 E= -829.629666509622     Delta-E=       -0.111617686970 Rises=F Damp=F
 DIIS: error= 2.16D-02 at cycle   2 NSaved=   2.
 NSaved= 2 IEnMin= 2 EnMin= -829.629666509622     IErMin= 2 ErrMin= 2.16D-02
 ErrMax= 2.16D-02  0.00D+00 EMaxC= 1.00D-01 BMatC= 5.76D-02 BMatP= 4.51D-01
 IDIUse=3 WtCom= 7.84D-01 WtEn= 2.16D-01
 Coeff-Com:  0.201D+00 0.799D+00
 Coeff-En:   0.000D+00 0.100D+01
 Coeff:      0.158D+00 0.842D+00
 Gap=     0.333 Goal=   None    Shift=    0.000
 RMSDP=1.70D-03 MaxDP=8.27D-02 DE=-1.12D-01 OVMax= 8.14D-02

 Cycle   3  Pass 1  IDiag  1:
 E= -829.657001064742     Delta-E=       -0.027334555120 Rises=F Damp=F
 DIIS: error= 1.04D-02 at cycle   3 NSaved=   3.
 NSaved= 3 IEnMin= 3 EnMin= -829.657001064742     IErMin= 3 ErrMin= 1.04D-02
 ErrMax= 1.04D-02  0.00D+00 EMaxC= 1.00D-01 BMatC= 1.65D-02 BMatP= 5.76D-02
 IDIUse=3 WtCom= 8.96D-01 WtEn= 1.04D-01
 Coeff-Com:  0.629D-03 0.343D+00 0.657D+00
 Coeff-En:   0.000D+00 0.155D+00 0.845D+00
 Coeff:      0.563D-03 0.323D+00 0.676D+00
 Gap=     0.316 Goal=   None    Shift=    0.000
 RMSDP=4.57D-04 MaxDP=2.37D-02 DE=-2.73D-02 OVMax= 3.81D-02

 Cycle   4  Pass 1  IDiag  1:
 E= -829.668535916394     Delta-E=       -0.011534851652 Rises=F Damp=F
 DIIS: error= 1.92D-03 at cycle   4 NSaved=   4.
 NSaved= 4 IEnMin= 4 EnMin= -829.668535916394     IErMin= 4 ErrMin= 1.92D-03
 ErrMax= 1.92D-03  0.00D+00 EMaxC= 1.00D-01 BMatC= 2.81D-04 BMatP= 1.65D-02
 IDIUse=3 WtCom= 9.81D-01 WtEn= 1.92D-02
 Coeff-Com: -0.973D-02 0.546D-02 0.118D+00 0.887D+00
 Coeff-En:   0.000D+00 0.000D+00 0.000D+00 0.100D+01
 Coeff:     -0.954D-02 0.535D-02 0.115D+00 0.889D+00
 Gap=     0.319 Goal=   None    Shift=    0.000
 RMSDP=9.63D-05 MaxDP=5.98D-03 DE=-1.15D-02 OVMax= 3.83D-03

 Cycle   5  Pass 1  IDiag  1:
 E= -829.668798410652     Delta-E=       -0.000262494258 Rises=F Damp=F
 DIIS: error= 2.57D-04 at cycle   5 NSaved=   5.
 NSaved= 5 IEnMin= 5 EnMin= -829.668798410652     IErMin= 5 ErrMin= 2.57D-04
 ErrMax= 2.57D-04  0.00D+00 EMaxC= 1.00D-01 BMatC= 1.61D-05 BMatP= 2.81D-04
 IDIUse=3 WtCom= 9.97D-01 WtEn= 2.57D-03
 Coeff-Com:  0.178D-02-0.303D-01-0.603D-01-0.452D-01 0.113D+01
 Coeff-En:   0.000D+00 0.000D+00 0.000D+00 0.000D+00 0.100D+01
 Coeff:      0.178D-02-0.302D-01-0.601D-01-0.451D-01 0.113D+01
 Gap=     0.318 Goal=   None    Shift=    0.000
 RMSDP=4.82D-05 MaxDP=2.34D-03 DE=-2.62D-04 OVMax= 2.88D-03

 Cycle   6  Pass 1  IDiag  1:
 E= -829.668835640305     Delta-E=       -0.000037229653 Rises=F Damp=F
 DIIS: error= 1.27D-04 at cycle   6 NSaved=   6.
 NSaved= 6 IEnMin= 6 EnMin= -829.668835640305     IErMin= 6 ErrMin= 1.27D-04
 ErrMax= 1.27D-04  0.00D+00 EMaxC= 1.00D-01 BMatC= 1.85D-06 BMatP= 1.61D-05
 IDIUse=3 WtCom= 9.99D-01 WtEn= 1.27D-03
 Coeff-Com:  0.159D-03 0.888D-02 0.102D-01-0.872D-01-0.298D+00 0.137D+01
 Coeff-En:   0.000D+00 0.000D+00 0.000D+00 0.000D+00 0.000D+00 0.100D+01
 Coeff:      0.159D-03 0.887D-02 0.102D-01-0.871D-01-0.297D+00 0.137D+01
 Gap=     0.318 Goal=   None    Shift=    0.000
 RMSDP=1.70D-05 MaxDP=6.36D-04 DE=-3.72D-05 OVMax= 1.45D-03

 Cycle   7  Pass 1  IDiag  1:
 E= -829.668841919891     Delta-E=       -0.000006279587 Rises=F Damp=F
 DIIS: error= 3.34D-05 at cycle   7 NSaved=   7.
 NSaved= 7 IEnMin= 7 EnMin= -829.668841919891     IErMin= 7 ErrMin= 3.34D-05
 ErrMax= 3.34D-05  0.00D+00 EMaxC= 1.00D-01 BMatC= 1.50D-07 BMatP= 1.85D-06
 IDIUse=1 WtCom= 1.00D+00 WtEn= 0.00D+00
 Coeff-Com: -0.173D-03 0.851D-03 0.396D-02 0.198D-01-0.533D-01-0.232D+00
 Coeff-Com:  0.126D+01
 Coeff:     -0.173D-03 0.851D-03 0.396D-02 0.198D-01-0.533D-01-0.232D+00
 Coeff:      0.126D+01
 Gap=     0.318 Goal=   None    Shift=    0.000
 RMSDP=5.07D-06 MaxDP=1.74D-04 DE=-6.28D-06 OVMax= 5.02D-04

 Cycle   8  Pass 1  IDiag  1:
 E= -829.668842534772     Delta-E=       -0.000000614881 Rises=F Damp=F
 DIIS: error= 9.64D-06 at cycle   8 NSaved=   8.
 NSaved= 8 IEnMin= 8 EnMin= -829.668842534772     IErMin= 8 ErrMin= 9.64D-06
 ErrMax= 9.64D-06  0.00D+00 EMaxC= 1.00D-01 BMatC= 2.06D-08 BMatP= 1.50D-07
 IDIUse=1 WtCom= 1.00D+00 WtEn= 0.00D+00
 Coeff-Com: -0.123D-04-0.128D-02-0.115D-02 0.125D-01 0.369D-01-0.195D+00
 Coeff-Com:  0.694D-01 0.108D+01
 Coeff:     -0.123D-04-0.128D-02-0.115D-02 0.125D-01 0.369D-01-0.195D+00
 Coeff:      0.694D-01 0.108D+01
 Gap=     0.318 Goal=   None    Shift=    0.000
 RMSDP=1.83D-06 MaxDP=6.11D-05 DE=-6.15D-07 OVMax= 1.52D-04

 Cycle   9  Pass 1  IDiag  1:
 E= -829.668842603329     Delta-E=       -0.000000068556 Rises=F Damp=F
 DIIS: error= 3.42D-06 at cycle   9 NSaved=   9.
 NSaved= 9 IEnMin= 9 EnMin= -829.668842603329     IErMin= 9 ErrMin= 3.42D-06
 ErrMax= 3.42D-06  0.00D+00 EMaxC= 1.00D-01 BMatC= 2.15D-09 BMatP= 2.06D-08
 IDIUse=1 WtCom= 1.00D+00 WtEn= 0.00D+00
 Coeff-Com:  0.170D-04 0.282D-03-0.244D-04-0.649D-02-0.499D-02 0.838D-01
 Coeff-Com: -0.142D+00-0.371D+00 0.144D+01
 Coeff:      0.170D-04 0.282D-03-0.244D-04-0.649D-02-0.499D-02 0.838D-01
 Coeff:     -0.142D+00-0.371D+00 0.144D+01
 Gap=     0.318 Goal=   None    Shift=    0.000
 RMSDP=8.75D-07 MaxDP=3.32D-05 DE=-6.86D-08 OVMax= 7.53D-05

 Cycle  10  Pass 1  IDiag  1:
 E= -829.668842613366     Delta-E=       -0.000000010038 Rises=F Damp=F
 DIIS: error= 1.35D-06 at cycle  10 NSaved=  10.
 NSaved=10 IEnMin=10 EnMin= -829.668842613366     IErMin=10 ErrMin= 1.35D-06
 ErrMax= 1.35D-06  0.00D+00 EMaxC= 1.00D-01 BMatC= 2.45D-10 BMatP= 2.15D-09
 IDIUse=1 WtCom= 1.00D+00 WtEn= 0.00D+00
 Coeff-Com: -0.287D-05 0.613D-04 0.104D-03 0.517D-03-0.257D-02-0.481D-03
 Coeff-Com:  0.272D-01-0.172D-01-0.345D+00 0.134D+01
 Coeff:     -0.287D-05 0.613D-04 0.104D-03 0.517D-03-0.257D-02-0.481D-03
 Coeff:      0.272D-01-0.172D-01-0.345D+00 0.134D+01
 Gap=     0.318 Goal=   None    Shift=    0.000
 RMSDP=2.68D-07 MaxDP=6.04D-06 DE=-1.00D-08 OVMax= 2.82D-05

 Cycle  11  Pass 1  IDiag  1:
 E= -829.668842614609     Delta-E=       -0.000000001243 Rises=F Damp=F
 DIIS: error= 5.06D-07 at cycle  11 NSaved=  11.
 NSaved=11 IEnMin=11 EnMin= -829.668842614609     IErMin=11 ErrMin= 5.06D-07
 ErrMax= 5.06D-07  0.00D+00 EMaxC= 1.00D-01 BMatC= 3.92D-11 BMatP= 2.45D-10
 IDIUse=1 WtCom= 1.00D+00 WtEn= 0.00D+00
 Coeff-Com: -0.315D-05-0.414D-04 0.109D-04 0.107D-02 0.555D-03-0.132D-01
 Coeff-Com:  0.232D-01 0.582D-01-0.234D+00-0.393D-01 0.120D+01
 Coeff:     -0.315D-05-0.414D-04 0.109D-04 0.107D-02 0.555D-03-0.132D-01
 Coeff:      0.232D-01 0.582D-01-0.234D+00-0.393D-01 0.120D+01
 Gap=     0.318 Goal=   None    Shift=    0.000
 RMSDP=1.16D-07 MaxDP=2.72D-06 DE=-1.24D-09 OVMax= 1.16D-05

 Cycle  12  Pass 1  IDiag  1:
 E= -829.668842614799     Delta-E=       -0.000000000190 Rises=F Damp=F
 DIIS: error= 2.01D-07 at cycle  12 NSaved=  12.
 NSaved=12 IEnMin=12 EnMin= -829.668842614799     IErMin=12 ErrMin= 2.01D-07
 ErrMax= 2.01D-07  0.00D+00 EMaxC= 1.00D-01 BMatC= 3.29D-12 BMatP= 3.92D-11
 IDIUse=1 WtCom= 1.00D+00 WtEn= 0.00D+00
 Coeff-Com:  0.323D-06-0.730D-05-0.122D-04-0.726D-04 0.331D-03 0.187D-03
 Coeff-Com: -0.351D-02 0.769D-03 0.451D-01-0.140D+00-0.844D-01 0.118D+01
 Coeff:      0.323D-06-0.730D-05-0.122D-04-0.726D-04 0.331D-03 0.187D-03
 Coeff:     -0.351D-02 0.769D-03 0.451D-01-0.140D+00-0.844D-01 0.118D+01
 Gap=     0.318 Goal=   None    Shift=    0.000
 RMSDP=3.95D-08 MaxDP=1.72D-06 DE=-1.90D-10 OVMax= 3.11D-06

 Cycle  13  Pass 1  IDiag  1:
 E= -829.668842614818     Delta-E=       -0.000000000019 Rises=F Damp=F
 DIIS: error= 6.28D-08 at cycle  13 NSaved=  13.
 NSaved=13 IEnMin=13 EnMin= -829.668842614818     IErMin=13 ErrMin= 6.28D-08
 ErrMax= 6.28D-08  0.00D+00 EMaxC= 1.00D-01 BMatC= 3.83D-13 BMatP= 3.29D-12
 IDIUse=1 WtCom= 1.00D+00 WtEn= 0.00D+00
 Coeff-Com:  0.268D-06 0.468D-05-0.118D-06-0.894D-04-0.893D-04 0.121D-02
 Coeff-Com: -0.172D-02-0.548D-02 0.148D-01 0.330D-01-0.125D+00-0.179D+00
 Coeff-Com:  0.126D+01
 Coeff:      0.268D-06 0.468D-05-0.118D-06-0.894D-04-0.893D-04 0.121D-02
 Coeff:     -0.172D-02-0.548D-02 0.148D-01 0.330D-01-0.125D+00-0.179D+00
 Coeff:      0.126D+01
 Gap=     0.318 Goal=   None    Shift=    0.000
 RMSDP=1.40D-08 MaxDP=8.15D-07 DE=-1.91D-11 OVMax= 9.64D-07

 Cycle  14  Pass 1  IDiag  1:
 E= -829.668842614817     Delta-E=        0.000000000001 Rises=F Damp=F
 DIIS: error= 1.44D-08 at cycle  14 NSaved=  14.
 NSaved=14 IEnMin=13 EnMin= -829.668842614818     IErMin=14 ErrMin= 1.44D-08
 ErrMax= 1.44D-08  0.00D+00 EMaxC= 1.00D-01 BMatC= 3.32D-14 BMatP= 3.83D-13
 IDIUse=1 WtCom= 1.00D+00 WtEn= 0.00D+00
 Coeff-Com: -0.518D-07 0.361D-06 0.143D-05 0.137D-04-0.274D-04-0.103D-03
 Coeff-Com:  0.479D-03 0.274D-03-0.556D-02 0.117D-01 0.147D-01-0.925D-01
 Coeff-Com: -0.143D+00 0.121D+01
 Coeff:     -0.518D-07 0.361D-06 0.143D-05 0.137D-04-0.274D-04-0.103D-03
 Coeff:      0.479D-03 0.274D-03-0.556D-02 0.117D-01 0.147D-01-0.925D-01
 Coeff:     -0.143D+00 0.121D+01
 Gap=     0.318 Goal=   None    Shift=    0.000
 RMSDP=3.79D-09 MaxDP=1.72D-07 DE= 9.09D-13 OVMax= 2.98D-07

 SCF Done:  E(RHF) =  -829.668842615     A.U. after   14 cycles
            NFock= 14  Conv=0.38D-08     -V/T= 2.2853
 KE= 6.455071064510D+02 PE=-2.196434556087D+03 EE= 5.772568443413D+02
 Leave Link  502 at Tue Oct 12 15:36:05 2021, MaxMem=  1048576000 cpu:        17.6
 (Enter /usr/local/gaussian/g09/l801.exe)
 ExpMin= 2.53D-02 ExpMax= 4.56D+05 ExpMxC= 1.44D+03 IAcc=3 IRadAn=         5 AccDes= 0.00D+00
 HarFok:  IExCor=  205 AccDes= 0.00D+00 IRadAn=         5 IDoV=-2 UseB2=F ITyADJ=14
 ICtDFT= 12500011 ScaDFX=  1.000000  1.000000  1.000000  1.000000
 Defaulting to unpruned grid for atomic number  53.
 Defaulting to unpruned grid for atomic number  53.
 Defaulting to unpruned grid for atomic number  53.
 Defaulting to unpruned grid for atomic number  53.
 Defaulting to unpruned grid for atomic number  53.
 Defaulting to unpruned grid for atomic number  53.
 Defaulting to unpruned grid for atomic number  53.
 Defaulting to unpruned grid for atomic number  53.
 Defaulting to unpruned grid for atomic number  53.
 Defaulting to unpruned grid for atomic number  53.
 Defaulting to unpruned grid for atomic number  53.
 Defaulting to unpruned grid for atomic number  53.
 Largest valence mixing into a core orbital is  4.47D-04
 Largest core mixing into a valence orbital is  1.57D-04
 Range of M.O.s used for correlation:    11   174
 NBasis=   174 NAE=    26 NBE=    26 NFC=    10 NFV=     0
 NROrb=    164 NOA=    16 NOB=    16 NVA=   148 NVB=   148

 **** Warning!!: The largest alpha MO coefficient is  0.17814221D+02

 Leave Link  801 at Tue Oct 12 15:36:05 2021, MaxMem=  1048576000 cpu:         0.8
 (Enter /usr/local/gaussian/g09/l906.exe)
 Frozen-core derivative calculation, NFC=  10 NFV=   0.
 FulOut=F Deriv=T AODrv=F NAtomX=     4
   MMem=         239  MDisk=          16 MDiskD=          16
  W3Min=      922896 MinDsk=     1491158 NBas6D=         204
 NBas2D=       21411    NTT=       20910    LW2=    26219120
    MDV=  1048172245 MDiskM=       25641 NBas2p=       21407
 Fully in-core method, ICMem=   539113593.
 IMap=   1   2   3   4   5   6   7   8   9  10  11  12  13  14  15  16  17  18  19  20
 IMap=  21  22  23  24  25  26
 JobTyp=1 Pass  1 fully in-core, NPsUse= 12.
 Compute canonical integrals.
 FoFCou: FMM=F IPFlag=           0 FMFlag=           0 FMFlg1=           0
         NFxFlg=           0 DoJE=F BraDBF=F KetDBF=F FulRan=T
         wScrn=  0.000000 ICntrl=     600 IOpCl=  1 I1Cent=           0 NGrid=           0
         NMat0=    1 NMatS0=  21411 NMatT0=    0 NMatD0=    1 NMtDS0=    0 NMtDT0=    0
 Symmetry not used in FoFCou.
 Spin components of T(2) and E(2):
     alpha-alpha T2 =       0.3252395001D-01 E2=     -0.9334198099D-01
     alpha-beta  T2 =       0.1704880636D+00 E2=     -0.5050059772D+00
     beta-beta   T2 =       0.3252395001D-01 E2=     -0.9334198099D-01
 The integrals were generated   1 times.
 ANorm=    0.1111546654D+01
 E2 =    -0.6916899392D+00 EUMP2 =    -0.83036053255403D+03
 Leave Link  906 at Tue Oct 12 15:36:14 2021, MaxMem=  1048576000 cpu:       103.5
 (Enter /usr/local/gaussian/g09/l1002.exe)
 Minotr:  Closed shell wavefunction.
          Computing MP2/KS-MP2 derivatives.
          Using Z-Vector for PSCF gradient.
          Skipping F1 and S1 gradient terms here.
          Frozen-core window.
          Direct CPHF calculation.
          Differentiating once with respect to electric field.
                with respect to dipole field.
          Electric field/nuclear overlap derivatives assumed to be zero.
          Requested convergence is 1.0D-10 RMS, and 1.0D-09 maximum.
          NewPWx=F KeepS1=T KeepF1=T KeepIn=T MapXYZ=F SortEE=F KeepMc=T.
          MDV=    1048575800 using IRadAn=       0.
 Keep R1 ints in memory in canonical form, NReq=124351870.
 FoFCou: FMM=F IPFlag=           0 FMFlag=           0 FMFlg1=           0
         NFxFlg=           0 DoJE=F BraDBF=F KetDBF=F FulRan=T
         wScrn=  0.000000 ICntrl=     600 IOpCl=  0 I1Cent=           0 NGrid=           0
         NMat0=    1 NMatS0=  15225 NMatT0=    0 NMatD0=    1 NMtDS0=    0 NMtDT0=    0
 Symmetry not used in FoFCou.
          Solving linear equations separately, MaxMat=       0.
          There are     1 degrees of freedom in the 1st order CPHF.  IDoFFX=0 NUNeed=     1.
 LinEq1:  Iter=  0 NonCon=     1 RMS=3.14D-03 Max=5.37D-02 NDo=     1
 AX will form     1 AO Fock derivatives at one time.
 LinEq1:  Iter=  1 NonCon=     1 RMS=5.03D-04 Max=5.70D-03 NDo=     1
 LinEq1:  Iter=  2 NonCon=     1 RMS=2.24D-04 Max=3.77D-03 NDo=     1
 LinEq1:  Iter=  3 NonCon=     1 RMS=7.37D-05 Max=1.34D-03 NDo=     1
 LinEq1:  Iter=  4 NonCon=     1 RMS=3.63D-05 Max=8.90D-04 NDo=     1
 LinEq1:  Iter=  5 NonCon=     1 RMS=9.62D-06 Max=1.63D-04 NDo=     1
 LinEq1:  Iter=  6 NonCon=     1 RMS=2.34D-06 Max=2.44D-05 NDo=     1
 LinEq1:  Iter=  7 NonCon=     1 RMS=6.43D-07 Max=1.12D-05 NDo=     1
 LinEq1:  Iter=  8 NonCon=     1 RMS=1.77D-07 Max=3.18D-06 NDo=     1
 LinEq1:  Iter=  9 NonCon=     1 RMS=5.46D-08 Max=7.77D-07 NDo=     1
 LinEq1:  Iter= 10 NonCon=     1 RMS=1.48D-08 Max=1.97D-07 NDo=     1
 LinEq1:  Iter= 11 NonCon=     1 RMS=3.38D-09 Max=6.49D-08 NDo=     1
 LinEq1:  Iter= 12 NonCon=     1 RMS=9.41D-10 Max=1.21D-08 NDo=     1
 LinEq1:  Iter= 13 NonCon=     1 RMS=2.44D-10 Max=4.63D-09 NDo=     1
 LinEq1:  Iter= 14 NonCon=     0 RMS=4.15D-11 Max=5.19D-10 NDo=     1
 Linear equations converged to 1.000D-10 1.000D-09 after    14 iterations.
 End of Minotr F.D. properties file   721 does not exist.
 End of Minotr F.D. properties file   722 does not exist.
 End of Minotr F.D. properties file   788 does not exist.
 Leave Link 1002 at Tue Oct 12 15:36:17 2021, MaxMem=  1048576000 cpu:        16.5
 (Enter /usr/local/gaussian/g09/l601.exe)
 Copying SCF densities to generalized density rwf, IOpCl= 0 IROHF=0.

 **********************************************************************

            Population analysis using the MP2 density.

 **********************************************************************

 Alpha  occ. eigenvalues -- -104.72634 -20.46102 -10.44591  -7.91305  -7.91050
 Alpha  occ. eigenvalues --   -7.91040  -7.49010  -5.31636  -5.31508  -5.31505
 Alpha  occ. eigenvalues --   -2.04412  -2.04336  -2.04333  -2.04195  -2.04195
 Alpha  occ. eigenvalues --   -1.20407  -0.88276  -0.65750  -0.50590  -0.43407
 Alpha  occ. eigenvalues --   -0.42537  -0.30093  -0.27489  -0.17583  -0.16360
 Alpha  occ. eigenvalues --   -0.16344
 Alpha virt. eigenvalues --    0.15489   0.18124   0.21453   0.22886   0.24051
 Alpha virt. eigenvalues --    0.24730   0.25079   0.28480   0.29832   0.31087
 Alpha virt. eigenvalues --    0.31343   0.31369   0.35028   0.36998   0.37515
 Alpha virt. eigenvalues --    0.38897   0.40470   0.42154   0.46103   0.50713
 Alpha virt. eigenvalues --    0.51747   0.54006   0.54486   0.56624   0.57341
 Alpha virt. eigenvalues --    0.59895   0.64860   0.65926   0.73375   0.75143
 Alpha virt. eigenvalues --    0.75485   0.77044   0.77099   0.78250   0.78416
 Alpha virt. eigenvalues --    0.80651   0.80973   0.82409   0.82890   0.86270
 Alpha virt. eigenvalues --    0.86445   0.87025   0.87623   0.91114   0.91370
 Alpha virt. eigenvalues --    0.93599   0.95405   0.96445   0.99808   1.00270
 Alpha virt. eigenvalues --    1.06690   1.09414   1.10192   1.12092   1.14367
 Alpha virt. eigenvalues --    1.14651   1.20393   1.20461   1.22326   1.25060
 Alpha virt. eigenvalues --    1.27632   1.31264   1.34977   1.40890   1.44828
 Alpha virt. eigenvalues --    1.51265   1.53078   1.56412   1.57444   1.59903
 Alpha virt. eigenvalues --    1.65669   1.68215   1.70429   1.73174   1.73392
 Alpha virt. eigenvalues --    1.73439   1.75065   1.76514   1.79478   1.83736
 Alpha virt. eigenvalues --    1.87116   1.90816   1.91278   1.98420   2.04246
 Alpha virt. eigenvalues --    2.04261   2.08985   2.13394   2.17128   2.32645
 Alpha virt. eigenvalues --    2.38964   2.50881   2.51684   2.51728   2.56091
 Alpha virt. eigenvalues --    2.56504   2.61180   2.65045   2.67931   2.68514
 Alpha virt. eigenvalues --    2.72127   2.75642   2.77032   2.78330   2.96068
 Alpha virt. eigenvalues --    2.97088   3.02650   3.09033   3.19539   3.22077
 Alpha virt. eigenvalues --    3.22684   3.29426   3.29958   3.30424   3.37537
 Alpha virt. eigenvalues --    3.40297   3.51899   3.54590   3.55112   3.69987
 Alpha virt. eigenvalues --    3.92259   4.21293   4.38521   4.39544   4.53311
 Alpha virt. eigenvalues --    4.61885   4.71361   4.86538   4.87004   5.01697
 Alpha virt. eigenvalues --    5.17205   5.45623   6.47873   6.56614   6.82553
 Alpha virt. eigenvalues --    6.88843   6.91984   6.97504   7.10933   7.18002
 Alpha virt. eigenvalues --    7.34483   7.40514   7.51462   7.67195   7.92151
 Alpha virt. eigenvalues --    8.08693  13.02558  59.19676
          Condensed to atoms (all electrons):
               1          2          3          4
     1  O    8.674531  -0.121608  -0.119330   0.093807
     2  Cl  -0.121608  17.088898   0.016473  -0.016672
     3  I   -0.119330   0.016473  25.831726   0.011246
     4  H    0.093807  -0.016672   0.011246   0.677014
 Mulliken charges:
               1
     1  O   -0.527400
     2  Cl   0.032909
     3  I   -0.740115
     4  H    0.234606
 Sum of Mulliken charges =  -1.00000
 Mulliken charges with hydrogens summed into heavy atoms:
               1
     1  O   -0.292794
     2  Cl   0.032909
     3  I   -0.740115
 Electronic spatial extent (au):  <R**2>=           1304.3447
 Charge=             -1.0000 electrons
 Dipole moment (field-independent basis, Debye):
    X=              1.6595    Y=             10.4879    Z=             -0.0000  Tot=             10.6184
 Quadrupole moment (field-independent basis, Debye-Ang):
   XX=            -55.7685   YY=            -89.4789   ZZ=            -53.0960
   XY=             -8.9828   XZ=             -0.0000   YZ=              0.0000
 Traceless Quadrupole moment (field-independent basis, Debye-Ang):
   XX=             10.3459   YY=            -23.3644   ZZ=             13.0184
   XY=             -8.9828   XZ=             -0.0000   YZ=              0.0000
 Octapole moment (field-independent basis, Debye-Ang**2):
  XXX=             10.3971  YYY=            434.3558  ZZZ=             -0.0000  XYY=             30.0649
  XXY=            112.4033  XXZ=              0.0000  XZZ=              1.8686  YZZ=            105.9109
  YYZ=              0.0000  XYZ=              0.0000
 Hexadecapole moment (field-independent basis, Debye-Ang**3):
 XXXX=           -411.1494 YYYY=          -2476.4876 ZZZZ=            -85.3329 XXXY=           -246.3154
 XXXZ=             -0.0000 YYYX=           -325.8620 YYYZ=             -0.0000 ZZZX=             -0.0000
 ZZZY=             -0.0000 XXYY=           -446.9372 XXZZ=            -87.2907 YYZZ=           -368.4639
 XXYZ=             -0.0000 YYXZ=             -0.0000 ZZXY=            -80.4681
 N-N= 1.440017626802D+02 E-N=-2.195976483523D+03  KE= 6.458969156522D+02
 No NMR shielding tensors so no spin-rotation constants.
 Leave Link  601 at Tue Oct 12 15:36:17 2021, MaxMem=  1048576000 cpu:         2.1
 (Enter /usr/local/gaussian/g09/l607.exe)
 ******************************Gaussian NBO Version 3.1******************************
             N A T U R A L   A T O M I C   O R B I T A L   A N D
          N A T U R A L   B O N D   O R B I T A L   A N A L Y S I S
 ******************************Gaussian NBO Version 3.1******************************
       /RESON  / : Allow strongly delocalized NBO set

 Analyzing the MP2 density

 Job title: title                                                           

 Storage needed:     91686 in NPA,    121697 in NBO (1048575904 available)


 NATURAL POPULATIONS:  Natural atomic orbital occupancies 
                                                          
   NAO  Atom  No  lang   Type(AO)    Occupancy
 --------------------------------------------
     1    O    1  S      Cor( 1S)     1.99977
     2    O    1  S      Val( 2S)     1.82115
     3    O    1  S      Ryd( 3S)     0.01079
     4    O    1  S      Ryd( 4S)     0.00119
     5    O    1  S      Ryd( 5S)     0.00017
     6    O    1  px     Val( 2p)     1.19952
     7    O    1  px     Ryd( 3p)     0.00750
     8    O    1  px     Ryd( 4p)     0.00066
     9    O    1  px     Ryd( 5p)     0.00047
    10    O    1  py     Val( 2p)     1.71994
    11    O    1  py     Ryd( 3p)     0.01306
    12    O    1  py     Ryd( 4p)     0.00070
    13    O    1  py     Ryd( 5p)     0.00065
    14    O    1  pz     Val( 2p)     1.94659
    15    O    1  pz     Ryd( 3p)     0.02134
    16    O    1  pz     Ryd( 4p)     0.00063
    17    O    1  pz     Ryd( 5p)     0.00018
    18    O    1  dxy    Ryd( 3d)     0.00868
    19    O    1  dxy    Ryd( 4d)     0.00053
    20    O    1  dxy    Ryd( 5d)     0.00013
    21    O    1  dxz    Ryd( 3d)     0.00887
    22    O    1  dxz    Ryd( 4d)     0.00061
    23    O    1  dxz    Ryd( 5d)     0.00010
    24    O    1  dyz    Ryd( 3d)     0.00731
    25    O    1  dyz    Ryd( 4d)     0.00066
    26    O    1  dyz    Ryd( 5d)     0.00029
    27    O    1  dx2y2  Ryd( 3d)     0.01283
    28    O    1  dx2y2  Ryd( 4d)     0.00041
    29    O    1  dx2y2  Ryd( 5d)     0.00018
    30    O    1  dz2    Ryd( 3d)     0.00914
    31    O    1  dz2    Ryd( 4d)     0.00064
    32    O    1  dz2    Ryd( 5d)     0.00018
    33    O    1  f(0)   Ryd( 4f)     0.00071
    34    O    1  f(0)   Ryd( 5f)     0.00011
    35    O    1  f(C1)  Ryd( 4f)     0.00067
    36    O    1  f(C1)  Ryd( 5f)     0.00012
    37    O    1  f(S1)  Ryd( 4f)     0.00062
    38    O    1  f(S1)  Ryd( 5f)     0.00011
    39    O    1  f(C2)  Ryd( 4f)     0.00061
    40    O    1  f(C2)  Ryd( 5f)     0.00013
    41    O    1  f(S2)  Ryd( 4f)     0.00055
    42    O    1  f(S2)  Ryd( 5f)     0.00012
    43    O    1  f(C3)  Ryd( 4f)     0.00062
    44    O    1  f(C3)  Ryd( 5f)     0.00014
    45    O    1  f(S3)  Ryd( 4f)     0.00058
    46    O    1  f(S3)  Ryd( 5f)     0.00012

    47   Cl    2  S      Cor( 1S)     2.00000
    48   Cl    2  S      Cor( 2S)     1.99975
    49   Cl    2  S      Val( 3S)     1.87912
    50   Cl    2  S      Ryd( 4S)     0.00765
    51   Cl    2  S      Ryd( 5S)     0.00052
    52   Cl    2  S      Ryd( 6S)     0.00019
    53   Cl    2  px     Cor( 2p)     1.99995
    54   Cl    2  px     Val( 3p)     0.91780
    55   Cl    2  px     Ryd( 4p)     0.00658
    56   Cl    2  px     Ryd( 5p)     0.00053
    57   Cl    2  px     Ryd( 6p)     0.00022
    58   Cl    2  py     Cor( 2p)     2.00003
    59   Cl    2  py     Val( 3p)     1.95234
    60   Cl    2  py     Ryd( 4p)     0.01018
    61   Cl    2  py     Ryd( 5p)     0.00054
    62   Cl    2  py     Ryd( 6p)     0.00012
    63   Cl    2  pz     Cor( 2p)     2.00003
    64   Cl    2  pz     Val( 3p)     1.95419
    65   Cl    2  pz     Ryd( 4p)     0.01089
    66   Cl    2  pz     Ryd( 5p)     0.00069
    67   Cl    2  pz     Ryd( 6p)     0.00003
    68   Cl    2  dxy    Ryd( 3d)     0.01741
    69   Cl    2  dxy    Ryd( 4d)     0.00091
    70   Cl    2  dxy    Ryd( 5d)     0.00035
    71   Cl    2  dxz    Ryd( 3d)     0.02159
    72   Cl    2  dxz    Ryd( 4d)     0.00113
    73   Cl    2  dxz    Ryd( 5d)     0.00037
    74   Cl    2  dyz    Ryd( 3d)     0.01687
    75   Cl    2  dyz    Ryd( 4d)     0.00072
    76   Cl    2  dyz    Ryd( 5d)     0.00021
    77   Cl    2  dx2y2  Ryd( 3d)     0.01864
    78   Cl    2  dx2y2  Ryd( 4d)     0.00049
    79   Cl    2  dx2y2  Ryd( 5d)     0.00018
    80   Cl    2  dz2    Ryd( 3d)     0.01762
    81   Cl    2  dz2    Ryd( 4d)     0.00060
    82   Cl    2  dz2    Ryd( 5d)     0.00018
    83   Cl    2  f(0)   Ryd( 4f)     0.00132
    84   Cl    2  f(0)   Ryd( 5f)     0.00014
    85   Cl    2  f(C1)  Ryd( 4f)     0.00149
    86   Cl    2  f(C1)  Ryd( 5f)     0.00015
    87   Cl    2  f(S1)  Ryd( 4f)     0.00127
    88   Cl    2  f(S1)  Ryd( 5f)     0.00013
    89   Cl    2  f(C2)  Ryd( 4f)     0.00135
    90   Cl    2  f(C2)  Ryd( 5f)     0.00013
    91   Cl    2  f(S2)  Ryd( 4f)     0.00120
    92   Cl    2  f(S2)  Ryd( 5f)     0.00013
    93   Cl    2  f(C3)  Ryd( 4f)     0.00163
    94   Cl    2  f(C3)  Ryd( 5f)     0.00013
    95   Cl    2  f(S3)  Ryd( 4f)     0.00128
    96   Cl    2  f(S3)  Ryd( 5f)     0.00014

    97    I    3  S      Cor( 4S)     1.99959
    98    I    3  S      Val( 5S)     1.95432
    99    I    3  S      Ryd( 6S)     0.00161
   100    I    3  S      Ryd( 7S)     0.00063
   101    I    3  S      Ryd( 8S)     0.00015
   102    I    3  S      Ryd( 9S)     0.00001
   103    I    3  px     Cor( 4p)     1.99995
   104    I    3  px     Val( 5p)     1.94145
   105    I    3  px     Ryd( 6p)     0.01015
   106    I    3  px     Ryd( 7p)     0.00071
   107    I    3  px     Ryd( 8p)     0.00011
   108    I    3  py     Cor( 4p)     1.99969
   109    I    3  py     Val( 5p)     1.77925
   110    I    3  py     Ryd( 6p)     0.00878
   111    I    3  py     Ryd( 7p)     0.00063
   112    I    3  py     Ryd( 8p)     0.00014
   113    I    3  pz     Cor( 4p)     1.99997
   114    I    3  pz     Val( 5p)     1.95135
   115    I    3  pz     Ryd( 6p)     0.01026
   116    I    3  pz     Ryd( 7p)     0.00071
   117    I    3  pz     Ryd( 8p)     0.00011
   118    I    3  dxy    Cor( 4d)     1.99667
   119    I    3  dxy    Ryd( 5d)     0.01978
   120    I    3  dxy    Ryd( 6d)     0.00126
   121    I    3  dxy    Ryd( 7d)     0.00020
   122    I    3  dxz    Cor( 4d)     1.99678
   123    I    3  dxz    Ryd( 5d)     0.01988
   124    I    3  dxz    Ryd( 6d)     0.00160
   125    I    3  dxz    Ryd( 7d)     0.00020
   126    I    3  dyz    Cor( 4d)     1.99673
   127    I    3  dyz    Ryd( 5d)     0.01995
   128    I    3  dyz    Ryd( 6d)     0.00127
   129    I    3  dyz    Ryd( 7d)     0.00020
   130    I    3  dx2y2  Cor( 4d)     1.99651
   131    I    3  dx2y2  Ryd( 5d)     0.01965
   132    I    3  dx2y2  Ryd( 6d)     0.00147
   133    I    3  dx2y2  Ryd( 7d)     0.00023
   134    I    3  dz2    Cor( 4d)     1.99667
   135    I    3  dz2    Ryd( 5d)     0.01980
   136    I    3  dz2    Ryd( 6d)     0.00159
   137    I    3  dz2    Ryd( 7d)     0.00017
   138    I    3  f(0)   Ryd( 4f)     0.00269
   139    I    3  f(0)   Ryd( 5f)     0.00043
   140    I    3  f(C1)  Ryd( 4f)     0.00274
   141    I    3  f(C1)  Ryd( 5f)     0.00042
   142    I    3  f(S1)  Ryd( 4f)     0.00282
   143    I    3  f(S1)  Ryd( 5f)     0.00048
   144    I    3  f(C2)  Ryd( 4f)     0.00267
   145    I    3  f(C2)  Ryd( 5f)     0.00042
   146    I    3  f(S2)  Ryd( 4f)     0.00273
   147    I    3  f(S2)  Ryd( 5f)     0.00044
   148    I    3  f(C3)  Ryd( 4f)     0.00269
   149    I    3  f(C3)  Ryd( 5f)     0.00045
   150    I    3  f(S3)  Ryd( 4f)     0.00276
   151    I    3  f(S3)  Ryd( 5f)     0.00046

   152    H    4  S      Val( 1S)     0.54845
   153    H    4  S      Ryd( 2S)     0.00788
   154    H    4  S      Ryd( 3S)     0.00066
   155    H    4  S      Ryd( 4S)     0.00023
   156    H    4  px     Ryd( 2p)     0.00469
   157    H    4  px     Ryd( 3p)     0.00055
   158    H    4  px     Ryd( 4p)     0.00012
   159    H    4  py     Ryd( 2p)     0.00518
   160    H    4  py     Ryd( 3p)     0.00155
   161    H    4  py     Ryd( 4p)     0.00032
   162    H    4  pz     Ryd( 2p)     0.00606
   163    H    4  pz     Ryd( 3p)     0.00034
   164    H    4  pz     Ryd( 4p)     0.00023
   165    H    4  dxy    Ryd( 3d)     0.00039
   166    H    4  dxy    Ryd( 4d)     0.00011
   167    H    4  dxz    Ryd( 3d)     0.00028
   168    H    4  dxz    Ryd( 4d)     0.00006
   169    H    4  dyz    Ryd( 3d)     0.00052
   170    H    4  dyz    Ryd( 4d)     0.00012
   171    H    4  dx2y2  Ryd( 3d)     0.00029
   172    H    4  dx2y2  Ryd( 4d)     0.00012
   173    H    4  dz2    Ryd( 3d)     0.00029
   174    H    4  dz2    Ryd( 4d)     0.00008

 [ 28 electrons found in the effective core potential]

 WARNING:  5 low occupancy (<1.9990e) core orbitals found on  I    3


 Summary of Natural Population Analysis:                  
                                                          
                                       Natural Population 
                Natural  -----------------------------------------------
    Atom  No    Charge         Core      Valence    Rydberg      Total
 -----------------------------------------------------------------------
      O    1   -0.80006      1.99977     6.68720    0.11309     8.80006
     Cl    2    0.15090      9.99976     6.70345    0.14589    16.84910
      I    3   -0.77234     45.98256     7.62636    0.16342    53.77234
      H    4    0.42149      0.00000     0.54845    0.03006     0.57851
 =======================================================================
   * Total *   -1.00000     57.98209    21.56546    0.45245    80.00000

                                 Natural Population      
 --------------------------------------------------------
   Effective Core            28.00000
   Core                      29.98209 ( 99.9403% of  30)
   Valence                   21.56546 ( 98.0248% of  22)
   Natural Minimal Basis     79.54755 ( 99.4344% of  80)
   Natural Rydberg Basis      0.45245 (  0.5656% of  80)
 --------------------------------------------------------

    Atom  No          Natural Electron Configuration
 ----------------------------------------------------------------------------
      O    1      [core]2S( 1.82)2p( 4.87)3S( 0.01)3p( 0.04)3d( 0.05)
     Cl    2      [core]3S( 1.88)3p( 4.82)4S( 0.01)3d( 0.09)4p( 0.03)4f( 0.01)
      I    3      [core]5S( 1.95)5p( 5.67)4f( 0.02)5d( 0.10)6p( 0.03)6d( 0.01)
      H    4            1S( 0.55)2S( 0.01)2p( 0.02)


 NATURAL BOND ORBITAL ANALYSIS:
 Warning:  a bond orbital has occupanc of -0.00006
 Warning:  a bond orbital has occupanc of -0.00000

                       Occupancies       Lewis Structure    Low   High
           Occ.    -------------------  -----------------   occ   occ
  Cycle   Thresh.   Lewis   Non-Lewis     CR  BD  3C  LP    (L)   (NL)   Dev
 =============================================================================
   1(1)    1.90    79.30491   0.69509     15   2   0   9     1      1    0.28
 Warning:  a bond orbital has occupanc of -0.00006
 Warning:  a bond orbital has occupanc of -0.00000
   2(2)    1.90    79.17749   0.82251     15   2   0   9     1      1    0.46
 Warning:  a bond orbital has occupanc of -0.00006
 Warning:  a bond orbital has occupanc of -0.00000
   3(3)    1.90    79.30491   0.69509     15   2   0   9     1      1    0.28
 Warning:  a bond orbital has occupanc of -0.00006
 Warning:  a bond orbital has occupanc of -0.00000
   4(1)    1.80    79.30491   0.69509     15   2   0   9     1      1    0.28
 Warning:  a bond orbital has occupanc of -0.00006
 Warning:  a bond orbital has occupanc of -0.00000
   5(2)    1.80    79.17749   0.82251     15   2   0   9     1      1    0.46
 Warning:  a bond orbital has occupanc of -0.00006
 Warning:  a bond orbital has occupanc of -0.00000
   6(3)    1.80    79.30491   0.69509     15   2   0   9     1      1    0.28
 Warning:  a bond orbital has occupanc of -0.00006
 Warning:  a bond orbital has occupanc of -0.00000
   7(1)    1.70    79.30491   0.69509     15   2   0   9     0      1    0.28
 Warning:  a bond orbital has occupanc of -0.00006
 Warning:  a bond orbital has occupanc of -0.00000
   8(2)    1.70    79.30491   0.69509     15   2   0   9     0      1    0.28
 Warning:  a bond orbital has occupanc of -0.00006
 Warning:  a bond orbital has occupanc of -0.00000
   9(1)    1.60    78.98551   1.01449     15   1   0  10     0      1    0.46
 Warning:  a bond orbital has occupanc of -0.00006
 Warning:  a bond orbital has occupanc of -0.00000
  10(2)    1.60    78.98551   1.01449     15   1   0  10     0      1    0.46
 Warning:  a bond orbital has occupanc of -0.00006
 Warning:  a bond orbital has occupanc of -0.00000
  11(1)    1.50    78.98551   1.01449     15   1   0  10     0      1    0.46
 Warning:  a bond orbital has occupanc of -0.00006
 Warning:  a bond orbital has occupanc of -0.00000
  12(2)    1.50    78.98551   1.01449     15   1   0  10     0      1    0.46
 Warning:  a bond orbital has occupanc of -0.00006
 Warning:  a bond orbital has occupanc of -0.00000
  13(1)    1.90    79.30491   0.69509     15   2   0   9     1      1    0.28
 -----------------------------------------------------------------------------

 Structure accepted: RESONANCE keyword permits strongly delocalized structure

 WARNING:  5 low occupancy (<1.9990e) core orbitals found on  I    3

 --------------------------------------------------------
   Effective Core           28.00000
   Core                     29.98208 ( 99.940% of  30)
   Valence Lewis            21.32282 ( 96.922% of  22)
  ==================       ============================
   Total Lewis              79.30491 ( 99.131% of  80)
  -----------------------------------------------------
   Valence non-Lewis         0.28645 (  0.358% of  80)
   Rydberg non-Lewis         0.40864 (  0.511% of  80)
  ==================       ============================
   Total non-Lewis           0.69509 (  0.869% of  80)
 --------------------------------------------------------


       (Occupancy)   Bond orbital/ Coefficients/ Hybrids
 ---------------------------------------------------------------------------------
     1. (1.93748) BD ( 1) O   1 -Cl   2  
                ( 58.50%)   0.7649* O   1 s( 10.24%)p 8.71( 89.24%)d 0.05(  0.50%)
                                                  f 0.00(  0.02%)
                                            0.0003  0.3162 -0.0468  0.0154 -0.0005
                                            0.9425 -0.0377 -0.0102 -0.0136 -0.0416
                                           -0.0244 -0.0044  0.0012  0.0000  0.0000
                                            0.0000  0.0000 -0.0192 -0.0023  0.0011
                                            0.0000  0.0000  0.0000  0.0000  0.0000
                                            0.0000  0.0546  0.0040  0.0021 -0.0405
                                           -0.0031  0.0007  0.0000  0.0000 -0.0110
                                            0.0012 -0.0000  0.0001  0.0000  0.0000
                                            0.0000  0.0000  0.0066  0.0013 -0.0006
                                            0.0014
                ( 41.50%)   0.6442*Cl   2 s(  8.74%)p10.30( 90.01%)d 0.13(  1.13%)
                                                  f 0.01(  0.12%)
                                           -0.0000  0.0005  0.2907 -0.0525 -0.0094
                                           -0.0034 -0.0004 -0.9464  0.0640  0.0136
                                           -0.0033 -0.0000 -0.0136 -0.0026  0.0032
                                           -0.0016  0.0000  0.0000  0.0000  0.0000
                                            0.0000  0.0136 -0.0003  0.0002  0.0000
                                            0.0000  0.0000  0.0000  0.0000  0.0000
                                            0.0883 -0.0113 -0.0014 -0.0563  0.0068
                                            0.0019  0.0000  0.0000  0.0218 -0.0030
                                            0.0006 -0.0002  0.0000  0.0000  0.0000
                                            0.0000 -0.0264  0.0025 -0.0020  0.0004
     2. (1.95681) BD ( 1) O   1 - H   4  
                ( 81.47%)   0.9026* O   1 s( 23.48%)p 3.24( 76.11%)d 0.02(  0.40%)
                                                  f 0.00(  0.01%)
                                           -0.0002 -0.4844  0.0061 -0.0086 -0.0019
                                            0.1983 -0.0149 -0.0029 -0.0045  0.8494
                                            0.0056 -0.0037 -0.0057  0.0000  0.0000
                                            0.0000  0.0000  0.0062  0.0028  0.0008
                                            0.0000  0.0000  0.0000  0.0000  0.0000
                                            0.0000  0.0534  0.0062 -0.0001  0.0320
                                            0.0022 -0.0036  0.0000  0.0000 -0.0017
                                           -0.0005 -0.0093  0.0007  0.0000  0.0000
                                            0.0000  0.0000 -0.0025 -0.0015  0.0003
                                           -0.0006
                ( 18.53%)   0.4305* H   4 s( 99.78%)p 0.00(  0.21%)d 0.00(  0.01%)
                                           -0.9977 -0.0467  0.0139  0.0016 -0.0103
                                           -0.0121  0.0002  0.0129 -0.0386 -0.0150
                                            0.0000  0.0000  0.0000 -0.0011 -0.0011
                                            0.0000  0.0000  0.0000  0.0000  0.0064
                                            0.0044  0.0026  0.0056
     3. (1.99977) CR ( 1) O   1           s(100.00%)p 0.00(  0.00%)
                                            1.0000 -0.0003  0.0000 -0.0000 -0.0000
                                           -0.0002  0.0000  0.0000  0.0000  0.0001
                                            0.0000 -0.0000 -0.0000  0.0000  0.0000
                                            0.0000  0.0000  0.0000  0.0000  0.0000
                                            0.0000  0.0000  0.0000  0.0000  0.0000
                                            0.0000 -0.0000  0.0000 -0.0000  0.0000
                                            0.0000 -0.0000  0.0000  0.0000  0.0000
                                           -0.0000 -0.0000  0.0000  0.0000  0.0000
                                            0.0000  0.0000 -0.0000 -0.0000 -0.0000
                                           -0.0000
     4. (2.00000) CR ( 1)Cl   2           s(100.00%)
                                            1.0000  0.0000 -0.0000 -0.0000 -0.0000
                                           -0.0000 -0.0000 -0.0000  0.0000  0.0000
                                           -0.0000  0.0000 -0.0000 -0.0000  0.0000
                                           -0.0000  0.0000  0.0000  0.0000  0.0000
                                            0.0000  0.0000 -0.0000 -0.0000  0.0000
                                            0.0000  0.0000  0.0000  0.0000  0.0000
                                            0.0000 -0.0000 -0.0000 -0.0000  0.0000
                                            0.0000  0.0000  0.0000  0.0000 -0.0000
                                            0.0000 -0.0000  0.0000  0.0000  0.0000
                                            0.0000 -0.0000  0.0000 -0.0000  0.0000
     5. (1.99975) CR ( 2)Cl   2           s(100.00%)p 0.00(  0.00%)
                                            0.0000  1.0000 -0.0004  0.0000  0.0000
                                            0.0000  0.0000  0.0004 -0.0000 -0.0000
                                            0.0000 -0.0000  0.0001  0.0000 -0.0000
                                            0.0000  0.0000  0.0000  0.0000  0.0000
                                            0.0000 -0.0000  0.0000  0.0000  0.0000
                                            0.0000  0.0000  0.0000  0.0000  0.0000
                                           -0.0000  0.0000  0.0000  0.0000 -0.0000
                                           -0.0000  0.0000  0.0000 -0.0000  0.0000
                                           -0.0000  0.0000  0.0000  0.0000  0.0000
                                            0.0000  0.0000 -0.0000  0.0000 -0.0000
     6. (1.99995) CR ( 3)Cl   2           s(  0.00%)p 1.00(100.00%)
                                           -0.0000  0.0000  0.0000 -0.0000 -0.0000
                                           -0.0000  1.0000 -0.0004  0.0000  0.0000
                                           -0.0000  0.0000 -0.0000 -0.0000  0.0000
                                           -0.0000  0.0000  0.0000  0.0000  0.0000
                                            0.0000  0.0000 -0.0000 -0.0000  0.0000
                                            0.0000  0.0000  0.0000  0.0000  0.0000
                                            0.0000 -0.0000 -0.0000 -0.0000  0.0000
                                            0.0000  0.0000  0.0000  0.0000 -0.0000
                                            0.0000 -0.0000  0.0000  0.0000  0.0000
                                            0.0000 -0.0000  0.0000 -0.0000  0.0000
     7. (2.00003) CR ( 4)Cl   2           s(  0.00%)p 1.00(100.00%)
                                            0.0000 -0.0000 -0.0000  0.0000  0.0000
                                           -0.0000  0.0000 -0.0000  0.0000  0.0000
                                           -0.0000  1.0000  0.0002  0.0000  0.0000
                                            0.0000  0.0000  0.0000  0.0000  0.0000
                                            0.0000  0.0000  0.0000  0.0000  0.0000
                                            0.0000  0.0000  0.0000  0.0000  0.0000
                                           -0.0000 -0.0000 -0.0000 -0.0000 -0.0000
                                           -0.0000  0.0000  0.0000  0.0000  0.0000
                                           -0.0000  0.0000  0.0000  0.0000  0.0000
                                            0.0000 -0.0000  0.0000  0.0000 -0.0000
     8. (2.00003) CR ( 5)Cl   2           s(  0.00%)p 1.00(100.00%)
                                            0.0000  0.0000  0.0000  0.0000  0.0000
                                            0.0000  0.0000  0.0000  0.0000  0.0000
                                            0.0000  0.0000  0.0000  0.0000  0.0000
                                            0.0000  1.0000  0.0002  0.0000  0.0000
                                           -0.0000  0.0000  0.0000  0.0000  0.0000
                                            0.0000  0.0000  0.0000  0.0000  0.0000
                                            0.0000  0.0000  0.0000  0.0000  0.0000
                                            0.0000 -0.0000  0.0000  0.0000  0.0000
                                            0.0000  0.0000  0.0000 -0.0000  0.0000
                                           -0.0000  0.0000  0.0000  0.0000  0.0000
     9. (1.99959) CR ( 1) I   3           s(100.00%)p 0.00(  0.00%)
                                            1.0000 -0.0004 -0.0000 -0.0000  0.0000
                                            0.0000  0.0000  0.0000 -0.0000  0.0000
                                            0.0000  0.0000  0.0001 -0.0000  0.0000
                                            0.0000  0.0000  0.0000  0.0000  0.0000
                                            0.0000  0.0000  0.0000 -0.0000 -0.0000
                                            0.0000  0.0000  0.0000  0.0000  0.0000
                                            0.0000  0.0000  0.0000 -0.0000 -0.0000
                                           -0.0000  0.0000 -0.0000 -0.0000  0.0000
                                           -0.0000  0.0000  0.0000 -0.0000 -0.0000
                                           -0.0000 -0.0000  0.0000  0.0000  0.0000
                                            0.0000 -0.0000 -0.0000 -0.0000  0.0000
    10. (1.99995) CR ( 2) I   3           s(  0.00%)p 1.00(100.00%)
                                            0.0000  0.0001 -0.0000  0.0000 -0.0000
                                            0.0000  1.0000 -0.0005 -0.0000 -0.0000
                                            0.0000  0.0000  0.0001  0.0000  0.0000
                                           -0.0000  0.0000  0.0000  0.0000  0.0000
                                            0.0000  0.0000 -0.0000 -0.0000  0.0000
                                            0.0000  0.0000  0.0000  0.0000  0.0000
                                            0.0000  0.0000  0.0000  0.0000 -0.0000
                                           -0.0000  0.0000  0.0000 -0.0000  0.0000
                                           -0.0000  0.0000  0.0000  0.0000  0.0000
                                           -0.0000 -0.0000  0.0000  0.0000  0.0000
                                            0.0000  0.0000  0.0000 -0.0000 -0.0000
    11. (1.99969) CR ( 3) I   3           s(  0.00%)p 1.00(100.00%)
                                            0.0000  0.0003  0.0000  0.0000 -0.0000
                                           -0.0000  0.0000  0.0001  0.0000  0.0000
                                           -0.0000  1.0000 -0.0001  0.0000 -0.0000
                                           -0.0000  0.0000  0.0000  0.0000  0.0000
                                            0.0000 -0.0000  0.0000  0.0000 -0.0000
                                            0.0000  0.0000  0.0000  0.0000  0.0000
                                            0.0000  0.0000  0.0000  0.0000  0.0000
                                            0.0000 -0.0000  0.0000  0.0000 -0.0000
                                            0.0000  0.0000  0.0000 -0.0000 -0.0000
                                            0.0000  0.0000  0.0000  0.0000  0.0000
                                            0.0000 -0.0000 -0.0000  0.0000  0.0000
    12. (1.99997) CR ( 4) I   3           s(  0.00%)p 1.00(100.00%)
                                            0.0000  0.0000  0.0000  0.0000  0.0000
                                            0.0000  0.0000  0.0000  0.0000  0.0000
                                            0.0000  0.0000  0.0000  0.0000  0.0000
                                            0.0000  1.0000 -0.0006 -0.0000 -0.0000
                                            0.0000  0.0000  0.0000  0.0000  0.0000
                                            0.0000 -0.0000 -0.0000  0.0000  0.0000
                                           -0.0000 -0.0000  0.0000  0.0000  0.0000
                                            0.0000  0.0000  0.0000  0.0000  0.0000
                                            0.0000  0.0000  0.0000  0.0000  0.0000
                                            0.0000  0.0000  0.0000  0.0000 -0.0000
                                           -0.0000  0.0000  0.0000  0.0000  0.0000
    13. (1.99667) CR ( 5) I   3           s(  0.00%)p 0.00(  0.00%)d 1.00(100.00%)
                                            0.0000  0.0000  0.0000  0.0000  0.0000
                                           -0.0000  0.0000  0.0000  0.0000  0.0000
                                           -0.0000 -0.0000 -0.0000  0.0000 -0.0000
                                           -0.0000  0.0000  0.0000  0.0000  0.0000
                                            0.0000  1.0000  0.0000  0.0000 -0.0000
                                            0.0000  0.0000  0.0000  0.0000  0.0000
                                            0.0000  0.0000  0.0000  0.0000  0.0000
                                            0.0000 -0.0000  0.0000  0.0000 -0.0000
                                            0.0000  0.0000  0.0000 -0.0000 -0.0000
                                            0.0000  0.0000  0.0000  0.0000  0.0000
                                            0.0000 -0.0000 -0.0000  0.0000  0.0000
    14. (1.99678) CR ( 6) I   3           s(  0.00%)p 0.00(  0.00%)d 1.00(100.00%)
                                            0.0000  0.0000  0.0000  0.0000  0.0000
                                            0.0000  0.0000  0.0000  0.0000  0.0000
                                            0.0000  0.0000  0.0000  0.0000  0.0000
                                            0.0000  0.0000  0.0000  0.0000  0.0000
                                           -0.0000  0.0000  0.0000  0.0000  0.0000
                                            1.0000  0.0000  0.0000 -0.0000 -0.0000
                                            0.0000  0.0000 -0.0000  0.0000  0.0000
                                            0.0000  0.0000  0.0000  0.0000  0.0000
                                            0.0000 -0.0000 -0.0000  0.0000  0.0000
                                            0.0000  0.0000 -0.0000 -0.0000  0.0000
                                            0.0000  0.0000  0.0000  0.0000  0.0000
    15. (1.99673) CR ( 7) I   3           s(  0.00%)p 0.00(  0.00%)d 1.00(100.00%)
                                            0.0000  0.0000  0.0000  0.0000  0.0000
                                            0.0000  0.0000  0.0000  0.0000  0.0000
                                            0.0000  0.0000  0.0000  0.0000  0.0000
                                            0.0000  0.0000  0.0000  0.0000  0.0000
                                           -0.0000  0.0000  0.0000  0.0000  0.0000
                                           -0.0000  0.0000  0.0000 -0.0000  1.0000
                                            0.0000  0.0000 -0.0000  0.0000  0.0000
                                            0.0000  0.0000  0.0000  0.0000  0.0000
                                            0.0000 -0.0000 -0.0000  0.0000  0.0000
                                            0.0000  0.0000 -0.0000 -0.0000  0.0000
                                            0.0000  0.0000  0.0000  0.0000  0.0000
    16. (1.99651) CR ( 8) I   3           s(  0.00%)p 0.00(  0.00%)d 1.00(100.00%)
                                           -0.0000 -0.0001 -0.0000 -0.0000  0.0000
                                            0.0000  0.0000  0.0000  0.0000  0.0000
                                            0.0000  0.0000  0.0000 -0.0000  0.0000
                                            0.0000  0.0000  0.0000  0.0000  0.0000
                                            0.0000  0.0000  0.0000 -0.0000 -0.0000
                                            0.0000  0.0000  0.0000  0.0000  0.0000
                                            0.0000  0.0000  0.0000  1.0000 -0.0000
                                            0.0000 -0.0000 -0.0000 -0.0000  0.0000
                                           -0.0000  0.0000  0.0000 -0.0000 -0.0000
                                           -0.0000 -0.0000  0.0000  0.0000  0.0000
                                            0.0000 -0.0000 -0.0000  0.0000  0.0000
    17. (1.99667) CR ( 9) I   3           s(  0.00%)p 0.00(  0.00%)d 1.00(100.00%)
                                           -0.0000 -0.0001 -0.0000 -0.0000  0.0000
                                            0.0000  0.0000  0.0000 -0.0000  0.0000
                                            0.0000  0.0000  0.0000 -0.0000  0.0000
                                            0.0000  0.0000  0.0000  0.0000  0.0000
                                            0.0000  0.0000  0.0000 -0.0000  0.0000
                                            0.0000  0.0000  0.0000  0.0000  0.0000
                                            0.0000  0.0000  0.0000 -0.0000 -0.0000
                                           -0.0000  0.0000  1.0000 -0.0000  0.0000
                                           -0.0000  0.0000  0.0000 -0.0000 -0.0000
                                           -0.0000 -0.0000  0.0000  0.0000  0.0000
                                            0.0000 -0.0000 -0.0000 -0.0000 -0.0000
    18. (1.96615) LP ( 1) O   1           s( 66.47%)p 0.50( 33.45%)d 0.00(  0.07%)
                                                  f 0.00(  0.00%)
                                            0.0002  0.8152  0.0113 -0.0081 -0.0012
                                           -0.2496 -0.0007 -0.0044 -0.0017  0.5216
                                            0.0075  0.0053  0.0010  0.0000  0.0000
                                            0.0000  0.0000  0.0214  0.0026 -0.0025
                                            0.0000  0.0000  0.0000  0.0000  0.0000
                                            0.0000  0.0127  0.0011 -0.0026  0.0095
                                            0.0008  0.0014  0.0000  0.0000 -0.0003
                                            0.0006 -0.0021  0.0000  0.0000  0.0000
                                            0.0000  0.0000  0.0039 -0.0026  0.0040
                                           -0.0013
    19. (1.95081) LP ( 2) O   1           s(  0.00%)p 1.00( 99.82%)d 0.00(  0.16%)
                                                  f 0.00(  0.01%)
                                            0.0000  0.0000  0.0000  0.0000  0.0000
                                            0.0000  0.0000  0.0000  0.0000  0.0000
                                            0.0000  0.0000  0.0000  0.9989  0.0166
                                            0.0048  0.0100  0.0000  0.0000  0.0000
                                            0.0317  0.0048 -0.0012 -0.0224  0.0032
                                            0.0099  0.0000  0.0000  0.0000  0.0000
                                            0.0000  0.0000 -0.0099  0.0009  0.0000
                                            0.0000  0.0000  0.0000  0.0056 -0.0018
                                            0.0007  0.0009  0.0000  0.0000  0.0000
                                            0.0000
    20. (1.97275) LP ( 1)Cl   2           s( 91.23%)p 0.10(  8.74%)d 0.00(  0.02%)
                                                  f 0.00(  0.00%)
                                            0.0000  0.0002  0.9551  0.0062  0.0010
                                            0.0005  0.0001  0.2915 -0.0062 -0.0032
                                            0.0012  0.0000 -0.0491  0.0008 -0.0000
                                           -0.0005  0.0000  0.0000  0.0000  0.0000
                                            0.0000 -0.0002 -0.0005 -0.0005  0.0000
                                            0.0000  0.0000  0.0000  0.0000  0.0000
                                           -0.0126  0.0002  0.0004  0.0079  0.0006
                                            0.0002  0.0000  0.0000 -0.0023 -0.0003
                                            0.0001 -0.0000  0.0000  0.0000  0.0000
                                            0.0000  0.0037 -0.0001 -0.0005  0.0002
    21. (1.95574) LP ( 2)Cl   2           s(  0.00%)p 1.00( 99.95%)d 0.00(  0.05%)
                                                  f 0.00(  0.01%)
                                            0.0000  0.0000  0.0000  0.0000  0.0000
                                            0.0000  0.0000  0.0000  0.0000  0.0000
                                            0.0000  0.0000  0.0000  0.0000  0.0000
                                            0.0000 -0.0002  0.9996  0.0147  0.0051
                                           -0.0022  0.0000  0.0000  0.0000  0.0083
                                            0.0180  0.0082  0.0026  0.0022  0.0005
                                            0.0000  0.0000  0.0000  0.0000  0.0000
                                            0.0000 -0.0056  0.0013  0.0000  0.0000
                                            0.0000  0.0000  0.0064 -0.0010  0.0009
                                           -0.0007  0.0000  0.0000  0.0000  0.0000
    22. (1.95386) LP ( 3)Cl   2           s(  0.27%)p99.99( 99.69%)d 0.14(  0.04%)
                                                  f 0.03(  0.01%)
                                            0.0000 -0.0000  0.0511  0.0047  0.0041
                                           -0.0023  0.0000  0.0005  0.0001 -0.0002
                                           -0.0004 -0.0002  0.9984  0.0133  0.0014
                                            0.0005  0.0000  0.0000  0.0000  0.0000
                                            0.0000 -0.0004  0.0158  0.0078  0.0000
                                            0.0000  0.0000  0.0000  0.0000  0.0000
                                           -0.0064 -0.0041 -0.0027 -0.0000 -0.0021
                                           -0.0001  0.0000  0.0000  0.0000  0.0004
                                           -0.0026  0.0004  0.0000  0.0000  0.0000
                                            0.0000 -0.0012  0.0002  0.0085 -0.0014
    23. (1.97676) LP ( 1) I   3           s( 90.17%)p 0.11(  9.82%)d 0.00(  0.00%)
                                                  f 0.00(  0.00%)
                                            0.0004  0.9496  0.0003  0.0023 -0.0004
                                           -0.0003 -0.0001 -0.0792  0.0003 -0.0001
                                           -0.0002 -0.0003 -0.3033  0.0024 -0.0002
                                           -0.0003  0.0000  0.0000  0.0000  0.0000
                                            0.0000 -0.0000 -0.0010  0.0001  0.0001
                                            0.0000  0.0000  0.0000  0.0000  0.0000
                                            0.0000  0.0000  0.0000  0.0001  0.0018
                                            0.0001 -0.0002  0.0001  0.0015 -0.0001
                                            0.0001  0.0000  0.0000  0.0001  0.0001
                                            0.0004  0.0001  0.0000  0.0000  0.0000
                                            0.0000  0.0003  0.0001  0.0004 -0.0000
    24. (1.95160) LP ( 2) I   3           s(  0.00%)p 1.00( 99.99%)d 0.00(  0.01%)
                                                  f 0.00(  0.00%)
                                            0.0000  0.0000  0.0000  0.0000  0.0000
                                            0.0000  0.0000  0.0000  0.0000  0.0000
                                            0.0000  0.0000  0.0000  0.0000  0.0000
                                            0.0000  0.0006  0.9999  0.0049  0.0021
                                           -0.0003  0.0000  0.0000  0.0000  0.0000
                                           -0.0000  0.0013  0.0003 -0.0011 -0.0000
                                            0.0075  0.0000 -0.0034  0.0000  0.0000
                                            0.0000  0.0000  0.0000  0.0000  0.0000
                                            0.0000 -0.0029 -0.0013  0.0000  0.0000
                                            0.0000  0.0000 -0.0033 -0.0014  0.0016
                                            0.0008  0.0000  0.0000  0.0000  0.0000
    25. (1.95129) LP ( 3) I   3           s(  0.01%)p 1.00( 99.98%)d 0.00(  0.01%)
                                                  f 0.00(  0.00%)
                                            0.0000  0.0070  0.0002 -0.0008  0.0008
                                           -0.0002  0.0005  0.9726  0.0046  0.0019
                                           -0.0005 -0.0001 -0.2320 -0.0013 -0.0008
                                            0.0002  0.0000  0.0000  0.0000  0.0000
                                            0.0000 -0.0000  0.0077  0.0002 -0.0031
                                            0.0000  0.0000  0.0000  0.0000  0.0000
                                            0.0000  0.0000  0.0000 -0.0000  0.0023
                                            0.0010 -0.0024  0.0000  0.0003 -0.0002
                                            0.0002  0.0000  0.0000 -0.0011 -0.0005
                                            0.0002  0.0001  0.0000  0.0000  0.0000
                                            0.0000 -0.0036 -0.0014  0.0026  0.0009
    26. (1.74958) LP ( 4) I   3           s(  9.82%)p 9.17( 90.07%)d 0.01(  0.09%)
                                                  f 0.00(  0.02%)
                                            0.0000  0.3133 -0.0012 -0.0078  0.0012
                                            0.0010  0.0000  0.2180 -0.0020 -0.0007
                                            0.0002  0.0000  0.9236 -0.0103 -0.0049
                                            0.0009  0.0000  0.0000  0.0000  0.0000
                                            0.0000  0.0000  0.0113 -0.0017 -0.0008
                                            0.0000  0.0000  0.0000  0.0000  0.0000
                                            0.0000  0.0000  0.0000 -0.0000 -0.0227
                                            0.0028  0.0030 -0.0000 -0.0159  0.0026
                                            0.0006  0.0000  0.0000 -0.0019 -0.0011
                                           -0.0081 -0.0041  0.0000  0.0000  0.0000
                                            0.0000 -0.0066 -0.0029 -0.0080 -0.0032
    27. (0.02102) RY*( 1) O   1           s(  0.00%)p 1.00( 98.82%)d 0.01(  1.13%)
                                                  f 0.00(  0.05%)
                                            0.0000  0.0000  0.0000  0.0000  0.0000
                                            0.0000  0.0000  0.0000  0.0000  0.0000
[...]
                                           -0.8356 -0.1898 -0.0387  0.0730  0.1084
                                           -0.0000 -0.0000 -0.0000 -0.2261 -0.1260
                                           -0.0000 -0.0000 -0.0000 -0.0000  0.0503
                                           -0.1169  0.1670 -0.0397
   158. (0.00038) RY*( 8) H   4           s( 15.12%)p 2.65( 40.12%)d 2.96( 44.76%)
                                            0.0028 -0.0250  0.2839 -0.2644  0.1049
                                           -0.4065  0.1495 -0.0558  0.2833 -0.3453
                                            0.0000  0.0000  0.0000  0.6317 -0.1223
                                            0.0000  0.0000  0.0000  0.0000  0.1052
                                            0.0936 -0.0963  0.0674
   159. (0.00031) RY*( 9) H   4           s(  0.00%)p 1.00( 92.78%)d 0.08(  7.22%)
                                            0.0000  0.0000  0.0000  0.0000  0.0000
                                            0.0000  0.0000  0.0000  0.0000  0.0000
                                           -0.0724  0.9491  0.1478  0.0000  0.0000
                                           -0.0387  0.0842  0.1676  0.1883  0.0000
                                            0.0000  0.0000  0.0000
   160. (0.00031) RY*(10) H   4           s(  2.20%)p 9.50( 20.94%)d34.86( 76.86%)
                                            0.0132  0.0548  0.0242  0.1352 -0.0480
                                            0.0306 -0.1127  0.0141 -0.0830 -0.4317
                                            0.0000  0.0000  0.0000 -0.3089 -0.0128
                                            0.0000  0.0000  0.0000  0.0000  0.6790
                                            0.1031 -0.4001  0.2031
   161. (0.00027) RY*(11) H   4           s( 27.32%)p 0.46( 12.55%)d 2.20( 60.13%)
                                            0.0023 -0.0014 -0.2588  0.4541  0.1163
                                            0.1262  0.1927  0.0105 -0.1923  0.1478
                                           -0.0000 -0.0000 -0.0000  0.4945  0.0851
                                           -0.0000 -0.0000 -0.0000 -0.0000  0.4803
                                           -0.0438  0.3248 -0.1070
   162. (0.00028) RY*(12) H   4           s(  0.00%)p 1.00(  0.40%)d99.99( 99.60%)
                                            0.0000  0.0000  0.0000  0.0000  0.0000
                                            0.0000  0.0000  0.0000  0.0000  0.0000
                                            0.0062  0.0628  0.0027  0.0000  0.0000
                                            0.9759 -0.1889 -0.0799  0.0397  0.0000
                                            0.0000  0.0000  0.0000
   163. (0.00025) RY*(13) H   4           s(  2.94%)p 9.21( 27.02%)d23.86( 70.04%)
                                            0.0146  0.0394  0.1658 -0.0097  0.0204
                                            0.0785 -0.0758 -0.0047 -0.1136 -0.4949
                                            0.0000  0.0000  0.0000 -0.1814 -0.1450
                                            0.0000  0.0000  0.0000  0.0000 -0.0501
                                            0.2498  0.7586  0.0780
   164. (0.00015) RY*(14) H   4           s( 76.82%)p 0.19( 14.81%)d 0.11(  8.37%)
                                           -0.0042 -0.0847  0.4406  0.7529 -0.0070
                                            0.1141  0.0366  0.0369  0.3605 -0.0483
                                            0.0000  0.0000  0.0000 -0.0117 -0.0946
                                            0.0000  0.0000  0.0000  0.0000 -0.2387
                                            0.0473 -0.1220  0.0229
   165. (0.00012) RY*(15) H   4           s(  0.00%)p 1.00( 35.54%)d 1.81( 64.46%)
                                            0.0000  0.0000  0.0000  0.0000  0.0000
                                            0.0000  0.0000  0.0000  0.0000  0.0000
                                           -0.0641 -0.1750  0.5663  0.0000  0.0000
                                           -0.0158  0.1742 -0.3907  0.6792  0.0000
                                            0.0000  0.0000  0.0000
   166. (0.00009) RY*(16) H   4           s( 19.08%)p 2.20( 41.97%)d 2.04( 38.95%)
   167. (0.00009) RY*(17) H   4           s(  0.09%)p99.99( 32.07%)d99.99( 67.84%)
   168. (0.00005) RY*(18) H   4           s( 11.12%)p 0.71(  7.95%)d 7.28( 80.93%)
   169. (0.00006) RY*(19) H   4           s(  0.00%)p 1.00( 44.43%)d 1.25( 55.57%)
   170. (0.00004) RY*(20) H   4           s(  0.00%)p 1.00(  0.06%)d99.99( 99.94%)
   171. (0.00004) RY*(21) H   4           s(  2.62%)p23.71( 62.02%)d13.52( 35.37%)
   172. (0.00004) RY*(22) H   4           s(  0.69%)p 0.59(  0.41%)d99.99( 98.90%)
   173. (0.05980) BD*( 1) O   1 -Cl   2  
                ( 41.50%)   0.6442* O   1 s( 10.24%)p 8.71( 89.24%)d 0.05(  0.50%)
                                                  f 0.00(  0.02%)
                                           -0.0003 -0.3162  0.0468 -0.0154  0.0005
                                           -0.9425  0.0377  0.0102  0.0136  0.0416
                                            0.0244  0.0044 -0.0012 -0.0000 -0.0000
                                           -0.0000 -0.0000  0.0192  0.0023 -0.0011
                                           -0.0000 -0.0000 -0.0000 -0.0000 -0.0000
                                           -0.0000 -0.0546 -0.0040 -0.0021  0.0405
                                            0.0031 -0.0007 -0.0000 -0.0000  0.0110
                                           -0.0012  0.0000 -0.0001 -0.0000 -0.0000
                                           -0.0000 -0.0000 -0.0066 -0.0013  0.0006
                                           -0.0014
                ( 58.50%)  -0.7649*Cl   2 s(  8.74%)p10.30( 90.01%)d 0.13(  1.13%)
                                                  f 0.01(  0.12%)
                                            0.0000 -0.0005 -0.2907  0.0525  0.0094
                                            0.0034  0.0004  0.9464 -0.0640 -0.0136
                                            0.0033  0.0000  0.0136  0.0026 -0.0032
                                            0.0016 -0.0000 -0.0000 -0.0000 -0.0000
                                           -0.0000 -0.0136  0.0003 -0.0002 -0.0000
                                           -0.0000 -0.0000 -0.0000 -0.0000 -0.0000
                                           -0.0883  0.0113  0.0014  0.0563 -0.0068
                                           -0.0019 -0.0000 -0.0000 -0.0218  0.0030
                                           -0.0006  0.0002 -0.0000 -0.0000 -0.0000
                                           -0.0000  0.0264 -0.0025  0.0020 -0.0004
   174. (0.22665) BD*( 1) O   1 - H   4  
                ( 18.53%)   0.4305* O   1 s( 23.48%)p 3.24( 76.11%)d 0.02(  0.40%)
                                                  f 0.00(  0.01%)
                                            0.0002  0.4844 -0.0061  0.0086  0.0019
                                           -0.1983  0.0149  0.0029  0.0045 -0.8494
                                           -0.0056  0.0037  0.0057 -0.0000 -0.0000
                                           -0.0000 -0.0000 -0.0062 -0.0028 -0.0008
                                           -0.0000 -0.0000 -0.0000 -0.0000 -0.0000
                                           -0.0000 -0.0534 -0.0062  0.0001 -0.0320
                                           -0.0022  0.0036 -0.0000 -0.0000  0.0017
                                            0.0005  0.0093 -0.0007 -0.0000 -0.0000
                                           -0.0000 -0.0000  0.0025  0.0015 -0.0003
                                            0.0006
                ( 81.47%)  -0.9026* H   4 s( 99.78%)p 0.00(  0.21%)d 0.00(  0.01%)
                                            0.9977  0.0467 -0.0139 -0.0016  0.0103
                                            0.0121 -0.0002 -0.0129  0.0386  0.0150
                                           -0.0000 -0.0000 -0.0000  0.0011  0.0011
                                           -0.0000 -0.0000 -0.0000 -0.0000 -0.0064
                                           -0.0044 -0.0026 -0.0056


 NHO Directionality and "Bond Bending" (deviations from line of nuclear centers)

         [Thresholds for printing:  angular deviation  >  1.0 degree]
                                    hybrid p-character > 25.0%
                                    orbital occupancy  >  0.10e

                                Line of Centers        Hybrid 1              Hybrid 2
                                ---------------  -------------------   ------------------
                NBO               Theta   Phi    Theta   Phi    Dev    Theta   Phi    Dev
 ========================================================================================
     1. BD (   1) O   1 -Cl   2    90.0    0.0    90.0  355.5   4.5      --     --    --
     2. BD (   1) O   1 - H   4    90.0  256.8    90.0  258.2   1.5      --     --    --
    18. LP (   1) O   1             --     --     90.0  115.6   --       --     --    --
    19. LP (   2) O   1             --     --      0.0    0.0   --       --     --    --
    21. LP (   2)Cl   2             --     --      0.0    0.0   --       --     --    --
    22. LP (   3)Cl   2             --     --     90.0   90.0   --       --     --    --
    24. LP (   2) I   3             --     --      0.0    0.0   --       --     --    --
    25. LP (   3) I   3             --     --     90.0  346.6   --       --     --    --
    26. LP (   4) I   3             --     --     90.0   76.7   --       --     --    --
   174. BD*(   1) O   1 - H   4    90.0  256.8    90.0  258.2   1.5      --     --    --


 Natural Bond Orbitals (Summary):

           NBO                  Occupancy  
 -----------------------------------------------
 Molecular unit  1  (HOCl)
     1. BD (   1) O   1 -Cl   2          1.93748
     2. BD (   1) O   1 - H   4          1.95681
     3. CR (   1) O   1                  1.99977
     4. CR (   1)Cl   2                  2.00000
     5. CR (   2)Cl   2                  1.99975
     6. CR (   3)Cl   2                  1.99995
     7. CR (   4)Cl   2                  2.00003
     8. CR (   5)Cl   2                  2.00003
    18. LP (   1) O   1                  1.96615
    19. LP (   2) O   1                  1.95081
    20. LP (   1)Cl   2                  1.97275
    21. LP (   2)Cl   2                  1.95574
    22. LP (   3)Cl   2                  1.95386
    27. RY*(   1) O   1                  0.02102
    28. RY*(   2) O   1                  0.01752
    29. RY*(   3) O   1                  0.00849
    30. RY*(   4) O   1                  0.00710
    31. RY*(   5) O   1                  0.00664
    32. RY*(   6) O   1                  0.00626
    33. RY*(   7) O   1                  0.00577
    34. RY*(   8) O   1                  0.00420
    35. RY*(   9) O   1                  0.00246
    36. RY*(  10) O   1                  0.00080
    37. RY*(  11) O   1                  0.00067
    38. RY*(  12) O   1                  0.00067
    39. RY*(  13) O   1                  0.00059
    40. RY*(  14) O   1                  0.00053
    41. RY*(  15) O   1                  0.00054
    42. RY*(  16) O   1                  0.00049
    43. RY*(  17) O   1                  0.00050
    44. RY*(  18) O   1                  0.00049
    45. RY*(  19) O   1                  0.00046
    46. RY*(  20) O   1                  0.00045
    47. RY*(  21) O   1                  0.00046
    48. RY*(  22) O   1                  0.00044
    49. RY*(  23) O   1                  0.00039
    50. RY*(  24) O   1                  0.00034
    51. RY*(  25) O   1                  0.00027
    52. RY*(  26) O   1                  0.00022
    53. RY*(  27) O   1                  0.00013
    54. RY*(  28) O   1                  0.00013
    55. RY*(  29) O   1                  0.00013
    56. RY*(  30) O   1                  0.00009
    57. RY*(  31) O   1                  0.00009
    58. RY*(  32) O   1                  0.00008
    59. RY*(  33) O   1                  0.00008
    60. RY*(  34) O   1                  0.00008
    61. RY*(  35) O   1                  0.00008
    62. RY*(  36) O   1                  0.00007
    63. RY*(  37) O   1                  0.00008
    64. RY*(  38) O   1                  0.00005
    65. RY*(  39) O   1                  0.00005
    66. RY*(  40) O   1                  0.00003
    67. RY*(  41) O   1                 -0.00006
    68. RY*(   1)Cl   2                  0.02294
    69. RY*(   2)Cl   2                  0.01826
    70. RY*(   3)Cl   2                  0.01688
    71. RY*(   4)Cl   2                  0.01685
    72. RY*(   5)Cl   2                  0.01204
    73. RY*(   6)Cl   2                  0.00941
    74. RY*(   7)Cl   2                  0.00918
    75. RY*(   8)Cl   2                  0.00639
    76. RY*(   9)Cl   2                  0.00179
    77. RY*(  10)Cl   2                  0.00127
    78. RY*(  11)Cl   2                  0.00127
    79. RY*(  12)Cl   2                  0.00120
    80. RY*(  13)Cl   2                  0.00120
    81. RY*(  14)Cl   2                  0.00117
    82. RY*(  15)Cl   2                  0.00112
    83. RY*(  16)Cl   2                  0.00097
    84. RY*(  17)Cl   2                  0.00078
    85. RY*(  18)Cl   2                  0.00077
    86. RY*(  19)Cl   2                  0.00064
    87. RY*(  20)Cl   2                  0.00058
    88. RY*(  21)Cl   2                  0.00048
    89. RY*(  22)Cl   2                  0.00040
    90. RY*(  23)Cl   2                  0.00036
    91. RY*(  24)Cl   2                  0.00032
    92. RY*(  25)Cl   2                  0.00018
    93. RY*(  26)Cl   2                  0.00018
    94. RY*(  27)Cl   2                  0.00016
    95. RY*(  28)Cl   2                  0.00014
    96. RY*(  29)Cl   2                  0.00013
    97. RY*(  30)Cl   2                  0.00013
    98. RY*(  31)Cl   2                  0.00011
    99. RY*(  32)Cl   2                  0.00012
   100. RY*(  33)Cl   2                  0.00010
   101. RY*(  34)Cl   2                  0.00009
   102. RY*(  35)Cl   2                  0.00010
   103. RY*(  36)Cl   2                  0.00010
   104. RY*(  37)Cl   2                  0.00008
   105. RY*(  38)Cl   2                  0.00006
   106. RY*(  39)Cl   2                  0.00004
   107. RY*(  40)Cl   2                  0.00003
   108. RY*(  41)Cl   2                 -0.00000
   151. RY*(   1) H   4                  0.01084
   152. RY*(   2) H   4                  0.00613
   153. RY*(   3) H   4                  0.00469
   154. RY*(   4) H   4                  0.00415
   155. RY*(   5) H   4                  0.00182
   156. RY*(   6) H   4                  0.00067
   157. RY*(   7) H   4                  0.00043
   158. RY*(   8) H   4                  0.00038
   159. RY*(   9) H   4                  0.00031
   160. RY*(  10) H   4                  0.00031
   161. RY*(  11) H   4                  0.00027
   162. RY*(  12) H   4                  0.00028
   163. RY*(  13) H   4                  0.00025
   164. RY*(  14) H   4                  0.00015
   165. RY*(  15) H   4                  0.00012
   166. RY*(  16) H   4                  0.00009
   167. RY*(  17) H   4                  0.00009
   168. RY*(  18) H   4                  0.00005
   169. RY*(  19) H   4                  0.00006
   170. RY*(  20) H   4                  0.00004
   171. RY*(  21) H   4                  0.00004
   172. RY*(  22) H   4                  0.00004
   173. BD*(   1) O   1 -Cl   2          0.05980
   174. BD*(   1) O   1 - H   4          0.22665
       -------------------------------
              Total Lewis   25.69312  ( 97.9619%)
        Valence non-Lewis    0.28645  (  1.0922%)
        Rydberg non-Lewis    0.24809  (  0.9459%)
       -------------------------------
            Total unit  1   26.22766  (100.0000%)
           Charge unit  1   -0.22766

 Molecular unit  2  (I)
     9. CR (   1) I   3                  1.99959
    10. CR (   2) I   3                  1.99995
    11. CR (   3) I   3                  1.99969
    12. CR (   4) I   3                  1.99997
    13. CR (   5) I   3                  1.99667
    14. CR (   6) I   3                  1.99678
    15. CR (   7) I   3                  1.99673
    16. CR (   8) I   3                  1.99651
    17. CR (   9) I   3                  1.99667
    23. LP (   1) I   3                  1.97676
    24. LP (   2) I   3                  1.95160
    25. LP (   3) I   3                  1.95129
    26. LP (   4) I   3                  1.74958
   109. RY*(   1) I   3                  0.01992
   110. RY*(   2) I   3                  0.01990
   111. RY*(   3) I   3                  0.01982
   112. RY*(   4) I   3                  0.01972
   113. RY*(   5) I   3                  0.01853
   114. RY*(   6) I   3                  0.01022
   115. RY*(   7) I   3                  0.01016
   116. RY*(   8) I   3                  0.00826
   117. RY*(   9) I   3                  0.00278
   118. RY*(  10) I   3                  0.00275
   119. RY*(  11) I   3                  0.00275
   120. RY*(  12) I   3                  0.00275
   121. RY*(  13) I   3                  0.00275
   122. RY*(  14) I   3                  0.00264
   123. RY*(  15) I   3                  0.00265
   124. RY*(  16) I   3                  0.00201
   125. RY*(  17) I   3                  0.00162
   126. RY*(  18) I   3                  0.00162
   127. RY*(  19) I   3                  0.00125
   128. RY*(  20) I   3                  0.00120
   129. RY*(  21) I   3                  0.00102
   130. RY*(  22) I   3                  0.00070
   131. RY*(  23) I   3                  0.00070
   132. RY*(  24) I   3                  0.00053
   133. RY*(  25) I   3                  0.00050
   134. RY*(  26) I   3                  0.00044
   135. RY*(  27) I   3                  0.00042
   136. RY*(  28) I   3                  0.00042
   137. RY*(  29) I   3                  0.00041
   138. RY*(  30) I   3                  0.00039
   139. RY*(  31) I   3                  0.00036
   140. RY*(  32) I   3                  0.00028
   141. RY*(  33) I   3                  0.00019
   142. RY*(  34) I   3                  0.00018
   143. RY*(  35) I   3                  0.00014
   144. RY*(  36) I   3                  0.00013
   145. RY*(  37) I   3                  0.00010
   146. RY*(  38) I   3                  0.00011
   147. RY*(  39) I   3                  0.00008
   148. RY*(  40) I   3                  0.00009
   149. RY*(  41) I   3                  0.00006
   150. RY*(  42) I   3                  0.00001
       -------------------------------
              Total Lewis   53.61178  ( 99.7014%)
        Valence non-Lewis    0.00000  (  0.0000%)
        Rydberg non-Lewis    0.16055  (  0.2986%)
       -------------------------------
            Total unit  2   53.77234  (100.0000%)
           Charge unit  2   -0.77234
 Leave Link  607 at Tue Oct 12 15:36:18 2021, MaxMem=  1048576000 cpu:         9.6
 (Enter /usr/local/gaussian/g09/l9999.exe)
 1\1\GINC-KRYPTON\SP\RMP2-FC\Gen\Cl1H1I1O1(1-)\CGAVINH\12-Oct-2021\0\\#
 p pop=NBO SP NoSymm mp2/gen Pseudo=read density=current\\title\\-1,1\O
 \X,1,10.\Cl,1,1.68652173,2,90.\I,1,3.31229946,2,90.,3,103.24540347,0\H
 ,1,1.15,2,90.,3,103.24540347,0\\Version=ES64L-G09RevE.01\HF=-829.66884
 26\MP2=-830.3605326\RMSD=3.786e-09\Dipole=1.0024855,1.0981131,0.\Quadr
 upole=7.6919509,-17.3708483,9.6788974,-6.6784838,0.,0.\PG=CS [SG(Cl1H1
 I1O1)]\\@


 ERROR IS A HARDY PLANT... IT FLOURISHETH IN EVERY SOIL.
            MARTIN FARQUHAR TUPPER
 Job cpu time:       0 days  0 hours  2 minutes 37.7 seconds.
 File lengths (MBytes):  RWF=     13 Int=      0 D2E=      0 Chk=      3 Scr=      1
 Normal termination of Gaussian 09 at Tue Oct 12 15:36:18 2021.
