 Entering Gaussian System, Link 0=g16
 Input=clhocl_oop_35_sp.gjf
 Output=clhocl_oop_35_sp.log
 Initial command:
 /sw/contrib/gaussian/g16/B01/g16/l1.exe "/scr/Gau-23383.inp" -scrdir="/scr/"
 Entering Link 1 = /sw/contrib/gaussian/g16/B01/g16/l1.exe PID=     23384.
  
 Copyright (c) 1988-2017, Gaussian, Inc.  All Rights Reserved.
  
 This is part of the Gaussian(R) 16 program.  It is based on
 the Gaussian(R) 09 system (copyright 2009, Gaussian, Inc.),
 the Gaussian(R) 03 system (copyright 2003, Gaussian, Inc.),
 the Gaussian(R) 98 system (copyright 1998, Gaussian, Inc.),
 the Gaussian(R) 94 system (copyright 1995, Gaussian, Inc.),
 the Gaussian 92(TM) system (copyright 1992, Gaussian, Inc.),
 the Gaussian 90(TM) system (copyright 1990, Gaussian, Inc.),
 the Gaussian 88(TM) system (copyright 1988, Gaussian, Inc.),
 the Gaussian 86(TM) system (copyright 1986, Carnegie Mellon
 University), and the Gaussian 82(TM) system (copyright 1983,
 Carnegie Mellon University). Gaussian is a federally registered
 trademark of Gaussian, Inc.
  
 This software contains proprietary and confidential information,
 including trade secrets, belonging to Gaussian, Inc.
  
 This software is provided under written license and may be
 used, copied, transmitted, or stored only in accord with that
 written license.
  
 The following legend is applicable only to US Government
 contracts under FAR:
  
                    RESTRICTED RIGHTS LEGEND
  
 Use, reproduction and disclosure by the US Government is
 subject to restrictions as set forth in subparagraphs (a)
 and (c) of the Commercial Computer Software - Restricted
 Rights clause in FAR 52.227-19.
  
 Gaussian, Inc.
 340 Quinnipiac St., Bldg. 40, Wallingford CT 06492
  
  
 ---------------------------------------------------------------
 Warning -- This program may not be used in any manner that
 competes with the business of Gaussian, Inc. or will provide
 assistance to any competitor of Gaussian, Inc.  The licensee
 of this program is prohibited from giving any competitor of
 Gaussian, Inc. access to this program.  By using this program,
 the user acknowledges that Gaussian, Inc. is engaged in the
 business of creating and licensing software in the field of
 computational chemistry and represents and warrants to the
 licensee that it is not a competitor of Gaussian, Inc. and that
 it will not use this program in any manner prohibited above.
 ---------------------------------------------------------------
  

 Cite this work as:
 Gaussian 16, Revision B.01,
 M. J. Frisch, G. W. Trucks, H. B. Schlegel, G. E. Scuseria, 
 M. A. Robb, J. R. Cheeseman, G. Scalmani, V. Barone, 
 G. A. Petersson, H. Nakatsuji, X. Li, M. Caricato, A. V. Marenich, 
 J. Bloino, B. G. Janesko, R. Gomperts, B. Mennucci, H. P. Hratchian, 
 J. V. Ortiz, A. F. Izmaylov, J. L. Sonnenberg, D. Williams-Young, 
 F. Ding, F. Lipparini, F. Egidi, J. Goings, B. Peng, A. Petrone, 
 T. Henderson, D. Ranasinghe, V. G. Zakrzewski, J. Gao, N. Rega, 
 G. Zheng, W. Liang, M. Hada, M. Ehara, K. Toyota, R. Fukuda, 
 J. Hasegawa, M. Ishida, T. Nakajima, Y. Honda, O. Kitao, H. Nakai, 
 T. Vreven, K. Throssell, J. A. Montgomery, Jr., J. E. Peralta, 
 F. Ogliaro, M. J. Bearpark, J. J. Heyd, E. N. Brothers, K. N. Kudin, 
 V. N. Staroverov, T. A. Keith, R. Kobayashi, J. Normand, 
 K. Raghavachari, A. P. Rendell, J. C. Burant, S. S. Iyengar, 
 J. Tomasi, M. Cossi, J. M. Millam, M. Klene, C. Adamo, R. Cammi, 
 J. W. Ochterski, R. L. Martin, K. Morokuma, O. Farkas, 
 J. B. Foresman, and D. J. Fox, Gaussian, Inc., Wallingford CT, 2016.
 
 ******************************************
 Gaussian 16:  ES64L-G16RevB.01 20-Dec-2017
                 5-Nov-2021 
 ******************************************
 %nproc=28
 Will use up to   28 processors via shared memory.
 %mem=120GB
 %chk=/gscratch/ilahie/mccoygrp/coire_hocl/oop_s_rOH_f/clhocl/clhocl_oop_0_sp.chk
 ----------------------------------------------------
 #p pop=NBO SP NoSymm mp2/aug-cc-pvtz density=current
 ----------------------------------------------------
 1/30=1,38=1,172=1/1;
 2/12=2,15=1,17=6,18=5,40=1/2;
 3/5=16,6=1,7=10,11=9,25=1,30=1,71=1/1,2,3;
 4//1;
 5/5=2,38=5/2;
 8/6=4,10=1/1;
 9/15=1,16=-3/6;
 10/5=1,13=10,31=1/2;
 6/7=2,8=2,9=2,10=2,22=-1,40=1/1,7;
 99/5=1,9=1/99;
 Leave Link    1 at Fri Nov  5 15:25:13 2021, MaxMem= 16106127360 cpu:               1.7 elap:               0.1
 (Enter /sw/contrib/gaussian/g16/B01/g16/l101.exe)
 -----
 title
 -----
 Symbolic Z-matrix:
 Charge = -1 Multiplicity = 1
 O
 X                    1     10. 
 Cl                   1    r1       2     90. 
 Cl                   1    r2       2     90.      3    a1       0
 H                    1    r3       2    oop      3    a1       0
       Variables:
  r1                    1.697                    
  r2                    2.93101                  
  r3                    0.96862                  
  a1                  102.4843                   
  OOP                  55.                       
 
 ITRead=  0  0  0  0
 MicOpt= -1 -1 -1 -1
 NAtoms=      4 NQM=        4 NQMF=       0 NMMI=      0 NMMIF=      0
                NMic=       0 NMicF=      0.
                    Isotopes and Nuclear Properties:
 (Nuclear quadrupole moments (NQMom) in fm**2, nuclear magnetic moments (NMagM)
  in nuclear magnetons)

  Atom         1           2           3           4
 IAtWgt=          16          35          35           1
 AtmWgt=  15.9949146  34.9688527  34.9688527   1.0078250
 NucSpn=           0           3           3           1
 AtZEff=  -0.0000000  -0.0000000  -0.0000000  -0.0000000
 NQMom=    0.0000000  -8.1650000  -8.1650000   0.0000000
 NMagM=    0.0000000   0.8218740   0.8218740   2.7928460
 AtZNuc=   8.0000000  17.0000000  17.0000000   1.0000000
 Leave Link  101 at Fri Nov  5 15:25:13 2021, MaxMem= 16106127360 cpu:               2.1 elap:               0.1
 (Enter /sw/contrib/gaussian/g16/B01/g16/l202.exe)
                          Input orientation:                          
 ---------------------------------------------------------------------
 Center     Atomic      Atomic             Coordinates (Angstroms)
 Number     Number       Type             X           Y           Z
 ---------------------------------------------------------------------
      1          8           0        0.000000    0.000000    0.000000
      2         17           0        1.697002    0.000000    0.000000
      3         17           0       -0.633602   -2.861706    0.000000
      4          1           0       -0.171522   -0.774689    0.555580
 ---------------------------------------------------------------------
                    Distance matrix (angstroms):
                    1          2          3          4
     1  O    0.000000
     2  Cl   1.697002   0.000000
     3  Cl   2.931009   3.690674   0.000000
     4  H    0.968623   2.097663   2.208581   0.000000
 Symmetry turned off by external request.
 Stoichiometry    Cl2HO(1-)
 Framework group  C1[X(Cl2HO)]
 Deg. of freedom     6
 Full point group                 C1      NOp   1
 Rotational constants (GHZ):          22.3847159           2.0457831           1.8786563
 Leave Link  202 at Fri Nov  5 15:25:13 2021, MaxMem= 16106127360 cpu:               0.2 elap:               0.0
 (Enter /sw/contrib/gaussian/g16/B01/g16/l301.exe)
 Standard basis: Aug-CC-pVTZ (5D, 7F)
 Ernie: Thresh=  0.10000D-02 Tol=  0.10000D-05 Strict=F.
 Ernie:  29 primitive shells out of 169 were deleted.
   169 basis functions,   327 primitive gaussians,   198 cartesian basis functions
    22 alpha electrons       22 beta electrons
       nuclear repulsion energy       121.1328346021 Hartrees.
 IExCor=    0 DFT=F Ex=HF Corr=None ExCW=0 ScaHFX=  1.000000
 ScaDFX=  1.000000  1.000000  1.000000  1.000000 ScalE2=  1.000000  1.000000
 IRadAn=      5 IRanWt=     -1 IRanGd=            0 ICorTp=0 IEmpDi=  4
 NAtoms=    4 NActive=    4 NUniq=    4 SFac= 1.00D+00 NAtFMM=   60 NAOKFM=F Big=F
 Integral buffers will be    131072 words long.
 Raffenetti 1 integral format.
 Two-electron integral symmetry is turned off.
 Leave Link  301 at Fri Nov  5 15:25:13 2021, MaxMem= 16106127360 cpu:               1.3 elap:               0.1
 (Enter /sw/contrib/gaussian/g16/B01/g16/l302.exe)
 NPDir=0 NMtPBC=     1 NCelOv=     1 NCel=       1 NClECP=     1 NCelD=      1
         NCelK=      1 NCelE2=     1 NClLst=     1 CellRange=     0.0.
 One-electron integrals computed using PRISM.
 NBasis=   169 RedAO= T EigKep=  2.78D-04  NBF=   169
 NBsUse=   169 1.00D-06 EigRej= -1.00D+00 NBFU=   169
 Leave Link  302 at Fri Nov  5 15:25:13 2021, MaxMem= 16106127360 cpu:               4.1 elap:               0.2
 (Enter /sw/contrib/gaussian/g16/B01/g16/l303.exe)
 DipDrv:  MaxL=1.
 Leave Link  303 at Fri Nov  5 15:25:14 2021, MaxMem= 16106127360 cpu:               1.1 elap:               0.1
 (Enter /sw/contrib/gaussian/g16/B01/g16/l401.exe)
 ExpMin= 2.53D-02 ExpMax= 4.56D+05 ExpMxC= 1.44D+03 IAcc=3 IRadAn=         5 AccDes= 0.00D+00
 Harris functional with IExCor=  205 and IRadAn=       5 diagonalized for initial guess.
 HarFok:  IExCor=  205 AccDes= 0.00D+00 IRadAn=         5 IDoV= 1 UseB2=F ITyADJ=14
 ICtDFT=  3500011 ScaDFX=  1.000000  1.000000  1.000000  1.000000
 FoFCou: FMM=F IPFlag=           0 FMFlag=      100000 FMFlg1=           0
         NFxFlg=           0 DoJE=T BraDBF=F KetDBF=T FulRan=T
         wScrn=  0.000000 ICntrl=       500 IOpCl=  0 I1Cent=   200000004 NGrid=           0
         NMat0=    1 NMatS0=      1 NMatT0=    0 NMatD0=    1 NMtDS0=    0 NMtDT0=    0
 Symmetry not used in FoFCou.
 Harris En= -993.814030948362    
 JPrj=0 DoOrth=F DoCkMO=F.
 Leave Link  401 at Fri Nov  5 15:25:14 2021, MaxMem= 16106127360 cpu:               6.5 elap:               0.3
 (Enter /sw/contrib/gaussian/g16/B01/g16/l502.exe)
 Keep R1 ints in memory in canonical form, NReq=117118953.
 FoFCou: FMM=F IPFlag=           0 FMFlag=           0 FMFlg1=           0
         NFxFlg=           0 DoJE=F BraDBF=F KetDBF=F FulRan=T
         wScrn=  0.000000 ICntrl=       600 IOpCl=  0 I1Cent=           0 NGrid=           0
         NMat0=    1 NMatS0=  14365 NMatT0=    0 NMatD0=    1 NMtDS0=    0 NMtDT0=    0
 Symmetry not used in FoFCou.
 Two-electron integral symmetry not used.
 Closed shell SCF:
 Using DIIS extrapolation, IDIIS=  1040.
 NGot= 16106127360 LenX= 16002858349 LenY= 16002818704
 Requested convergence on RMS density matrix=1.00D-08 within 128 cycles.
 Requested convergence on MAX density matrix=1.00D-06.
 Requested convergence on             energy=1.00D-06.
 No special actions if energy rises.

 Cycle   1  Pass 1  IDiag  1:
 E= -994.378587650688    
 DIIS: error= 2.44D-02 at cycle   1 NSaved=   1.
 NSaved= 1 IEnMin= 1 EnMin= -994.378587650688     IErMin= 1 ErrMin= 2.44D-02
 ErrMax= 2.44D-02  0.00D+00 EMaxC= 1.00D-01 BMatC= 4.26D-01 BMatP= 4.26D-01
 IDIUse=3 WtCom= 7.56D-01 WtEn= 2.44D-01
 Coeff-Com:  0.100D+01
 Coeff-En:   0.100D+01
 Coeff:      0.100D+01
 Gap=     0.546 Goal=   None    Shift=    0.000
 GapD=    0.546 DampG=2.000 DampE=0.500 DampFc=1.0000 IDamp=-1.
 RMSDP=2.15D-03 MaxDP=7.10D-02              OVMax= 1.26D-01

 Cycle   2  Pass 1  IDiag  1:
 E= -994.476637859496     Delta-E=       -0.098050208808 Rises=F Damp=F
 DIIS: error= 1.16D-02 at cycle   2 NSaved=   2.
 NSaved= 2 IEnMin= 2 EnMin= -994.476637859496     IErMin= 2 ErrMin= 1.16D-02
 ErrMax= 1.16D-02  0.00D+00 EMaxC= 1.00D-01 BMatC= 5.13D-02 BMatP= 4.26D-01
 IDIUse=3 WtCom= 8.84D-01 WtEn= 1.16D-01
 Coeff-Com:  0.172D+00 0.828D+00
 Coeff-En:   0.000D+00 0.100D+01
 Coeff:      0.152D+00 0.848D+00
 Gap=     0.351 Goal=   None    Shift=    0.000
 RMSDP=9.98D-04 MaxDP=4.05D-02 DE=-9.81D-02 OVMax= 7.98D-02

 Cycle   3  Pass 1  IDiag  1:
 E= -994.503600780092     Delta-E=       -0.026962920596 Rises=F Damp=F
 DIIS: error= 6.38D-03 at cycle   3 NSaved=   3.
 NSaved= 3 IEnMin= 3 EnMin= -994.503600780092     IErMin= 3 ErrMin= 6.38D-03
 ErrMax= 6.38D-03  0.00D+00 EMaxC= 1.00D-01 BMatC= 1.30D-02 BMatP= 5.13D-02
 IDIUse=3 WtCom= 9.36D-01 WtEn= 6.38D-02
 Coeff-Com: -0.149D-01 0.324D+00 0.691D+00
 Coeff-En:   0.000D+00 0.883D-01 0.912D+00
 Coeff:     -0.139D-01 0.309D+00 0.705D+00
 Gap=     0.338 Goal=   None    Shift=    0.000
 RMSDP=3.45D-04 MaxDP=1.41D-02 DE=-2.70D-02 OVMax= 3.56D-02

 Cycle   4  Pass 1  IDiag  1:
 E= -994.512525536484     Delta-E=       -0.008924756392 Rises=F Damp=F
 DIIS: error= 7.10D-04 at cycle   4 NSaved=   4.
 NSaved= 4 IEnMin= 4 EnMin= -994.512525536484     IErMin= 4 ErrMin= 7.10D-04
 ErrMax= 7.10D-04  0.00D+00 EMaxC= 1.00D-01 BMatC= 1.76D-04 BMatP= 1.30D-02
 IDIUse=3 WtCom= 9.93D-01 WtEn= 7.10D-03
 Coeff-Com: -0.436D-02 0.265D-01 0.121D+00 0.856D+00
 Coeff-En:   0.000D+00 0.000D+00 0.000D+00 0.100D+01
 Coeff:     -0.433D-02 0.263D-01 0.121D+00 0.857D+00
 Gap=     0.331 Goal=   None    Shift=    0.000
 RMSDP=5.58D-05 MaxDP=1.37D-03 DE=-8.92D-03 OVMax= 3.02D-03

 Cycle   5  Pass 1  IDiag  1:
 E= -994.512709145183     Delta-E=       -0.000183608699 Rises=F Damp=F
 DIIS: error= 2.24D-04 at cycle   5 NSaved=   5.
 NSaved= 5 IEnMin= 5 EnMin= -994.512709145183     IErMin= 5 ErrMin= 2.24D-04
 ErrMax= 2.24D-04  0.00D+00 EMaxC= 1.00D-01 BMatC= 1.64D-05 BMatP= 1.76D-04
 IDIUse=3 WtCom= 9.98D-01 WtEn= 2.24D-03
 Coeff-Com:  0.972D-03-0.385D-01-0.731D-01-0.620D-02 0.112D+01
 Coeff-En:   0.000D+00 0.000D+00 0.000D+00 0.000D+00 0.100D+01
 Coeff:      0.970D-03-0.385D-01-0.730D-01-0.618D-02 0.112D+01
 Gap=     0.333 Goal=   None    Shift=    0.000
 RMSDP=3.39D-05 MaxDP=1.22D-03 DE=-1.84D-04 OVMax= 3.28D-03

 Cycle   6  Pass 1  IDiag  1:
 E= -994.512751381492     Delta-E=       -0.000042236308 Rises=F Damp=F
 DIIS: error= 7.86D-05 at cycle   6 NSaved=   6.
 NSaved= 6 IEnMin= 6 EnMin= -994.512751381492     IErMin= 6 ErrMin= 7.86D-05
 ErrMax= 7.86D-05  0.00D+00 EMaxC= 1.00D-01 BMatC= 2.13D-06 BMatP= 1.64D-05
 IDIUse=1 WtCom= 1.00D+00 WtEn= 0.00D+00
 Coeff-Com:  0.295D-03 0.784D-02 0.158D-01-0.704D-01-0.407D+00 0.145D+01
 Coeff:      0.295D-03 0.784D-02 0.158D-01-0.704D-01-0.407D+00 0.145D+01
 Gap=     0.333 Goal=   None    Shift=    0.000
 RMSDP=1.69D-05 MaxDP=6.04D-04 DE=-4.22D-05 OVMax= 1.65D-03

 Cycle   7  Pass 1  IDiag  1:
 E= -994.512758847558     Delta-E=       -0.000007466066 Rises=F Damp=F
 DIIS: error= 2.20D-05 at cycle   7 NSaved=   7.
 NSaved= 7 IEnMin= 7 EnMin= -994.512758847558     IErMin= 7 ErrMin= 2.20D-05
 ErrMax= 2.20D-05  0.00D+00 EMaxC= 1.00D-01 BMatC= 1.27D-07 BMatP= 2.13D-06
 IDIUse=1 WtCom= 1.00D+00 WtEn= 0.00D+00
 Coeff-Com: -0.192D-03-0.305D-03-0.348D-04 0.256D-01 0.736D-01-0.562D+00
 Coeff-Com:  0.146D+01
 Coeff:     -0.192D-03-0.305D-03-0.348D-04 0.256D-01 0.736D-01-0.562D+00
 Coeff:      0.146D+01
 Gap=     0.334 Goal=   None    Shift=    0.000
 RMSDP=5.09D-06 MaxDP=1.70D-04 DE=-7.47D-06 OVMax= 4.95D-04

 Cycle   8  Pass 1  IDiag  1:
 E= -994.512759417873     Delta-E=       -0.000000570315 Rises=F Damp=F
 DIIS: error= 6.14D-06 at cycle   8 NSaved=   8.
 NSaved= 8 IEnMin= 8 EnMin= -994.512759417873     IErMin= 8 ErrMin= 6.14D-06
 ErrMax= 6.14D-06  0.00D+00 EMaxC= 1.00D-01 BMatC= 9.25D-09 BMatP= 1.27D-07
 IDIUse=1 WtCom= 1.00D+00 WtEn= 0.00D+00
 Coeff-Com:  0.431D-05-0.788D-03-0.140D-02 0.333D-02 0.282D-01-0.741D-01
 Coeff-Com: -0.857D-01 0.113D+01
 Coeff:      0.431D-05-0.788D-03-0.140D-02 0.333D-02 0.282D-01-0.741D-01
 Coeff:     -0.857D-01 0.113D+01
 Gap=     0.334 Goal=   None    Shift=    0.000
 RMSDP=1.10D-06 MaxDP=2.13D-05 DE=-5.70D-07 OVMax= 1.23D-04

 Cycle   9  Pass 1  IDiag  1:
 E= -994.512759450169     Delta-E=       -0.000000032296 Rises=F Damp=F
 DIIS: error= 2.81D-06 at cycle   9 NSaved=   9.
 NSaved= 9 IEnMin= 9 EnMin= -994.512759450169     IErMin= 9 ErrMin= 2.81D-06
 ErrMax= 2.81D-06  0.00D+00 EMaxC= 1.00D-01 BMatC= 1.36D-09 BMatP= 9.25D-09
 IDIUse=1 WtCom= 1.00D+00 WtEn= 0.00D+00
 Coeff-Com:  0.191D-04 0.199D-03 0.382D-03-0.370D-02-0.162D-01 0.874D-01
 Coeff-Com: -0.165D+00-0.226D+00 0.132D+01
 Coeff:      0.191D-04 0.199D-03 0.382D-03-0.370D-02-0.162D-01 0.874D-01
 Coeff:     -0.165D+00-0.226D+00 0.132D+01
 Gap=     0.334 Goal=   None    Shift=    0.000
 RMSDP=5.53D-07 MaxDP=1.23D-05 DE=-3.23D-08 OVMax= 6.60D-05

 Cycle  10  Pass 1  IDiag  1:
 E= -994.512759456595     Delta-E=       -0.000000006426 Rises=F Damp=F
 DIIS: error= 1.39D-06 at cycle  10 NSaved=  10.
 NSaved=10 IEnMin=10 EnMin= -994.512759456595     IErMin=10 ErrMin= 1.39D-06
 ErrMax= 1.39D-06  0.00D+00 EMaxC= 1.00D-01 BMatC= 1.99D-10 BMatP= 1.36D-09
 IDIUse=1 WtCom= 1.00D+00 WtEn= 0.00D+00
 Coeff-Com: -0.246D-05 0.454D-04 0.270D-04 0.402D-03 0.615D-03-0.105D-01
 Coeff-Com:  0.490D-01-0.121D+00-0.261D+00 0.134D+01
 Coeff:     -0.246D-05 0.454D-04 0.270D-04 0.402D-03 0.615D-03-0.105D-01
 Coeff:      0.490D-01-0.121D+00-0.261D+00 0.134D+01
 Gap=     0.334 Goal=   None    Shift=    0.000
 RMSDP=2.42D-07 MaxDP=6.09D-06 DE=-6.43D-09 OVMax= 2.95D-05

 Cycle  11  Pass 1  IDiag  1:
 E= -994.512759457604     Delta-E=       -0.000000001009 Rises=F Damp=F
 DIIS: error= 4.33D-07 at cycle  11 NSaved=  11.
 NSaved=11 IEnMin=11 EnMin= -994.512759457604     IErMin=11 ErrMin= 4.33D-07
 ErrMax= 4.33D-07  0.00D+00 EMaxC= 1.00D-01 BMatC= 1.81D-11 BMatP= 1.99D-10
 IDIUse=1 WtCom= 1.00D+00 WtEn= 0.00D+00
 Coeff-Com: -0.298D-05-0.205D-04-0.308D-04 0.431D-03 0.164D-02-0.912D-02
 Coeff-Com:  0.147D-01 0.383D-01-0.112D+00-0.243D+00 0.131D+01
 Coeff:     -0.298D-05-0.205D-04-0.308D-04 0.431D-03 0.164D-02-0.912D-02
 Coeff:      0.147D-01 0.383D-01-0.112D+00-0.243D+00 0.131D+01
 Gap=     0.334 Goal=   None    Shift=    0.000
 RMSDP=8.15D-08 MaxDP=2.16D-06 DE=-1.01D-09 OVMax= 9.47D-06

 Cycle  12  Pass 1  IDiag  1:
 E= -994.512759457698     Delta-E=       -0.000000000094 Rises=F Damp=F
 DIIS: error= 8.40D-08 at cycle  12 NSaved=  12.
 NSaved=12 IEnMin=12 EnMin= -994.512759457698     IErMin=12 ErrMin= 8.40D-08
 ErrMax= 8.40D-08  0.00D+00 EMaxC= 1.00D-01 BMatC= 1.02D-12 BMatP= 1.81D-11
 IDIUse=1 WtCom= 1.00D+00 WtEn= 0.00D+00
 Coeff-Com:  0.534D-06-0.204D-05-0.985D-06-0.693D-04-0.193D-03 0.156D-02
 Coeff-Com: -0.465D-02 0.325D-02 0.304D-01-0.593D-01-0.150D+00 0.118D+01
 Coeff:      0.534D-06-0.204D-05-0.985D-06-0.693D-04-0.193D-03 0.156D-02
 Coeff:     -0.465D-02 0.325D-02 0.304D-01-0.593D-01-0.150D+00 0.118D+01
 Gap=     0.334 Goal=   None    Shift=    0.000
 RMSDP=1.55D-08 MaxDP=3.85D-07 DE=-9.39D-11 OVMax= 1.44D-06

 Cycle  13  Pass 1  IDiag  1:
 E= -994.512759457700     Delta-E=       -0.000000000002 Rises=F Damp=F
 DIIS: error= 2.09D-08 at cycle  13 NSaved=  13.
 NSaved=13 IEnMin=13 EnMin= -994.512759457700     IErMin=13 ErrMin= 2.09D-08
 ErrMax= 2.09D-08  0.00D+00 EMaxC= 1.00D-01 BMatC= 1.51D-13 BMatP= 1.02D-12
 IDIUse=1 WtCom= 1.00D+00 WtEn= 0.00D+00
 Coeff-Com:  0.225D-06 0.229D-05 0.249D-05-0.319D-04-0.130D-03 0.661D-03
 Coeff-Com: -0.674D-03-0.481D-02 0.698D-02 0.379D-01-0.135D+00-0.115D+00
 Coeff-Com:  0.121D+01
 Coeff:      0.225D-06 0.229D-05 0.249D-05-0.319D-04-0.130D-03 0.661D-03
 Coeff:     -0.674D-03-0.481D-02 0.698D-02 0.379D-01-0.135D+00-0.115D+00
 Coeff:      0.121D+01
 Gap=     0.334 Goal=   None    Shift=    0.000
 RMSDP=5.65D-09 MaxDP=1.19D-07 DE=-1.82D-12 OVMax= 4.19D-07

 SCF Done:  E(RHF) =  -994.512759458     A.U. after   13 cycles
            NFock= 13  Conv=0.57D-08     -V/T= 2.0001
 KE= 9.943885446346D+02 PE=-2.619955102900D+03 EE= 5.099209642061D+02
 Leave Link  502 at Fri Nov  5 15:25:17 2021, MaxMem= 16106127360 cpu:              32.9 elap:               3.5
 (Enter /sw/contrib/gaussian/g16/B01/g16/l801.exe)
 ExpMin= 2.53D-02 ExpMax= 4.56D+05 ExpMxC= 1.44D+03 IAcc=3 IRadAn=         5 AccDes= 0.00D+00
 HarFok:  IExCor=  205 AccDes= 0.00D+00 IRadAn=         5 IDoV=-2 UseB2=F ITyADJ=14
 ICtDFT= 12500011 ScaDFX=  1.000000  1.000000  1.000000  1.000000
 Largest valence mixing into a core orbital is  4.48D-04
 Largest core mixing into a valence orbital is  1.75D-04
 Range of M.O.s used for correlation:    12   169
 NBasis=   169 NAE=    22 NBE=    22 NFC=    11 NFV=     0
 NROrb=    158 NOA=    11 NOB=    11 NVA=   147 NVB=   147

 **** Warning!!: The largest alpha MO coefficient is  0.11212340D+02

 Leave Link  801 at Fri Nov  5 15:25:17 2021, MaxMem= 16106127360 cpu:               1.9 elap:               0.1
 (Enter /sw/contrib/gaussian/g16/B01/g16/l906.exe)
 Frozen-core derivative calculation, NFC=  11 NFV=   0.
 FulOut=F Deriv=T AODrv=F NAtomX=     4
   MMem=         144  MDisk=          11 MDiskD=          11
  W3Min=      736164 MinDsk=     1250177 NBas6D=         198
 NBas2D=       20187    NTT=       19701    LW2=     3500000
    MDV= 16105751410 MDiskM=      406660 NBas2p=       19980
 Fully in-core method, ICMem=   420417501.
 IMap=   1   2   3   4   5   6   7   8   9  10  11  12  13  14  15  16  17  18  19  20
 IMap=  21  22
 JobTyp=1 Pass  1 fully in-core, NPsUse= 28.
 Compute canonical integrals.
 FoFCou: FMM=F IPFlag=           0 FMFlag=           0 FMFlg1=           0
         NFxFlg=           0 DoJE=F BraDBF=F KetDBF=F FulRan=T
         wScrn=  0.000000 ICntrl=       600 IOpCl=  1 I1Cent=           0 NGrid=           0
         NMat0=    1 NMatS0=  20187 NMatT0=    0 NMatD0=    1 NMtDS0=    0 NMtDT0=    0
 Symmetry not used in FoFCou.
 Spin components of T(2) and E(2):
     alpha-alpha T2 =       0.2905815772D-01 E2=     -0.8345816833D-01
     alpha-beta  T2 =       0.1594146953D+00 E2=     -0.4972229752D+00
     beta-beta   T2 =       0.2905815772D-01 E2=     -0.8345816833D-01
 The integrals were generated   1 times.
 ANorm=    0.1103417877D+01
 E2 =    -0.6641393119D+00 EUMP2 =    -0.99517689876960D+03
 Leave Link  906 at Fri Nov  5 15:25:22 2021, MaxMem= 16106127360 cpu:             114.9 elap:               4.1
 (Enter /sw/contrib/gaussian/g16/B01/g16/l1002.exe)
 Minotr:  Closed shell wavefunction.
          Computing MP2/KS-MP2 derivatives.
          Using Z-Vector for PSCF gradient.
          Skipping F1 and S1 gradient terms here.
          Frozen-core window.
          Direct CPHF calculation.
          Differentiating once with respect to electric field.
                with respect to dipole field.
          Electric field/nuclear overlap derivatives assumed to be zero.
          Requested convergence is 1.0D-10 RMS, and 1.0D-09 maximum.
          NewPWx=F KeepS1=T KeepF1=T KeepIn=T MapXYZ=F SortEE=F KeepMc=T.
 Keep R1 ints in memory in canonical form, NReq=117123021.
 FoFCou: FMM=F IPFlag=           0 FMFlag=           0 FMFlg1=           0
         NFxFlg=           0 DoJE=F BraDBF=F KetDBF=F FulRan=T
         wScrn=  0.000000 ICntrl=       600 IOpCl=  0 I1Cent=           0 NGrid=           0
         NMat0=    1 NMatS0=  14365 NMatT0=    0 NMatD0=    1 NMtDS0=    0 NMtDT0=    0
 Symmetry not used in FoFCou.
 Two-electron integral symmetry not used.
          MDV=   16106127360 using IRadAn=       5.
          Solving linear equations separately, MaxMat=       0.
          There are     1 degrees of freedom in the 1st order CPHF.  IDoFFX=0 NUNeed=     1.
 LinEq1:  Iter=  0 NonCon=     1 RMS=3.06D-03 Max=4.01D-02 NDo=     1
 AX will form     1 AO Fock derivatives at one time.
 LinEq1:  Iter=  1 NonCon=     1 RMS=3.90D-04 Max=3.79D-03 NDo=     1
 LinEq1:  Iter=  2 NonCon=     1 RMS=1.66D-04 Max=2.76D-03 NDo=     1
 LinEq1:  Iter=  3 NonCon=     1 RMS=6.64D-05 Max=1.05D-03 NDo=     1
 LinEq1:  Iter=  4 NonCon=     1 RMS=2.82D-05 Max=5.36D-04 NDo=     1
 LinEq1:  Iter=  5 NonCon=     1 RMS=7.59D-06 Max=1.52D-04 NDo=     1
 LinEq1:  Iter=  6 NonCon=     1 RMS=2.50D-06 Max=4.11D-05 NDo=     1
 LinEq1:  Iter=  7 NonCon=     1 RMS=7.28D-07 Max=8.53D-06 NDo=     1
 LinEq1:  Iter=  8 NonCon=     1 RMS=1.39D-07 Max=1.48D-06 NDo=     1
 LinEq1:  Iter=  9 NonCon=     1 RMS=3.29D-08 Max=4.22D-07 NDo=     1
 LinEq1:  Iter= 10 NonCon=     1 RMS=8.80D-09 Max=1.42D-07 NDo=     1
 LinEq1:  Iter= 11 NonCon=     1 RMS=2.32D-09 Max=4.76D-08 NDo=     1
 LinEq1:  Iter= 12 NonCon=     1 RMS=6.56D-10 Max=9.60D-09 NDo=     1
 LinEq1:  Iter= 13 NonCon=     1 RMS=1.73D-10 Max=1.67D-09 NDo=     1
 LinEq1:  Iter= 14 NonCon=     0 RMS=4.53D-11 Max=5.47D-10 NDo=     1
 Linear equations converged to 1.000D-10 1.000D-09 after    14 iterations.
 End of Minotr F.D. properties file   721 does not exist.
 End of Minotr F.D. properties file   722 does not exist.
 End of Minotr F.D. properties file   788 does not exist.
 Leave Link 1002 at Fri Nov  5 15:25:25 2021, MaxMem= 16106127360 cpu:              27.0 elap:               3.5
 (Enter /sw/contrib/gaussian/g16/B01/g16/l601.exe)
 Copying SCF densities to generalized density rwf, IOpCl= 0 IROHF=0.

 **********************************************************************

            Population analysis using the MP2 Density.

 **********************************************************************

 Alpha  occ. eigenvalues -- -104.73517-104.53095 -20.47106 -10.45467 -10.25548
 Alpha  occ. eigenvalues --   -7.92182  -7.91916  -7.91902  -7.72160  -7.72150
 Alpha  occ. eigenvalues --   -7.72148  -1.24181  -0.90296  -0.76578  -0.55246
 Alpha  occ. eigenvalues --   -0.44781  -0.43823  -0.31408  -0.28765  -0.18372
 Alpha  occ. eigenvalues --   -0.17851  -0.17741
 Alpha virt. eigenvalues --    0.15610   0.18051   0.22373   0.23198   0.26286
 Alpha virt. eigenvalues --    0.27511   0.27892   0.28571   0.30142   0.31735
 Alpha virt. eigenvalues --    0.33539   0.34731   0.40915   0.41405   0.46165
 Alpha virt. eigenvalues --    0.48784   0.52475   0.53989   0.55489   0.58033
 Alpha virt. eigenvalues --    0.58719   0.60235   0.61144   0.62228   0.65531
 Alpha virt. eigenvalues --    0.66546   0.67609   0.69259   0.76242   0.79473
 Alpha virt. eigenvalues --    0.85075   0.86969   0.88362   0.89631   0.90849
 Alpha virt. eigenvalues --    0.92246   0.95786   0.98531   0.99983   1.06286
 Alpha virt. eigenvalues --    1.08285   1.09252   1.10289   1.11005   1.12783
 Alpha virt. eigenvalues --    1.15266   1.18873   1.19648   1.20514   1.21365
 Alpha virt. eigenvalues --    1.22342   1.23679   1.26676   1.28784   1.31085
 Alpha virt. eigenvalues --    1.33408   1.37885   1.39358   1.42198   1.43425
 Alpha virt. eigenvalues --    1.44617   1.48952   1.49694   1.54003   1.58889
 Alpha virt. eigenvalues --    1.61014   1.64995   1.68249   1.71356   1.72937
 Alpha virt. eigenvalues --    1.76008   1.83769   1.85998   1.87055   1.96765
 Alpha virt. eigenvalues --    1.97120   2.14645   2.38848   2.42040   2.50427
 Alpha virt. eigenvalues --    2.51171   2.53174   2.59499   2.62664   2.64428
 Alpha virt. eigenvalues --    2.68356   2.69490   2.70445   2.72244   2.74880
 Alpha virt. eigenvalues --    2.77488   2.79740   2.81873   2.82541   2.88717
 Alpha virt. eigenvalues --    2.90334   2.92907   2.95114   2.99374   3.01293
 Alpha virt. eigenvalues --    3.05326   3.10741   3.16483   3.19304   3.21714
 Alpha virt. eigenvalues --    3.23594   3.28233   3.29177   3.33254   3.35145
 Alpha virt. eigenvalues --    3.35487   3.39610   3.42385   3.47488   3.50818
 Alpha virt. eigenvalues --    3.51260   3.55444   3.58705   3.62521   3.92756
 Alpha virt. eigenvalues --    4.13709   4.37613   4.50369   4.58377   4.62657
 Alpha virt. eigenvalues --    4.74180   4.97018   5.04350   5.42569   5.49746
 Alpha virt. eigenvalues --    5.71504   6.17335   6.40883   6.64249   6.88142
 Alpha virt. eigenvalues --    6.90431   6.91431   6.98912   7.33994   7.38772
 Alpha virt. eigenvalues --    7.40987   7.45945   7.51768   7.72816   7.78154
 Alpha virt. eigenvalues --    8.41470  14.86353
          Condensed to atoms (all electrons):
               1          2          3          4
     1  O    8.503205  -0.105178  -0.076371   0.066576
     2  Cl  -0.105178  17.038180  -0.000523   0.002564
     3  Cl  -0.076371  -0.000523  17.911852   0.073203
     4  H    0.066576   0.002564   0.073203   0.626223
 Mulliken charges:
               1
     1  O   -0.388231
     2  Cl   0.064957
     3  Cl  -0.908160
     4  H    0.231435
 Sum of Mulliken charges =  -1.00000
 Mulliken charges with hydrogens summed into heavy atoms:
               1
     1  O   -0.156797
     2  Cl   0.064957
     3  Cl  -0.908160
 Electronic spatial extent (au):  <R**2>=            808.4535
 Charge=             -1.0000 electrons
 Dipole moment (field-independent basis, Debye):
    X=              1.8101    Y=             10.8503    Z=              0.5142  Tot=             11.0122
 Quadrupole moment (field-independent basis, Debye-Ang):
   XX=            -38.7028   YY=            -71.3906   ZZ=            -36.1696
   XY=             -8.1166   XZ=             -0.2625   YZ=             -0.2837
 Traceless Quadrupole moment (field-independent basis, Debye-Ang):
   XX=             10.0516   YY=            -22.6363   ZZ=             12.5847
   XY=             -8.1166   XZ=             -0.2625   YZ=             -0.2837
 Octapole moment (field-independent basis, Debye-Ang**2):
  XXX=            -31.1568  YYY=            246.2709  ZZZ=             -1.5369  XYY=             10.3874
  XXY=             53.0578  XXZ=             -1.0435  XZZ=            -12.3241  YZZ=             48.2010
  YYZ=             -2.1965  XYZ=             -0.3778
 Hexadecapole moment (field-independent basis, Debye-Ang**3):
 XXXX=           -301.3711 YYYY=          -1167.9002 ZZZZ=            -51.7313 XXXY=            -97.4986
 XXXZ=             -0.5113 YYYX=           -156.8663 YYYZ=              8.0715 ZZZX=              0.1327
 ZZZY=              1.9308 XXYY=           -216.4266 XXZZ=            -63.7500 YYZZ=           -155.8223
 XXYZ=              0.8526 YYXZ=              1.3758 ZZXY=            -31.1086
 N-N= 1.211328346021D+02 E-N=-2.620009864859D+03  KE= 9.950483265677D+02
 No NMR shielding tensors so no spin-rotation constants.
 Leave Link  601 at Fri Nov  5 15:25:25 2021, MaxMem= 16106127360 cpu:               4.8 elap:               0.2
 (Enter /sw/contrib/gaussian/g16/B01/g16/l607.exe)
 ******************************Gaussian NBO Version 3.1******************************
             N A T U R A L   A T O M I C   O R B I T A L   A N D
          N A T U R A L   B O N D   O R B I T A L   A N A L Y S I S
 ******************************Gaussian NBO Version 3.1******************************
       /RESON  / : Allow strongly delocalized NBO set

 Analyzing the MP2 density

 Job title: title                                                           

 Storage needed:     86521 in NPA,    114817 in NBO (********** available)
 GSVD:  LWork=        1191 too small for GESVD, short by       52514 words or       52514 for optimal perf.


 NATURAL POPULATIONS:  Natural atomic orbital occupancies 
                                                          
   NAO  Atom  No  lang   Type(AO)    Occupancy
 --------------------------------------------
     1    O    1  S      Cor( 1S)     1.99969
     2    O    1  S      Val( 2S)     1.78933
     3    O    1  S      Ryd( 3S)     0.00900
     4    O    1  S      Ryd( 4S)     0.00106
     5    O    1  S      Ryd( 5S)     0.00016
     6    O    1  px     Val( 2p)     1.20639
     7    O    1  px     Ryd( 3p)     0.00641
     8    O    1  px     Ryd( 4p)     0.00060
     9    O    1  px     Ryd( 5p)     0.00031
    10    O    1  py     Val( 2p)     1.76675
    11    O    1  py     Ryd( 3p)     0.01450
    12    O    1  py     Ryd( 4p)     0.00071
    13    O    1  py     Ryd( 5p)     0.00037
    14    O    1  pz     Val( 2p)     1.83991
    15    O    1  pz     Ryd( 3p)     0.01689
    16    O    1  pz     Ryd( 4p)     0.00070
    17    O    1  pz     Ryd( 5p)     0.00024
    18    O    1  dxy    Ryd( 3d)     0.00873
    19    O    1  dxy    Ryd( 4d)     0.00050
    20    O    1  dxy    Ryd( 5d)     0.00013
    21    O    1  dxz    Ryd( 3d)     0.00895
    22    O    1  dxz    Ryd( 4d)     0.00054
    23    O    1  dxz    Ryd( 5d)     0.00009
    24    O    1  dyz    Ryd( 3d)     0.01170
    25    O    1  dyz    Ryd( 4d)     0.00055
    26    O    1  dyz    Ryd( 5d)     0.00017
    27    O    1  dx2y2  Ryd( 3d)     0.01090
    28    O    1  dx2y2  Ryd( 4d)     0.00043
    29    O    1  dx2y2  Ryd( 5d)     0.00024
    30    O    1  dz2    Ryd( 3d)     0.00897
    31    O    1  dz2    Ryd( 4d)     0.00056
    32    O    1  dz2    Ryd( 5d)     0.00020
    33    O    1  f(0)   Ryd( 4f)     0.00060
    34    O    1  f(0)   Ryd( 5f)     0.00011
    35    O    1  f(C1)  Ryd( 4f)     0.00060
    36    O    1  f(C1)  Ryd( 5f)     0.00011
    37    O    1  f(S1)  Ryd( 4f)     0.00061
    38    O    1  f(S1)  Ryd( 5f)     0.00012
    39    O    1  f(C2)  Ryd( 4f)     0.00062
    40    O    1  f(C2)  Ryd( 5f)     0.00013
    41    O    1  f(S2)  Ryd( 4f)     0.00059
    42    O    1  f(S2)  Ryd( 5f)     0.00013
    43    O    1  f(C3)  Ryd( 4f)     0.00059
    44    O    1  f(C3)  Ryd( 5f)     0.00012
    45    O    1  f(S3)  Ryd( 4f)     0.00061
    46    O    1  f(S3)  Ryd( 5f)     0.00013

    47   Cl    2  S      Cor( 1S)     2.00000
    48   Cl    2  S      Cor( 2S)     1.99982
    49   Cl    2  S      Val( 3S)     1.88680
    50   Cl    2  S      Ryd( 4S)     0.00823
    51   Cl    2  S      Ryd( 5S)     0.00055
    52   Cl    2  S      Ryd( 6S)     0.00016
    53   Cl    2  px     Cor( 2p)     1.99997
    54   Cl    2  px     Val( 3p)     0.90525
    55   Cl    2  px     Ryd( 4p)     0.00658
    56   Cl    2  px     Ryd( 5p)     0.00052
    57   Cl    2  px     Ryd( 6p)     0.00020
    58   Cl    2  py     Cor( 2p)     2.00003
    59   Cl    2  py     Val( 3p)     1.95377
    60   Cl    2  py     Ryd( 4p)     0.00993
    61   Cl    2  py     Ryd( 5p)     0.00056
    62   Cl    2  py     Ryd( 6p)     0.00008
    63   Cl    2  pz     Cor( 2p)     2.00003
    64   Cl    2  pz     Val( 3p)     1.95437
    65   Cl    2  pz     Ryd( 4p)     0.01026
    66   Cl    2  pz     Ryd( 5p)     0.00061
    67   Cl    2  pz     Ryd( 6p)     0.00003
    68   Cl    2  dxy    Ryd( 3d)     0.01798
    69   Cl    2  dxy    Ryd( 4d)     0.00091
    70   Cl    2  dxy    Ryd( 5d)     0.00034
    71   Cl    2  dxz    Ryd( 3d)     0.01952
    72   Cl    2  dxz    Ryd( 4d)     0.00097
    73   Cl    2  dxz    Ryd( 5d)     0.00035
    74   Cl    2  dyz    Ryd( 3d)     0.01684
    75   Cl    2  dyz    Ryd( 4d)     0.00071
    76   Cl    2  dyz    Ryd( 5d)     0.00018
    77   Cl    2  dx2y2  Ryd( 3d)     0.01857
    78   Cl    2  dx2y2  Ryd( 4d)     0.00050
    79   Cl    2  dx2y2  Ryd( 5d)     0.00016
    80   Cl    2  dz2    Ryd( 3d)     0.01733
    81   Cl    2  dz2    Ryd( 4d)     0.00063
    82   Cl    2  dz2    Ryd( 5d)     0.00017
    83   Cl    2  f(0)   Ryd( 4f)     0.00128
    84   Cl    2  f(0)   Ryd( 5f)     0.00013
    85   Cl    2  f(C1)  Ryd( 4f)     0.00142
    86   Cl    2  f(C1)  Ryd( 5f)     0.00014
    87   Cl    2  f(S1)  Ryd( 4f)     0.00126
    88   Cl    2  f(S1)  Ryd( 5f)     0.00013
    89   Cl    2  f(C2)  Ryd( 4f)     0.00131
    90   Cl    2  f(C2)  Ryd( 5f)     0.00014
    91   Cl    2  f(S2)  Ryd( 4f)     0.00119
    92   Cl    2  f(S2)  Ryd( 5f)     0.00013
    93   Cl    2  f(C3)  Ryd( 4f)     0.00157
    94   Cl    2  f(C3)  Ryd( 5f)     0.00014
    95   Cl    2  f(S3)  Ryd( 4f)     0.00131
    96   Cl    2  f(S3)  Ryd( 5f)     0.00014

    97   Cl    3  S      Cor( 1S)     2.00001
    98   Cl    3  S      Cor( 2S)     2.00000
    99   Cl    3  S      Val( 3S)     1.97745
   100   Cl    3  S      Ryd( 4S)     0.00279
   101   Cl    3  S      Ryd( 5S)     0.00029
   102   Cl    3  S      Ryd( 6S)     0.00012
   103   Cl    3  px     Cor( 2p)     2.00003
   104   Cl    3  px     Val( 3p)     1.95038
   105   Cl    3  px     Ryd( 4p)     0.01326
   106   Cl    3  px     Ryd( 5p)     0.00057
   107   Cl    3  px     Ryd( 6p)     0.00006
   108   Cl    3  py     Cor( 2p)     2.00002
   109   Cl    3  py     Val( 3p)     1.91799
   110   Cl    3  py     Ryd( 4p)     0.01179
   111   Cl    3  py     Ryd( 5p)     0.00056
   112   Cl    3  py     Ryd( 6p)     0.00006
   113   Cl    3  pz     Cor( 2p)     2.00002
   114   Cl    3  pz     Val( 3p)     1.94595
   115   Cl    3  pz     Ryd( 4p)     0.01322
   116   Cl    3  pz     Ryd( 5p)     0.00058
   117   Cl    3  pz     Ryd( 6p)     0.00004
   118   Cl    3  dxy    Ryd( 3d)     0.01858
   119   Cl    3  dxy    Ryd( 4d)     0.00085
   120   Cl    3  dxy    Ryd( 5d)     0.00012
   121   Cl    3  dxz    Ryd( 3d)     0.01839
   122   Cl    3  dxz    Ryd( 4d)     0.00098
   123   Cl    3  dxz    Ryd( 5d)     0.00011
   124   Cl    3  dyz    Ryd( 3d)     0.01871
   125   Cl    3  dyz    Ryd( 4d)     0.00088
   126   Cl    3  dyz    Ryd( 5d)     0.00013
   127   Cl    3  dx2y2  Ryd( 3d)     0.01839
   128   Cl    3  dx2y2  Ryd( 4d)     0.00091
   129   Cl    3  dx2y2  Ryd( 5d)     0.00014
   130   Cl    3  dz2    Ryd( 3d)     0.01836
   131   Cl    3  dz2    Ryd( 4d)     0.00095
   132   Cl    3  dz2    Ryd( 5d)     0.00011
   133   Cl    3  f(0)   Ryd( 4f)     0.00129
   134   Cl    3  f(0)   Ryd( 5f)     0.00015
   135   Cl    3  f(C1)  Ryd( 4f)     0.00129
   136   Cl    3  f(C1)  Ryd( 5f)     0.00015
   137   Cl    3  f(S1)  Ryd( 4f)     0.00129
   138   Cl    3  f(S1)  Ryd( 5f)     0.00016
   139   Cl    3  f(C2)  Ryd( 4f)     0.00129
   140   Cl    3  f(C2)  Ryd( 5f)     0.00016
   141   Cl    3  f(S2)  Ryd( 4f)     0.00130
   142   Cl    3  f(S2)  Ryd( 5f)     0.00015
   143   Cl    3  f(C3)  Ryd( 4f)     0.00129
   144   Cl    3  f(C3)  Ryd( 5f)     0.00016
   145   Cl    3  f(S3)  Ryd( 4f)     0.00129
   146   Cl    3  f(S3)  Ryd( 5f)     0.00017

   147    H    4  S      Val( 1S)     0.48005
   148    H    4  S      Ryd( 2S)     0.00620
   149    H    4  S      Ryd( 3S)     0.00026
   150    H    4  S      Ryd( 4S)     0.00013
   151    H    4  px     Ryd( 2p)     0.00295
   152    H    4  px     Ryd( 3p)     0.00045
   153    H    4  px     Ryd( 4p)     0.00010
   154    H    4  py     Ryd( 2p)     0.00590
   155    H    4  py     Ryd( 3p)     0.00069
   156    H    4  py     Ryd( 4p)     0.00031
   157    H    4  pz     Ryd( 2p)     0.00365
   158    H    4  pz     Ryd( 3p)     0.00052
   159    H    4  pz     Ryd( 4p)     0.00019
   160    H    4  dxy    Ryd( 3d)     0.00024
   161    H    4  dxy    Ryd( 4d)     0.00010
   162    H    4  dxz    Ryd( 3d)     0.00018
   163    H    4  dxz    Ryd( 4d)     0.00007
   164    H    4  dyz    Ryd( 3d)     0.00031
   165    H    4  dyz    Ryd( 4d)     0.00009
   166    H    4  dx2y2  Ryd( 3d)     0.00026
   167    H    4  dx2y2  Ryd( 4d)     0.00011
   168    H    4  dz2    Ryd( 3d)     0.00024
   169    H    4  dz2    Ryd( 4d)     0.00010


 Summary of Natural Population Analysis:                  
                                                          
                                       Natural Population 
                Natural  -----------------------------------------------
    Atom  No    Charge         Core      Valence    Rydberg      Total
 -----------------------------------------------------------------------
      O    1   -0.71076      1.99969     6.60237    0.10870     8.71076
     Cl    2    0.15681      9.99984     6.70019    0.14316    16.84319
     Cl    3   -0.94295     10.00008     7.79177    0.15110    17.94295
      H    4    0.49691      0.00000     0.48005    0.02305     0.50309
 =======================================================================
   * Total *   -1.00000     21.99961    21.57438    0.42601    44.00000

                                 Natural Population      
 --------------------------------------------------------
   Core                      21.99961 ( 99.9982% of  22)
   Valence                   21.57438 ( 98.0654% of  22)
   Natural Minimal Basis     43.57399 ( 99.0318% of  44)
   Natural Rydberg Basis      0.42601 (  0.9682% of  44)
 --------------------------------------------------------

    Atom  No          Natural Electron Configuration
 ----------------------------------------------------------------------------
      O    1      [core]2S( 1.79)2p( 4.81)3S( 0.01)3p( 0.04)3d( 0.05)
     Cl    2      [core]3S( 1.89)3p( 4.81)4S( 0.01)3d( 0.09)4p( 0.03)4f( 0.01)
     Cl    3      [core]3S( 1.98)3p( 5.81)3d( 0.09)4p( 0.04)4f( 0.01)
      H    4            1S( 0.48)2S( 0.01)2p( 0.01)


 NATURAL BOND ORBITAL ANALYSIS:

                       Occupancies       Lewis Structure    Low   High
           Occ.    -------------------  -----------------   occ   occ
  Cycle   Thresh.   Lewis   Non-Lewis     CR  BD  3C  LP    (L)   (NL)   Dev
 =============================================================================
   1(1)    1.90    43.50489   0.49511     11   2   0   9     0      0    0.06
 -----------------------------------------------------------------------------

 Structure accepted: No low occupancy Lewis orbitals

 --------------------------------------------------------
   Core                     21.99962 ( 99.998% of  22)
   Valence Lewis            21.50527 ( 97.751% of  22)
  ==================       ============================
   Total Lewis              43.50489 ( 98.875% of  44)
  -----------------------------------------------------
   Valence non-Lewis         0.11660 (  0.265% of  44)
   Rydberg non-Lewis         0.37851 (  0.860% of  44)
  ==================       ============================
   Total non-Lewis           0.49511 (  1.125% of  44)
 --------------------------------------------------------


       (Occupancy)   Bond orbital/ Coefficients/ Hybrids
 ---------------------------------------------------------------------------------
     1. (1.93895) BD ( 1) O   1 -Cl   2  
                ( 58.82%)   0.7669* O   1 s(  9.72%)p 9.24( 89.73%)d 0.05(  0.53%)
                                                  f 0.00(  0.02%)
                                            0.0003  0.3088 -0.0406 -0.0130 -0.0014
                                            0.9461 -0.0231 -0.0093 -0.0096  0.0017
                                           -0.0235 -0.0044 -0.0000  0.0233  0.0176
                                            0.0032 -0.0004 -0.0166 -0.0006  0.0024
                                            0.0178  0.0025 -0.0002 -0.0123 -0.0014
                                            0.0012  0.0565  0.0051  0.0015 -0.0365
                                           -0.0033 -0.0004 -0.0001  0.0002 -0.0081
                                            0.0003 -0.0001 -0.0004  0.0006 -0.0012
                                           -0.0063  0.0017  0.0081 -0.0001 -0.0005
                                            0.0016
                ( 41.18%)   0.6417*Cl   2 s(  8.22%)p11.01( 90.55%)d 0.14(  1.12%)
                                                  f 0.01(  0.11%)
                                           -0.0000  0.0005  0.2805 -0.0586 -0.0104
                                           -0.0023 -0.0004 -0.9492  0.0656  0.0138
                                           -0.0041 -0.0000 -0.0054 -0.0016  0.0014
                                           -0.0004  0.0000  0.0042 -0.0001 -0.0020
                                            0.0010  0.0068 -0.0006  0.0004 -0.0115
                                           -0.0015 -0.0007 -0.0048 -0.0001  0.0011
                                            0.0898 -0.0109 -0.0005 -0.0531  0.0058
                                            0.0001 -0.0008  0.0001  0.0199 -0.0027
                                            0.0001 -0.0001  0.0007  0.0000  0.0017
                                           -0.0014 -0.0259  0.0035 -0.0008  0.0004
     2. (1.96541) BD ( 1) O   1 - H   4  
                ( 77.85%)   0.8823* O   1 s( 26.38%)p 2.77( 73.08%)d 0.02(  0.52%)
                                                  f 0.00(  0.01%)
                                           -0.0003 -0.5135  0.0058  0.0073 -0.0021
                                            0.1770 -0.0180 -0.0028 -0.0020  0.6597
                                           -0.0110 -0.0064 -0.0017 -0.5135  0.0056
                                            0.0051  0.0039  0.0052  0.0029  0.0002
                                           -0.0033 -0.0023 -0.0005  0.0617  0.0038
                                           -0.0005  0.0363  0.0032  0.0021 -0.0049
                                           -0.0018 -0.0021  0.0078 -0.0004 -0.0004
                                            0.0005  0.0029  0.0006  0.0042  0.0018
                                           -0.0017 -0.0018 -0.0001 -0.0017  0.0025
                                           -0.0020
                ( 22.15%)   0.4707* H   4 s( 99.81%)p 0.00(  0.19%)d 0.00(  0.00%)
                                           -0.9988 -0.0240 -0.0009 -0.0002 -0.0116
                                           -0.0070  0.0026  0.0035 -0.0251 -0.0067
                                           -0.0250  0.0183  0.0037  0.0008  0.0020
                                           -0.0013 -0.0015  0.0011 -0.0002  0.0004
                                           -0.0010  0.0013  0.0016
     3. (1.99969) CR ( 1) O   1           s(100.00%)p 0.00(  0.00%)
                                            1.0000 -0.0004  0.0000  0.0000  0.0000
                                           -0.0002  0.0000  0.0000  0.0000  0.0001
                                            0.0000 -0.0000 -0.0000 -0.0000 -0.0000
                                            0.0000  0.0000  0.0000  0.0000  0.0000
                                           -0.0000 -0.0000 -0.0000  0.0000  0.0000
                                           -0.0000 -0.0000 -0.0000  0.0000  0.0000
                                            0.0000 -0.0000  0.0000 -0.0000  0.0000
                                           -0.0000  0.0000  0.0000  0.0000  0.0000
                                            0.0000 -0.0000 -0.0000 -0.0000  0.0000
                                           -0.0000
     4. (2.00000) CR ( 1)Cl   2           s(100.00%)
                                            1.0000  0.0000  0.0000 -0.0000 -0.0000
                                           -0.0000 -0.0000 -0.0000  0.0000  0.0000
                                           -0.0000 -0.0000 -0.0000 -0.0000  0.0000
                                           -0.0000  0.0000  0.0000  0.0000 -0.0000
                                            0.0000  0.0000 -0.0000  0.0000 -0.0000
                                           -0.0000 -0.0000 -0.0000  0.0000  0.0000
                                            0.0000 -0.0000 -0.0000 -0.0000  0.0000
                                            0.0000 -0.0000  0.0000  0.0000 -0.0000
                                            0.0000 -0.0000  0.0000  0.0000  0.0000
                                           -0.0000 -0.0000  0.0000 -0.0000  0.0000
     5. (1.99982) CR ( 2)Cl   2           s(100.00%)p 0.00(  0.00%)
                                            0.0000  1.0000 -0.0004  0.0000  0.0000
                                            0.0000  0.0000  0.0004 -0.0000 -0.0000
                                            0.0000  0.0000  0.0000  0.0000 -0.0000
                                            0.0000 -0.0000 -0.0000 -0.0000  0.0000
                                           -0.0000 -0.0000  0.0000 -0.0000  0.0000
                                            0.0000  0.0000  0.0000  0.0000 -0.0000
                                           -0.0000  0.0000  0.0000  0.0000 -0.0000
                                           -0.0000  0.0000 -0.0000 -0.0000  0.0000
                                           -0.0000  0.0000 -0.0000 -0.0000 -0.0000
                                            0.0000  0.0000 -0.0000  0.0000 -0.0000
     6. (1.99997) CR ( 3)Cl   2           s(  0.00%)p 1.00(100.00%)
                                           -0.0000  0.0000  0.0001 -0.0000 -0.0000
                                           -0.0000  1.0000 -0.0004  0.0000  0.0000
                                           -0.0000  0.0000 -0.0000 -0.0000  0.0000
                                           -0.0000  0.0000  0.0000  0.0000 -0.0000
                                            0.0000  0.0000 -0.0000  0.0000 -0.0000
                                           -0.0000 -0.0000 -0.0000 -0.0000  0.0000
                                            0.0000 -0.0000 -0.0000 -0.0000  0.0000
                                            0.0000 -0.0000  0.0000  0.0000 -0.0000
                                            0.0000 -0.0000  0.0000  0.0000  0.0000
                                           -0.0000 -0.0000  0.0000 -0.0000  0.0000
     7. (2.00003) CR ( 4)Cl   2           s(  0.00%)p 1.00(100.00%)
                                           -0.0000  0.0000  0.0000  0.0000  0.0000
                                           -0.0000  0.0000 -0.0000  0.0000  0.0000
                                           -0.0000  1.0000  0.0002  0.0000  0.0000
                                           -0.0000  0.0000 -0.0000 -0.0000  0.0000
                                           -0.0000  0.0000  0.0000  0.0000  0.0000
                                            0.0000  0.0000  0.0000  0.0000 -0.0000
                                           -0.0000 -0.0000 -0.0000 -0.0000 -0.0000
                                           -0.0000  0.0000 -0.0000  0.0000  0.0000
                                           -0.0000 -0.0000  0.0000 -0.0000 -0.0000
                                            0.0000 -0.0000  0.0000  0.0000 -0.0000
     8. (2.00003) CR ( 5)Cl   2           s(  0.00%)p 1.00(100.00%)
                                            0.0000 -0.0000 -0.0000  0.0000  0.0000
                                           -0.0000  0.0000  0.0000 -0.0000  0.0000
                                           -0.0000  0.0000 -0.0000 -0.0000  0.0000
                                           -0.0000  1.0000  0.0002  0.0000  0.0000
                                           -0.0000  0.0000  0.0000  0.0000  0.0000
                                            0.0000  0.0000  0.0000  0.0000  0.0000
                                           -0.0000  0.0000  0.0000  0.0000  0.0000
                                            0.0000 -0.0000  0.0000 -0.0000  0.0000
                                           -0.0000  0.0000  0.0000 -0.0000  0.0000
                                           -0.0000  0.0000  0.0000 -0.0000 -0.0000
     9. (2.00001) CR ( 1)Cl   3           s(100.00%)
                                            1.0000 -0.0000  0.0000  0.0000 -0.0000
                                            0.0000  0.0000  0.0000 -0.0000 -0.0000
                                            0.0000  0.0000  0.0000 -0.0000 -0.0000
                                            0.0000  0.0000  0.0000  0.0000 -0.0000
                                            0.0000  0.0000  0.0000  0.0000  0.0000
                                            0.0000  0.0000  0.0000  0.0000  0.0000
                                           -0.0000 -0.0000  0.0000 -0.0000 -0.0000
                                           -0.0000 -0.0000 -0.0000 -0.0000 -0.0000
                                           -0.0000 -0.0000 -0.0000 -0.0000  0.0000
                                            0.0000 -0.0000 -0.0000 -0.0000 -0.0000
    10. (2.00000) CR ( 2)Cl   3           s(100.00%)
                                           -0.0000  1.0000  0.0000  0.0000 -0.0000
                                            0.0000  0.0000  0.0000 -0.0000 -0.0000
                                            0.0000  0.0000  0.0000 -0.0000 -0.0000
                                            0.0000  0.0000  0.0000  0.0000 -0.0000
                                            0.0000  0.0000  0.0000  0.0000  0.0000
                                            0.0000  0.0000  0.0000  0.0000  0.0000
                                           -0.0000 -0.0000  0.0000 -0.0000 -0.0000
                                           -0.0000 -0.0000 -0.0000 -0.0000 -0.0000
                                           -0.0000 -0.0000 -0.0000 -0.0000  0.0000
                                            0.0000 -0.0000 -0.0000 -0.0000 -0.0000
    11. (2.00003) CR ( 3)Cl   3           s(  0.00%)p 1.00(100.00%)
                                            0.0000  0.0000 -0.0000  0.0000 -0.0000
                                            0.0000  1.0000  0.0000  0.0000  0.0000
                                           -0.0000 -0.0000 -0.0000  0.0000  0.0000
                                           -0.0000 -0.0000 -0.0000 -0.0000  0.0000
                                           -0.0000  0.0000  0.0000  0.0000  0.0000
                                            0.0000  0.0000 -0.0000 -0.0000 -0.0000
                                            0.0000  0.0000 -0.0000  0.0000  0.0000
                                           -0.0000  0.0000  0.0000 -0.0000 -0.0000
                                            0.0000  0.0000  0.0000  0.0000  0.0000
                                            0.0000 -0.0000 -0.0000  0.0000  0.0000
    12. (2.00002) CR ( 4)Cl   3           s(  0.00%)p 1.00(100.00%)
                                            0.0000  0.0000 -0.0000 -0.0000  0.0000
                                           -0.0000 -0.0000 -0.0000 -0.0000  0.0000
                                           -0.0000  1.0000 -0.0001  0.0000  0.0000
                                           -0.0000 -0.0000 -0.0000 -0.0000  0.0000
                                           -0.0000 -0.0000 -0.0000 -0.0000 -0.0000
                                           -0.0000 -0.0000 -0.0000 -0.0000 -0.0000
                                            0.0000  0.0000 -0.0000  0.0000  0.0000
                                           -0.0000  0.0000  0.0000  0.0000  0.0000
                                            0.0000  0.0000  0.0000  0.0000 -0.0000
                                           -0.0000  0.0000  0.0000  0.0000  0.0000
    13. (2.00002) CR ( 5)Cl   3           s(  0.00%)p 1.00(100.00%)
                                            0.0000  0.0000 -0.0000 -0.0000  0.0000
                                           -0.0000 -0.0000 -0.0000  0.0000  0.0000
                                           -0.0000 -0.0000 -0.0001  0.0000  0.0000
                                           -0.0000  1.0000  0.0000 -0.0000  0.0000
                                           -0.0000 -0.0000 -0.0000 -0.0000 -0.0000
                                           -0.0000 -0.0000 -0.0000 -0.0000 -0.0000
                                            0.0000  0.0000 -0.0000  0.0000  0.0000
                                            0.0000  0.0000  0.0000  0.0000  0.0000
                                            0.0000  0.0000  0.0000  0.0000 -0.0000
                                           -0.0000  0.0000  0.0000  0.0000  0.0000
    14. (1.96849) LP ( 1) O   1           s( 64.01%)p 0.56( 35.89%)d 0.00(  0.09%)
                                                  f 0.00(  0.00%)
                                            0.0002  0.8000  0.0113  0.0068 -0.0010
                                           -0.2523 -0.0033 -0.0042 -0.0019  0.4206
                                            0.0069  0.0049  0.0025 -0.3437 -0.0047
                                           -0.0033 -0.0008  0.0175  0.0013 -0.0028
                                           -0.0162 -0.0023  0.0010  0.0163  0.0005
                                           -0.0014  0.0074 -0.0003 -0.0032 -0.0020
                                           -0.0003  0.0011  0.0030 -0.0004 -0.0012
                                            0.0010  0.0005  0.0001 -0.0008  0.0007
                                            0.0024 -0.0010  0.0025 -0.0016  0.0032
                                           -0.0012
    15. (1.95358) LP ( 2) O   1           s(  0.02%)p99.99( 99.76%)d11.13(  0.21%)
                                                  f 0.79(  0.01%)
                                           -0.0000  0.0046  0.0118  0.0049 -0.0007
                                           -0.0211 -0.0021 -0.0004 -0.0014  0.6185
                                            0.0116  0.0034  0.0027  0.7836  0.0170
                                            0.0056  0.0055  0.0194  0.0030 -0.0007
                                            0.0246  0.0042 -0.0003 -0.0003  0.0034
                                            0.0055  0.0112 -0.0032 -0.0062  0.0282
                                           -0.0009 -0.0065 -0.0023  0.0006 -0.0006
                                           -0.0005 -0.0071  0.0001  0.0078 -0.0012
                                           -0.0000  0.0006 -0.0003 -0.0009  0.0050
                                           -0.0019
    16. (1.97456) LP ( 1)Cl   2           s( 92.02%)p 0.09(  7.96%)d 0.00(  0.02%)
                                                  f 0.00(  0.00%)
                                            0.0000  0.0003  0.9592  0.0069  0.0012
                                            0.0002  0.0000  0.2811 -0.0058 -0.0027
                                            0.0011 -0.0000 -0.0111  0.0020  0.0004
                                           -0.0004  0.0000  0.0206  0.0007  0.0001
                                            0.0001  0.0004 -0.0002 -0.0003  0.0003
                                            0.0004  0.0005 -0.0008 -0.0002  0.0002
                                           -0.0112  0.0006 -0.0001  0.0079  0.0007
                                            0.0003 -0.0003  0.0001 -0.0022 -0.0003
                                           -0.0001  0.0001  0.0002 -0.0000  0.0005
                                           -0.0003  0.0031  0.0002 -0.0005  0.0003
    17. (1.95620) LP ( 2)Cl   2           s(  0.02%)p99.99( 99.92%)d 2.74(  0.05%)
                                                  f 0.46(  0.01%)
                                            0.0000  0.0000  0.0114 -0.0067 -0.0029
                                            0.0015 -0.0000  0.0033  0.0003 -0.0007
                                            0.0007  0.0001 -0.5226 -0.0068 -0.0022
                                            0.0002  0.0001 -0.8520 -0.0131 -0.0039
                                            0.0018 -0.0046 -0.0095 -0.0046 -0.0056
                                           -0.0148 -0.0075 -0.0052 -0.0049 -0.0015
                                            0.0025  0.0018  0.0013 -0.0003  0.0006
                                            0.0001  0.0037  0.0001  0.0007 -0.0005
                                            0.0017 -0.0005 -0.0066  0.0016  0.0000
                                           -0.0001  0.0007 -0.0005 -0.0044  0.0009
    18. (1.95517) LP ( 3)Cl   2           s(  0.05%)p99.99( 99.90%)d 0.80(  0.04%)
                                                  f 0.17(  0.01%)
                                            0.0000 -0.0000  0.0215  0.0057  0.0037
                                           -0.0015  0.0000 -0.0018 -0.0002 -0.0002
                                           -0.0008 -0.0002  0.8520  0.0109  0.0015
                                           -0.0002  0.0001 -0.5224 -0.0083 -0.0013
                                            0.0004 -0.0010  0.0128  0.0068  0.0020
                                           -0.0071 -0.0042 -0.0005 -0.0016 -0.0010
                                           -0.0082 -0.0053 -0.0030 -0.0025 -0.0034
                                           -0.0004  0.0032 -0.0005  0.0007 -0.0001
                                           -0.0009 -0.0007 -0.0033  0.0003 -0.0009
                                            0.0005 -0.0009  0.0000  0.0078 -0.0014
    19. (1.97948) LP ( 1)Cl   3           s( 97.17%)p 0.03(  2.83%)d 0.00(  0.00%)
                                                  f 0.00(  0.00%)
                                            0.0000  0.0000  0.9857 -0.0002  0.0001
                                           -0.0002  0.0000 -0.0362  0.0002 -0.0001
                                            0.0000  0.0000 -0.1523  0.0012 -0.0005
                                            0.0004  0.0000 -0.0616  0.0006 -0.0001
                                            0.0002  0.0006  0.0003 -0.0000  0.0001
                                            0.0001 -0.0001  0.0005  0.0004 -0.0001
                                           -0.0011 -0.0005  0.0001 -0.0008 -0.0003
                                            0.0001 -0.0003 -0.0002 -0.0001 -0.0000
                                           -0.0003 -0.0001 -0.0004 -0.0003  0.0001
                                            0.0001 -0.0003 -0.0002 -0.0003 -0.0002
    20. (1.95211) LP ( 2)Cl   3           s(  0.00%)p 1.00( 99.99%)d 0.00(  0.01%)
                                                  f 0.00(  0.00%)
                                           -0.0000  0.0000  0.0041  0.0006 -0.0007
                                            0.0010 -0.0000  0.9521  0.0007  0.0008
                                           -0.0001  0.0000 -0.0802 -0.0002 -0.0002
                                           -0.0000  0.0000 -0.2948  0.0002 -0.0002
                                            0.0003  0.0076  0.0021  0.0001  0.0034
                                            0.0018  0.0010 -0.0019 -0.0002  0.0002
                                            0.0019  0.0003 -0.0001 -0.0018 -0.0007
                                           -0.0002  0.0000 -0.0000 -0.0004 -0.0003
                                           -0.0007 -0.0004  0.0007  0.0004  0.0013
                                            0.0009 -0.0017 -0.0010  0.0010  0.0007
    21. (1.95167) LP ( 3)Cl   3           s(  0.00%)p 1.00( 99.99%)d 0.00(  0.01%)
                                                  f 0.00(  0.00%)
                                            0.0000  0.0000 -0.0004  0.0008 -0.0015
                                            0.0017  0.0000 -0.2380 -0.0003 -0.0002
                                            0.0001 -0.0000  0.4104 -0.0009 -0.0000
                                            0.0001  0.0000 -0.8802  0.0004 -0.0007
                                            0.0005 -0.0015 -0.0004 -0.0001 -0.0021
                                           -0.0007 -0.0002 -0.0035 -0.0001  0.0009
                                           -0.0026 -0.0003  0.0007 -0.0051 -0.0022
                                           -0.0009  0.0002  0.0001 -0.0004 -0.0002
                                           -0.0021 -0.0013  0.0003  0.0001 -0.0008
                                           -0.0005  0.0001  0.0001 -0.0008 -0.0004
    22. (1.90964) LP ( 4)Cl   3           s(  2.83%)p34.36( 97.13%)d 0.01(  0.04%)
                                                  f 0.00(  0.00%)
                                           -0.0001 -0.0000  0.1681  0.0009 -0.0006
                                            0.0010  0.0000  0.1882 -0.0001 -0.0001
                                            0.0004  0.0001  0.8953 -0.0007 -0.0016
                                            0.0004  0.0000  0.3665  0.0025 -0.0006
                                            0.0008  0.0051  0.0017  0.0004  0.0028
                                            0.0008  0.0003  0.0133  0.0038  0.0011
                                           -0.0107 -0.0024  0.0003 -0.0044 -0.0013
                                           -0.0001 -0.0021 -0.0012 -0.0002 -0.0003
                                           -0.0009 -0.0008 -0.0026 -0.0015  0.0012
                                            0.0007 -0.0016 -0.0011 -0.0019 -0.0009
    23. (0.01939) RY*( 1) O   1           s(  0.23%)p99.99( 98.11%)d 6.88(  1.60%)
                                                  f 0.24(  0.06%)
                                           -0.0000 -0.0007  0.0479  0.0046  0.0017
                                            0.0037 -0.0222 -0.0003 -0.0046 -0.0162
                                            0.6127 -0.0250 -0.0086 -0.0209  0.7764
                                           -0.0311 -0.0037  0.0572  0.0158  0.0040
                                            0.0711  0.0226  0.0084 -0.0044  0.0052
                                            0.0090  0.0314 -0.0015 -0.0070  0.0745
                                            0.0045 -0.0074 -0.0062  0.0049  0.0017
                                           -0.0001 -0.0058  0.0061  0.0110 -0.0093
                                           -0.0014  0.0011  0.0031 -0.0012  0.0111
                                           -0.0089
    24. (0.01526) RY*( 2) O   1           s( 28.75%)p 2.37( 68.12%)d 0.10(  2.85%)
                                                  f 0.01(  0.29%)
                                           -0.0000  0.0005  0.5331 -0.0576 -0.0022
                                            0.0408 -0.3678 -0.0036  0.0264 -0.0137
                                            0.5569 -0.0044 -0.0310  0.0058 -0.4812
                                            0.0078  0.0232  0.1102  0.0173  0.0043
                                           -0.1098 -0.0209 -0.0097  0.0560  0.0028
                                           -0.0091 -0.0002  0.0062  0.0039  0.0106
                                            0.0021 -0.0008  0.0034 -0.0042 -0.0177
                                            0.0079 -0.0146  0.0078 -0.0216  0.0095
                                            0.0185 -0.0100  0.0263 -0.0117  0.0166
                                           -0.0087
    25. (0.00768) RY*( 3) O   1           s( 13.77%)p 0.44(  6.12%)d 5.70( 78.53%)
                                                  f 0.11(  1.57%)
                                            0.0000  0.0139  0.3672 -0.0511  0.0106
                                           -0.0185 -0.1438  0.0043  0.0215 -0.0055
                                           -0.1591  0.0132 -0.0608 -0.0018  0.1011
                                           -0.0098  0.0138 -0.7749 -0.0003 -0.0131
                                            0.3101  0.0090  0.0089  0.1068 -0.0031
                                            0.0086  0.1692  0.0096  0.0241  0.2180
                                           -0.0064  0.0041 -0.0007  0.0001  0.0011
                                            0.0039 -0.0011  0.0055  0.0364 -0.0145
                                           -0.0523  0.0217 -0.0274  0.0059 -0.0925
                                            0.0394
    26. (0.00701) RY*( 4) O   1           s(  0.97%)p 0.38(  0.37%)d99.99( 96.95%)
                                                  f 1.78(  1.72%)
                                            0.0000  0.0058  0.0977 -0.0087 -0.0024
                                           -0.0045 -0.0103  0.0039  0.0080 -0.0094
                                           -0.0340 -0.0069 -0.0028 -0.0135 -0.0429
                                           -0.0074  0.0096  0.2826 -0.0232  0.0014
                                            0.8516 -0.0368  0.0073  0.1663 -0.0104
                                            0.0031 -0.2213  0.0131 -0.0005 -0.2918
                                            0.0155 -0.0085 -0.0714  0.0308  0.0215
                                           -0.0088  0.0270 -0.0117  0.0721 -0.0306
                                           -0.0197  0.0072 -0.0064 -0.0010  0.0508
                                           -0.0230
    27. (0.00628) RY*( 5) O   1           s(  0.25%)p20.02(  4.99%)d99.99( 93.26%)
                                                  f 6.02(  1.50%)
                                           -0.0000  0.0018  0.0461 -0.0188 -0.0023
                                           -0.0098 -0.1179  0.0018  0.0218 -0.0379
                                           -0.1824  0.0148 -0.0105 -0.0172  0.0030
                                           -0.0028  0.0073  0.4505 -0.0260  0.0072
                                            0.2000 -0.0263 -0.0069 -0.0557  0.0086
                                            0.0021  0.5319 -0.0275  0.0190  0.6313
                                           -0.0453  0.0186  0.0232 -0.0120  0.0231
                                           -0.0110 -0.0700  0.0339  0.0519 -0.0255
                                            0.0139 -0.0059  0.0591 -0.0229  0.0065
                                           -0.0016
    28. (0.00603) RY*( 6) O   1           s(  1.82%)p13.57( 24.65%)d39.60( 71.95%)
                                                  f 0.87(  1.58%)
                                           -0.0000  0.0124  0.1301 -0.0279 -0.0180
                                           -0.0201 -0.3173  0.0016  0.0358 -0.0473
                                           -0.2837  0.0173  0.0102  0.0449  0.2413
                                           -0.0205 -0.0176  0.1668 -0.0028  0.0121
                                           -0.2633  0.0177 -0.0050  0.7313 -0.0477
                                            0.0257  0.1458  0.0049  0.0041 -0.2501
                                            0.0172 -0.0030  0.0456 -0.0243 -0.0367
                                            0.0128  0.0588 -0.0275  0.0392 -0.0196
                                            0.0547 -0.0223  0.0424 -0.0155 -0.0026
                                            0.0003
    29. (0.00567) RY*( 7) O   1           s(  0.99%)p12.32( 12.19%)d85.56( 84.66%)
                                                  f 2.18(  2.16%)
                                           -0.0000  0.0188  0.0949 -0.0189  0.0133
                                            0.0712  0.3352 -0.0038 -0.0482 -0.0054
                                            0.0216  0.0014 -0.0022 -0.0049 -0.0401
                                           -0.0009  0.0053  0.0435 -0.0145 -0.0101
                                           -0.0589  0.0129  0.0093  0.4342 -0.0654
                                           -0.0003 -0.5653  0.0432  0.0090  0.5685
                                           -0.0553 -0.0052  0.0319 -0.0144  0.0852
                                           -0.0325 -0.0099  0.0052 -0.0126  0.0054
                                            0.0296 -0.0110 -0.0925  0.0364  0.0273
                                           -0.0112
    30. (0.00273) RY*( 8) O   1           s( 14.79%)p 2.60( 38.40%)d 3.12( 46.14%)
                                                  f 0.05(  0.67%)
                                           -0.0000 -0.0048  0.3727 -0.0935  0.0134
                                            0.0229 -0.3552  0.0329  0.0410  0.0198
                                           -0.3880  0.0535 -0.1257 -0.0171  0.2803
                                           -0.0627  0.0461  0.1776 -0.0390  0.0206
                                           -0.1242  0.0318 -0.0088 -0.4304  0.1210
                                           -0.0338 -0.4459  0.0572 -0.0583  0.0423
                                            0.0505  0.0229 -0.0071  0.0175  0.0092
                                           -0.0021 -0.0394  0.0308 -0.0365  0.0287
                                           -0.0055 -0.0091 -0.0309  0.0048  0.0215
                                           -0.0085
    31. (0.00250) RY*( 9) O   1           s( 33.41%)p 1.52( 50.78%)d 0.45( 15.17%)
                                                  f 0.02(  0.64%)
                                           -0.0000 -0.0017  0.5610 -0.1390 -0.0059
                                            0.0166  0.6896 -0.0215  0.0107 -0.0028
                                           -0.0897  0.0309 -0.1285  0.0016  0.0649
                                           -0.0299  0.0278  0.1287 -0.0394  0.0045
                                           -0.0997  0.0293 -0.0003 -0.0520  0.0471
                                            0.0014  0.2405 -0.0038  0.0773 -0.2166
                                            0.0814 -0.0218  0.0026 -0.0006 -0.0371
                                            0.0372 -0.0266  0.0216 -0.0064  0.0055
                                            0.0123 -0.0061  0.0294 -0.0360  0.0012
                                           -0.0001
    32. (0.00077) RY*(10) O   1           s( 49.20%)p 0.72( 35.56%)d 0.21( 10.41%)
                                                  f 0.10(  4.83%)
                                           -0.0000 -0.0021  0.0545  0.6990  0.0208
                                            0.0123 -0.0016 -0.1207 -0.2387 -0.0090
                                            0.0128  0.3684 -0.1544  0.0018 -0.0215
                                           -0.3303  0.1208  0.0137 -0.1624 -0.0729
                                           -0.0039  0.0344  0.0238  0.0244 -0.0319
                                            0.1031  0.0235 -0.0000 -0.0615 -0.0142
                                            0.2098  0.0984  0.0377 -0.0372  0.0123
                                            0.0013 -0.1545  0.0480  0.0223 -0.0070
                                           -0.0667  0.0201 -0.0910  0.0236 -0.0701
                                            0.0017
    33. (0.00066) RY*(11) O   1           s(  2.46%)p 3.04(  7.48%)d29.61( 72.78%)
                                                  f 7.03( 17.29%)
                                           -0.0000  0.0003  0.0795  0.1331 -0.0232
                                            0.0057  0.0213 -0.0053 -0.0514 -0.0060
                                           -0.0159  0.0900  0.1743 -0.0013  0.0306
                                            0.0831  0.1581 -0.0003 -0.1981 -0.0419
                                            0.0058 -0.1633 -0.0173  0.0042  0.3155
                                            0.0083 -0.0166 -0.4584 -0.0740 -0.0252
                                           -0.5857 -0.0242  0.0547  0.0009 -0.3147
                                            0.0477  0.0811 -0.0081 -0.0609  0.0064
                                            0.1251 -0.0223 -0.2027  0.0244  0.0052
                                           -0.0187
    34. (0.00063) RY*(12) O   1           s(  1.29%)p66.24( 85.59%)d 4.28(  5.53%)
                                                  f 5.88(  7.59%)
                                           -0.0000  0.0021  0.0372  0.1071 -0.0078
                                            0.0051  0.0219  0.0015  0.0632 -0.0008
                                           -0.0314 -0.6312  0.2166  0.0026 -0.0225
                                           -0.6073  0.1891 -0.0342  0.0772 -0.0232
                                           -0.0179 -0.0059 -0.0147  0.0038  0.1628
                                            0.0093 -0.0064 -0.1208 -0.0405  0.0140
                                            0.0550  0.0303 -0.0733 -0.0182  0.0699
                                           -0.0059 -0.0413 -0.0047  0.1322  0.0196
                                            0.1436 -0.0257  0.0951 -0.0128  0.1220
                                            0.0186
    35. (0.00057) RY*(13) O   1           s(  3.55%)p 3.34( 11.87%)d12.30( 43.72%)
                                                  f11.50( 40.85%)
                                           -0.0000  0.0039 -0.0060  0.1632  0.0941
                                            0.0090  0.0163  0.0336  0.0565 -0.0063
                                            0.0070  0.0384 -0.0265 -0.0001  0.0006
                                            0.3277 -0.0665 -0.0438  0.1598 -0.0399
                                            0.0449 -0.0953  0.0466  0.0430  0.5114
                                            0.0339 -0.0131 -0.0717 -0.0633  0.0222
                                            0.3451  0.0391  0.1355  0.0063  0.1951
                                           -0.0125 -0.0260  0.0020 -0.0642 -0.0085
                                            0.5670 -0.0342  0.1553 -0.0097 -0.0112
                                           -0.0028
    36. (0.00051) RY*(14) O   1           s(  0.08%)p62.41(  4.97%)d99.99( 53.77%)
                                                  f99.99( 41.18%)
                                           -0.0000  0.0002  0.0233  0.0054 -0.0149
                                           -0.0004  0.0015 -0.0263 -0.0098  0.0054
                                            0.0002 -0.1943  0.0985  0.0073  0.0278
                                            0.0120  0.0224  0.0102 -0.4947  0.0558
                                            0.0031 -0.5154  0.0663 -0.0044 -0.0747
                                            0.0065 -0.0160  0.0369 -0.0321 -0.0089
                                            0.1031 -0.0273  0.2417  0.0155  0.2120
                                           -0.0086  0.1224 -0.0017 -0.3567 -0.0156
                                           -0.1585  0.0004  0.2299 -0.0034 -0.2953
                                           -0.0203
    37. (0.00049) RY*(15) O   1           s(  0.43%)p27.45( 11.71%)d39.93( 17.03%)
                                                  f99.99( 70.83%)
                                           -0.0000 -0.0019  0.0382  0.0444 -0.0288
                                            0.0011  0.0150 -0.2333 -0.0040 -0.0030
                                           -0.0053  0.1957  0.1018 -0.0011  0.0081
                                            0.0710  0.0929 -0.0233  0.0407 -0.0361
                                           -0.0346  0.2023 -0.0646  0.0077  0.1596
                                           -0.0434 -0.0401 -0.2018 -0.0229 -0.0115
                                           -0.2179  0.0518 -0.0990 -0.0064  0.4735
                                            0.0169  0.1573  0.0048  0.1327  0.0213
                                           -0.3160 -0.0190  0.5614  0.0206  0.1239
                                           -0.0014
    38. (0.00048) RY*(16) O   1           s(  1.76%)p34.61( 61.05%)d 1.94(  3.43%)
                                                  f19.14( 33.76%)
                                           -0.0000  0.0051  0.0553  0.1108  0.0478
                                            0.0055 -0.0056  0.7571 -0.1593 -0.0029
                                           -0.0125 -0.0252  0.0388  0.0006  0.0125
                                            0.0907  0.0358 -0.0143 -0.0283 -0.0650
                                           -0.0251 -0.0313 -0.0100 -0.0030 -0.0520
                                            0.0232  0.0629 -0.0775  0.0835 -0.0545
                                           -0.0579 -0.0287  0.0964  0.0063  0.3887
                                            0.0415 -0.0786 -0.0041 -0.0322  0.0025
                                           -0.1378 -0.0037 -0.1669 -0.0167  0.3468
                                            0.0279
    39. (0.00049) RY*(17) O   1           s(  0.44%)p 7.49(  3.33%)d76.54( 34.00%)
                                                  f99.99( 62.23%)
                                            0.0000  0.0007  0.0181  0.0386  0.0512
                                            0.0019 -0.0180  0.0939 -0.0780  0.0059
                                            0.0154 -0.0783  0.0463 -0.0024 -0.0092
                                            0.0714 -0.0656  0.0170 -0.4606  0.0512
                                           -0.0333  0.3026 -0.0647 -0.0279 -0.0392
                                           -0.0287  0.0346  0.1066  0.0519 -0.0135
                                           -0.0972 -0.0097 -0.5077 -0.0417  0.2603
                                            0.0252  0.1641  0.0104  0.1403  0.0090
                                            0.3404  0.0118 -0.1308 -0.0199 -0.3366
                                           -0.0269
    40. (0.00046) RY*(18) O   1           s(  5.49%)p 8.21( 45.03%)d 1.98( 10.86%)
                                                  f 7.04( 38.63%)
                                           -0.0000  0.0032  0.0814  0.2101  0.0638
                                           -0.0030 -0.0120 -0.1626 -0.0554 -0.0081
                                           -0.0419 -0.4239  0.1064 -0.0039  0.0247
                                            0.4683 -0.0884  0.0148 -0.1548 -0.0098
                                           -0.0125  0.2401 -0.0248  0.0227 -0.0079
[...]
                                            0.0036  0.1402 -0.1325  0.0819 -0.0386
                                           -0.1187  0.0509 -0.0948 -0.7200  0.4022
                                            0.1322 -0.3417 -0.0288 -0.0319  0.0974
                                           -0.0713 -0.0408 -0.1375 -0.0838 -0.1524
                                           -0.1367 -0.1690  0.0032
   152. (0.00037) RY*( 7) H   4           s(  2.73%)p24.71( 67.37%)d10.97( 29.91%)
                                           -0.0041 -0.0439 -0.0398  0.1541 -0.0410
                                           -0.6181 -0.0360 -0.0673  0.0460 -0.3578
                                            0.1623 -0.3013 -0.1920  0.0264 -0.1732
                                            0.0511  0.0685 -0.3969  0.0404  0.2413
                                            0.1149  0.1132  0.1329
   153. (0.00027) RY*( 8) H   4           s(  4.70%)p 9.27( 43.56%)d11.00( 51.74%)
                                            0.0038 -0.0580  0.1187  0.1719 -0.0535
                                            0.3168 -0.0376 -0.0346 -0.0235  0.0857
                                           -0.0181  0.3036 -0.4790 -0.3390  0.1264
                                           -0.2839 -0.0993 -0.4931 -0.0719  0.2131
                                            0.0349 -0.0045  0.0313
   154. (0.00025) RY*( 9) H   4           s( 20.05%)p 0.71( 14.27%)d 3.28( 65.69%)
                                            0.0078 -0.0140  0.4386  0.0885  0.0307
                                            0.1384 -0.0381  0.0264 -0.3251 -0.0336
                                           -0.0025  0.0520 -0.1043  0.2637  0.0462
                                            0.5614 -0.1152  0.1226 -0.1227  0.4724
                                            0.0385  0.0446 -0.0013
   155. (0.00023) RY*(10) H   4           s(  8.93%)p 3.42( 30.52%)d 6.78( 60.56%)
                                            0.0030 -0.0064  0.2764 -0.1132 -0.1079
                                            0.0612 -0.2405  0.0762 -0.2171 -0.2901
                                            0.0323 -0.2649  0.1538 -0.6046 -0.0641
                                           -0.2405 -0.0060  0.3559  0.0308  0.1576
                                            0.1148  0.0016  0.1115
   156. (0.00019) RY*(11) H   4           s( 15.30%)p 4.26( 65.14%)d 1.28( 19.55%)
                                           -0.0216 -0.0864  0.3786 -0.0419  0.0341
                                            0.2269 -0.0268  0.1001  0.3448  0.1853
                                           -0.0122 -0.6100 -0.2502  0.1225 -0.0328
                                            0.0346 -0.0885 -0.0790 -0.1394 -0.3028
                                            0.0765 -0.0689  0.2061
   157. (0.00016) RY*(12) H   4           s(  1.18%)p32.67( 38.54%)d51.10( 60.28%)
                                            0.0082 -0.0176 -0.0574  0.0901  0.0660
                                            0.0562  0.1757  0.0566 -0.2716 -0.2724
                                            0.1075  0.1229 -0.4113  0.1840 -0.0045
                                           -0.1641 -0.0143  0.3135 -0.0493 -0.3429
                                            0.0818  0.5075  0.2434
   158. (0.00013) RY*(13) H   4           s( 13.39%)p 1.13( 15.18%)d 5.34( 71.43%)
                                           -0.0066 -0.0338  0.2248  0.2866  0.0237
                                            0.0826 -0.0847 -0.0287  0.0553  0.1973
                                            0.0591 -0.1785  0.2430  0.0547  0.0055
                                           -0.1887  0.1306 -0.0890  0.2205  0.1031
                                           -0.3213  0.6263 -0.3099
   159. (0.00011) RY*(14) H   4           s( 45.56%)p 0.33( 15.05%)d 0.86( 39.39%)
                                            0.0056  0.0529  0.3392  0.5811  0.0187
                                            0.0382  0.1569 -0.0352 -0.0947 -0.2169
                                           -0.0559  0.1152  0.2246  0.0976 -0.0083
                                           -0.0782  0.0412 -0.0751  0.3561 -0.2860
                                            0.1972 -0.3480  0.0480
   160. (0.00009) RY*(15) H   4           s(  1.57%)p 2.00(  3.13%)d60.79( 95.30%)
   161. (0.00010) RY*(16) H   4           s(  0.50%)p99.99( 51.78%)d95.73( 47.72%)
   162. (0.00007) RY*(17) H   4           s(  0.51%)p 8.48(  4.29%)d99.99( 95.20%)
   163. (0.00006) RY*(18) H   4           s( 47.30%)p 0.33( 15.65%)d 0.78( 37.05%)
   164. (0.00005) RY*(19) H   4           s(  1.74%)p 6.35( 11.03%)d50.23( 87.24%)
   165. (0.00004) RY*(20) H   4           s(  1.14%)p17.23( 19.67%)d69.37( 79.19%)
   166. (0.00004) RY*(21) H   4           s(  6.12%)p 4.20( 25.68%)d11.14( 68.20%)
   167. (0.00003) RY*(22) H   4           s(  9.25%)p 4.23( 39.15%)d 5.57( 51.60%)
   168. (0.05861) BD*( 1) O   1 -Cl   2  
                ( 41.18%)   0.6417* O   1 s(  9.72%)p 9.24( 89.73%)d 0.05(  0.53%)
                                                  f 0.00(  0.02%)
                                           -0.0003 -0.3088  0.0406  0.0130  0.0014
                                           -0.9461  0.0231  0.0093  0.0096 -0.0017
                                            0.0235  0.0044  0.0000 -0.0233 -0.0176
                                           -0.0032  0.0004  0.0166  0.0006 -0.0024
                                           -0.0178 -0.0025  0.0002  0.0123  0.0014
                                           -0.0012 -0.0565 -0.0051 -0.0015  0.0365
                                            0.0033  0.0004  0.0001 -0.0002  0.0081
                                           -0.0003  0.0001  0.0004 -0.0006  0.0012
                                            0.0063 -0.0017 -0.0081  0.0001  0.0005
                                           -0.0016
                ( 58.82%)  -0.7669*Cl   2 s(  8.22%)p11.01( 90.55%)d 0.14(  1.12%)
                                                  f 0.01(  0.11%)
                                            0.0000 -0.0005 -0.2805  0.0586  0.0104
                                            0.0023  0.0004  0.9492 -0.0656 -0.0138
                                            0.0041  0.0000  0.0054  0.0016 -0.0014
                                            0.0004 -0.0000 -0.0042  0.0001  0.0020
                                           -0.0010 -0.0068  0.0006 -0.0004  0.0115
                                            0.0015  0.0007  0.0048  0.0001 -0.0011
                                           -0.0898  0.0109  0.0005  0.0531 -0.0058
                                           -0.0001  0.0008 -0.0001 -0.0199  0.0027
                                           -0.0001  0.0001 -0.0007 -0.0000 -0.0017
                                            0.0014  0.0259 -0.0035  0.0008 -0.0004
   169. (0.05799) BD*( 1) O   1 - H   4  
                ( 22.15%)   0.4707* O   1 s( 26.38%)p 2.77( 73.08%)d 0.02(  0.52%)
                                                  f 0.00(  0.01%)
                                            0.0003  0.5135 -0.0058 -0.0073  0.0021
                                           -0.1770  0.0180  0.0028  0.0020 -0.6597
                                            0.0110  0.0064  0.0017  0.5135 -0.0056
                                           -0.0051 -0.0039 -0.0052 -0.0029 -0.0002
                                            0.0033  0.0023  0.0005 -0.0617 -0.0038
                                            0.0005 -0.0363 -0.0032 -0.0021  0.0049
                                            0.0018  0.0021 -0.0078  0.0004  0.0004
                                           -0.0005 -0.0029 -0.0006 -0.0042 -0.0018
                                            0.0017  0.0018  0.0001  0.0017 -0.0025
                                            0.0020
                ( 77.85%)  -0.8823* H   4 s( 99.81%)p 0.00(  0.19%)d 0.00(  0.00%)
                                            0.9988  0.0240  0.0009  0.0002  0.0116
                                            0.0070 -0.0026 -0.0035  0.0251  0.0067
                                            0.0250 -0.0183 -0.0037 -0.0008 -0.0020
                                            0.0013  0.0015 -0.0011  0.0002 -0.0004
                                            0.0010 -0.0013 -0.0016


 NHO Directionality and "Bond Bending" (deviations from line of nuclear centers)

         [Thresholds for printing:  angular deviation  >  1.0 degree]
                                    hybrid p-character > 25.0%
                                    orbital occupancy  >  0.10e

                                Line of Centers        Hybrid 1              Hybrid 2
                                ---------------  -------------------   ------------------
                NBO               Theta   Phi    Theta   Phi    Dev    Theta   Phi    Dev
 ========================================================================================
     1. BD (   1) O   1 -Cl   2    90.0    0.0    87.2  358.3   3.2      --     --    --
     2. BD (   1) O   1 - H   4    55.0  257.5    52.9  256.5   2.3      --     --    --
    14. LP (   1) O   1             --     --    124.8  121.0   --       --     --    --
    15. LP (   2) O   1             --     --     38.1   92.3   --       --     --    --
    17. LP (   2)Cl   2             --     --    148.5  270.4   --       --     --    --
    18. LP (   3)Cl   2             --     --    121.6   90.2   --       --     --    --
    20. LP (   2)Cl   3             --     --    107.1  355.2   --       --     --    --
    21. LP (   3)Cl   3             --     --    151.7  120.2   --       --     --    --
    22. LP (   4)Cl   3             --     --     68.0   78.1   --       --     --    --


 Natural Bond Orbitals (Summary):

           NBO                  Occupancy  
 -----------------------------------------------
 Molecular unit  1  (HOCl)
     1. BD (   1) O   1 -Cl   2          1.93895
     2. BD (   1) O   1 - H   4          1.96541
     3. CR (   1) O   1                  1.99969
     4. CR (   1)Cl   2                  2.00000
     5. CR (   2)Cl   2                  1.99982
     6. CR (   3)Cl   2                  1.99997
     7. CR (   4)Cl   2                  2.00003
     8. CR (   5)Cl   2                  2.00003
    14. LP (   1) O   1                  1.96849
    15. LP (   2) O   1                  1.95358
    16. LP (   1)Cl   2                  1.97456
    17. LP (   2)Cl   2                  1.95620
    18. LP (   3)Cl   2                  1.95517
    23. RY*(   1) O   1                  0.01939
    24. RY*(   2) O   1                  0.01526
    25. RY*(   3) O   1                  0.00768
    26. RY*(   4) O   1                  0.00701
    27. RY*(   5) O   1                  0.00628
    28. RY*(   6) O   1                  0.00603
    29. RY*(   7) O   1                  0.00567
    30. RY*(   8) O   1                  0.00273
    31. RY*(   9) O   1                  0.00250
    32. RY*(  10) O   1                  0.00077
    33. RY*(  11) O   1                  0.00066
    34. RY*(  12) O   1                  0.00063
    35. RY*(  13) O   1                  0.00057
    36. RY*(  14) O   1                  0.00051
    37. RY*(  15) O   1                  0.00049
    38. RY*(  16) O   1                  0.00048
    39. RY*(  17) O   1                  0.00049
    40. RY*(  18) O   1                  0.00046
    41. RY*(  19) O   1                  0.00045
    42. RY*(  20) O   1                  0.00044
    43. RY*(  21) O   1                  0.00044
    44. RY*(  22) O   1                  0.00041
    45. RY*(  23) O   1                  0.00034
    46. RY*(  24) O   1                  0.00029
    47. RY*(  25) O   1                  0.00024
    48. RY*(  26) O   1                  0.00020
    49. RY*(  27) O   1                  0.00014
    50. RY*(  28) O   1                  0.00013
    51. RY*(  29) O   1                  0.00013
    52. RY*(  30) O   1                  0.00010
    53. RY*(  31) O   1                  0.00008
    54. RY*(  32) O   1                  0.00009
    55. RY*(  33) O   1                  0.00008
    56. RY*(  34) O   1                  0.00008
    57. RY*(  35) O   1                  0.00008
    58. RY*(  36) O   1                  0.00008
    59. RY*(  37) O   1                  0.00006
    60. RY*(  38) O   1                  0.00004
    61. RY*(  39) O   1                  0.00004
    62. RY*(  40) O   1                  0.00004
    63. RY*(  41) O   1                  0.00002
    64. RY*(   1)Cl   2                  0.02219
    65. RY*(   2)Cl   2                  0.01738
    66. RY*(   3)Cl   2                  0.01681
    67. RY*(   4)Cl   2                  0.01634
    68. RY*(   5)Cl   2                  0.01165
    69. RY*(   6)Cl   2                  0.00922
    70. RY*(   7)Cl   2                  0.00901
    71. RY*(   8)Cl   2                  0.00629
    72. RY*(   9)Cl   2                  0.00172
    73. RY*(  10)Cl   2                  0.00126
    74. RY*(  11)Cl   2                  0.00126
    75. RY*(  12)Cl   2                  0.00119
    76. RY*(  13)Cl   2                  0.00119
    77. RY*(  14)Cl   2                  0.00116
    78. RY*(  15)Cl   2                  0.00109
    79. RY*(  16)Cl   2                  0.00094
    80. RY*(  17)Cl   2                  0.00076
    81. RY*(  18)Cl   2                  0.00074
    82. RY*(  19)Cl   2                  0.00063
    83. RY*(  20)Cl   2                  0.00054
    84. RY*(  21)Cl   2                  0.00041
    85. RY*(  22)Cl   2                  0.00038
    86. RY*(  23)Cl   2                  0.00033
    87. RY*(  24)Cl   2                  0.00030
    88. RY*(  25)Cl   2                  0.00019
    89. RY*(  26)Cl   2                  0.00015
    90. RY*(  27)Cl   2                  0.00013
    91. RY*(  28)Cl   2                  0.00014
    92. RY*(  29)Cl   2                  0.00013
    93. RY*(  30)Cl   2                  0.00012
    94. RY*(  31)Cl   2                  0.00011
    95. RY*(  32)Cl   2                  0.00011
    96. RY*(  33)Cl   2                  0.00010
    97. RY*(  34)Cl   2                  0.00009
    98. RY*(  35)Cl   2                  0.00009
    99. RY*(  36)Cl   2                  0.00010
   100. RY*(  37)Cl   2                  0.00006
   101. RY*(  38)Cl   2                  0.00005
   102. RY*(  39)Cl   2                  0.00003
   103. RY*(  40)Cl   2                  0.00003
   104. RY*(  41)Cl   2                  0.00001
   146. RY*(   1) H   4                  0.00847
   147. RY*(   2) H   4                  0.00501
   148. RY*(   3) H   4                  0.00328
   149. RY*(   4) H   4                  0.00262
   150. RY*(   5) H   4                  0.00051
   151. RY*(   6) H   4                  0.00048
   152. RY*(   7) H   4                  0.00037
   153. RY*(   8) H   4                  0.00027
   154. RY*(   9) H   4                  0.00025
   155. RY*(  10) H   4                  0.00023
   156. RY*(  11) H   4                  0.00019
   157. RY*(  12) H   4                  0.00016
   158. RY*(  13) H   4                  0.00013
   159. RY*(  14) H   4                  0.00011
   160. RY*(  15) H   4                  0.00009
   161. RY*(  16) H   4                  0.00010
   162. RY*(  17) H   4                  0.00007
   163. RY*(  18) H   4                  0.00006
   164. RY*(  19) H   4                  0.00005
   165. RY*(  20) H   4                  0.00004
   166. RY*(  21) H   4                  0.00004
   167. RY*(  22) H   4                  0.00003
   168. BD*(   1) O   1 -Cl   2          0.05861
   169. BD*(   1) O   1 - H   4          0.05799
       -------------------------------
              Total Lewis   25.71190  ( 98.6754%)
        Valence non-Lewis    0.11660  (  0.4475%)
        Rydberg non-Lewis    0.22854  (  0.8771%)
       -------------------------------
            Total unit  1   26.05705  (100.0000%)
           Charge unit  1   -0.05705

 Molecular unit  2  (Cl)
     9. CR (   1)Cl   3                  2.00001
    10. CR (   2)Cl   3                  2.00000
    11. CR (   3)Cl   3                  2.00003
    12. CR (   4)Cl   3                  2.00002
    13. CR (   5)Cl   3                  2.00002
    19. LP (   1)Cl   3                  1.97948
    20. LP (   2)Cl   3                  1.95211
    21. LP (   3)Cl   3                  1.95167
    22. LP (   4)Cl   3                  1.90964
   105. RY*(   1)Cl   3                  0.01853
   106. RY*(   2)Cl   3                  0.01848
   107. RY*(   3)Cl   3                  0.01834
   108. RY*(   4)Cl   3                  0.01834
   109. RY*(   5)Cl   3                  0.01808
   110. RY*(   6)Cl   3                  0.01333
   111. RY*(   7)Cl   3                  0.01331
   112. RY*(   8)Cl   3                  0.01151
   113. RY*(   9)Cl   3                  0.00300
   114. RY*(  10)Cl   3                  0.00131
   115. RY*(  11)Cl   3                  0.00129
   116. RY*(  12)Cl   3                  0.00129
   117. RY*(  13)Cl   3                  0.00129
   118. RY*(  14)Cl   3                  0.00130
   119. RY*(  15)Cl   3                  0.00128
   120. RY*(  16)Cl   3                  0.00127
   121. RY*(  17)Cl   3                  0.00100
   122. RY*(  18)Cl   3                  0.00100
   123. RY*(  19)Cl   3                  0.00081
   124. RY*(  20)Cl   3                  0.00080
   125. RY*(  21)Cl   3                  0.00076
   126. RY*(  22)Cl   3                  0.00055
   127. RY*(  23)Cl   3                  0.00056
   128. RY*(  24)Cl   3                  0.00053
   129. RY*(  25)Cl   3                  0.00024
   130. RY*(  26)Cl   3                  0.00016
   131. RY*(  27)Cl   3                  0.00016
   132. RY*(  28)Cl   3                  0.00016
   133. RY*(  29)Cl   3                  0.00014
   134. RY*(  30)Cl   3                  0.00014
   135. RY*(  31)Cl   3                  0.00014
   136. RY*(  32)Cl   3                  0.00015
   137. RY*(  33)Cl   3                  0.00012
   138. RY*(  34)Cl   3                  0.00012
   139. RY*(  35)Cl   3                  0.00011
   140. RY*(  36)Cl   3                  0.00009
   141. RY*(  37)Cl   3                  0.00010
   142. RY*(  38)Cl   3                  0.00007
   143. RY*(  39)Cl   3                  0.00004
   144. RY*(  40)Cl   3                  0.00002
   145. RY*(  41)Cl   3                  0.00003
       -------------------------------
              Total Lewis   17.79298  ( 99.1642%)
        Valence non-Lewis    0.00000  (  0.0000%)
        Rydberg non-Lewis    0.14997  (  0.8358%)
       -------------------------------
            Total unit  2   17.94295  (100.0000%)
           Charge unit  2   -0.94295
 Leave Link  607 at Fri Nov  5 15:25:28 2021, MaxMem= 16106127360 cpu:              67.8 elap:               2.4
 (Enter /sw/contrib/gaussian/g16/B01/g16/l9999.exe)
 1\1\GINC-N2113\SP\RMP2-FC\Aug-CC-pVTZ\Cl2H1O1(1-)\CGAVINH\05-Nov-2021\
 0\\#p pop=NBO SP NoSymm mp2/aug-cc-pvtz density=current\\title\\-1,1\O
 \X,1,10.\Cl,1,1.69700154,2,90.\Cl,1,2.93100907,2,90.,3,102.48429983,0\
 H,1,0.96862334,2,55.,3,102.48429983,0\\Version=ES64L-G16RevB.01\HF=-99
 4.5127595\MP2=-995.1768988\RMSD=5.652e-09\Dipole=1.499058,2.0968015,0.
 2267252\Quadrupole=7.4730977,-16.8295411,9.3564433,-6.034519,-0.195129
 5,-0.2109426\PG=C01 [X(Cl2H1O1)]\\@


 EDUCATION IS NOT TRAINING BUT RATHER THE PROCESS THAT EQUIPS YOU TO
 ENTERTAIN YOURSELF, A FRIEND, OR AN IDEA.  -- WALLACE STERLING
 Job cpu time:       0 days  0 hours  4 minutes 28.1 seconds.
 Elapsed time:       0 days  0 hours  0 minutes 14.8 seconds.
 File lengths (MBytes):  RWF=     14 Int=      0 D2E=      0 Chk=      8 Scr=      1
 Normal termination of Gaussian 16 at Fri Nov  5 15:25:28 2021.
