 Entering Gaussian System, Link 0=g16
 Input=clhocl_oop_05_sp.gjf
 Output=clhocl_oop_05_sp.log
 Initial command:
 /sw/contrib/gaussian/g16/B01/g16/l1.exe "/scr/Gau-20695.inp" -scrdir="/scr/"
 Entering Link 1 = /sw/contrib/gaussian/g16/B01/g16/l1.exe PID=     20696.
  
 Copyright (c) 1988-2017, Gaussian, Inc.  All Rights Reserved.
  
 This is part of the Gaussian(R) 16 program.  It is based on
 the Gaussian(R) 09 system (copyright 2009, Gaussian, Inc.),
 the Gaussian(R) 03 system (copyright 2003, Gaussian, Inc.),
 the Gaussian(R) 98 system (copyright 1998, Gaussian, Inc.),
 the Gaussian(R) 94 system (copyright 1995, Gaussian, Inc.),
 the Gaussian 92(TM) system (copyright 1992, Gaussian, Inc.),
 the Gaussian 90(TM) system (copyright 1990, Gaussian, Inc.),
 the Gaussian 88(TM) system (copyright 1988, Gaussian, Inc.),
 the Gaussian 86(TM) system (copyright 1986, Carnegie Mellon
 University), and the Gaussian 82(TM) system (copyright 1983,
 Carnegie Mellon University). Gaussian is a federally registered
 trademark of Gaussian, Inc.
  
 This software contains proprietary and confidential information,
 including trade secrets, belonging to Gaussian, Inc.
  
 This software is provided under written license and may be
 used, copied, transmitted, or stored only in accord with that
 written license.
  
 The following legend is applicable only to US Government
 contracts under FAR:
  
                    RESTRICTED RIGHTS LEGEND
  
 Use, reproduction and disclosure by the US Government is
 subject to restrictions as set forth in subparagraphs (a)
 and (c) of the Commercial Computer Software - Restricted
 Rights clause in FAR 52.227-19.
  
 Gaussian, Inc.
 340 Quinnipiac St., Bldg. 40, Wallingford CT 06492
  
  
 ---------------------------------------------------------------
 Warning -- This program may not be used in any manner that
 competes with the business of Gaussian, Inc. or will provide
 assistance to any competitor of Gaussian, Inc.  The licensee
 of this program is prohibited from giving any competitor of
 Gaussian, Inc. access to this program.  By using this program,
 the user acknowledges that Gaussian, Inc. is engaged in the
 business of creating and licensing software in the field of
 computational chemistry and represents and warrants to the
 licensee that it is not a competitor of Gaussian, Inc. and that
 it will not use this program in any manner prohibited above.
 ---------------------------------------------------------------
  

 Cite this work as:
 Gaussian 16, Revision B.01,
 M. J. Frisch, G. W. Trucks, H. B. Schlegel, G. E. Scuseria, 
 M. A. Robb, J. R. Cheeseman, G. Scalmani, V. Barone, 
 G. A. Petersson, H. Nakatsuji, X. Li, M. Caricato, A. V. Marenich, 
 J. Bloino, B. G. Janesko, R. Gomperts, B. Mennucci, H. P. Hratchian, 
 J. V. Ortiz, A. F. Izmaylov, J. L. Sonnenberg, D. Williams-Young, 
 F. Ding, F. Lipparini, F. Egidi, J. Goings, B. Peng, A. Petrone, 
 T. Henderson, D. Ranasinghe, V. G. Zakrzewski, J. Gao, N. Rega, 
 G. Zheng, W. Liang, M. Hada, M. Ehara, K. Toyota, R. Fukuda, 
 J. Hasegawa, M. Ishida, T. Nakajima, Y. Honda, O. Kitao, H. Nakai, 
 T. Vreven, K. Throssell, J. A. Montgomery, Jr., J. E. Peralta, 
 F. Ogliaro, M. J. Bearpark, J. J. Heyd, E. N. Brothers, K. N. Kudin, 
 V. N. Staroverov, T. A. Keith, R. Kobayashi, J. Normand, 
 K. Raghavachari, A. P. Rendell, J. C. Burant, S. S. Iyengar, 
 J. Tomasi, M. Cossi, J. M. Millam, M. Klene, C. Adamo, R. Cammi, 
 J. W. Ochterski, R. L. Martin, K. Morokuma, O. Farkas, 
 J. B. Foresman, and D. J. Fox, Gaussian, Inc., Wallingford CT, 2016.
 
 ******************************************
 Gaussian 16:  ES64L-G16RevB.01 20-Dec-2017
                 5-Nov-2021 
 ******************************************
 %nproc=28
 Will use up to   28 processors via shared memory.
 %mem=120GB
 %chk=/gscratch/ilahie/mccoygrp/coire_hocl/oop_s_rOH_f/clhocl/clhocl_oop_0_sp.chk
 ----------------------------------------------------
 #p pop=NBO SP NoSymm mp2/aug-cc-pvtz density=current
 ----------------------------------------------------
 1/30=1,38=1,172=1/1;
 2/12=2,15=1,17=6,18=5,40=1/2;
 3/5=16,6=1,7=10,11=9,25=1,30=1,71=1/1,2,3;
 4//1;
 5/5=2,38=5/2;
 8/6=4,10=1/1;
 9/15=1,16=-3/6;
 10/5=1,13=10,31=1/2;
 6/7=2,8=2,9=2,10=2,22=-1,40=1/1,7;
 99/5=1,9=1/99;
 Leave Link    1 at Fri Nov  5 15:23:38 2021, MaxMem= 16106127360 cpu:               1.5 elap:               0.1
 (Enter /sw/contrib/gaussian/g16/B01/g16/l101.exe)
 -----
 title
 -----
 Symbolic Z-matrix:
 Charge = -1 Multiplicity = 1
 O
 X                    1     10. 
 Cl                   1    r1       2     90. 
 Cl                   1    r2       2     90.      3    a1       0
 H                    1    r3       2    oop      3    a1       0
       Variables:
  r1                    1.697                    
  r2                    2.93101                  
  r3                    0.96862                  
  a1                  102.4843                   
  OOP                  85.                       
 
 ITRead=  0  0  0  0
 MicOpt= -1 -1 -1 -1
 NAtoms=      4 NQM=        4 NQMF=       0 NMMI=      0 NMMIF=      0
                NMic=       0 NMicF=      0.
                    Isotopes and Nuclear Properties:
 (Nuclear quadrupole moments (NQMom) in fm**2, nuclear magnetic moments (NMagM)
  in nuclear magnetons)

  Atom         1           2           3           4
 IAtWgt=          16          35          35           1
 AtmWgt=  15.9949146  34.9688527  34.9688527   1.0078250
 NucSpn=           0           3           3           1
 AtZEff=  -0.0000000  -0.0000000  -0.0000000  -0.0000000
 NQMom=    0.0000000  -8.1650000  -8.1650000   0.0000000
 NMagM=    0.0000000   0.8218740   0.8218740   2.7928460
 AtZNuc=   8.0000000  17.0000000  17.0000000   1.0000000
 Leave Link  101 at Fri Nov  5 15:23:38 2021, MaxMem= 16106127360 cpu:               2.3 elap:               0.1
 (Enter /sw/contrib/gaussian/g16/B01/g16/l202.exe)
                          Input orientation:                          
 ---------------------------------------------------------------------
 Center     Atomic      Atomic             Coordinates (Angstroms)
 Number     Number       Type             X           Y           Z
 ---------------------------------------------------------------------
      1          8           0        0.000000    0.000000    0.000000
      2         17           0        1.697002    0.000000    0.000000
      3         17           0       -0.633602   -2.861706    0.000000
      4          1           0       -0.208593   -0.942122    0.084421
 ---------------------------------------------------------------------
                    Distance matrix (angstroms):
                    1          2          3          4
     1  O    0.000000
     2  Cl   1.697002   0.000000
     3  Cl   2.931009   3.690674   0.000000
     4  H    0.968623   2.127442   1.967883   0.000000
 Symmetry turned off by external request.
 Stoichiometry    Cl2HO(1-)
 Framework group  C1[X(Cl2HO)]
 Deg. of freedom     6
 Full point group                 C1      NOp   1
 Rotational constants (GHZ):          22.7811529           2.0479131           1.8790975
 Leave Link  202 at Fri Nov  5 15:23:38 2021, MaxMem= 16106127360 cpu:               0.2 elap:               0.0
 (Enter /sw/contrib/gaussian/g16/B01/g16/l301.exe)
 Standard basis: Aug-CC-pVTZ (5D, 7F)
 Ernie: Thresh=  0.10000D-02 Tol=  0.10000D-05 Strict=F.
 Ernie:  29 primitive shells out of 169 were deleted.
   169 basis functions,   327 primitive gaussians,   198 cartesian basis functions
    22 alpha electrons       22 beta electrons
       nuclear repulsion energy       121.5710109827 Hartrees.
 IExCor=    0 DFT=F Ex=HF Corr=None ExCW=0 ScaHFX=  1.000000
 ScaDFX=  1.000000  1.000000  1.000000  1.000000 ScalE2=  1.000000  1.000000
 IRadAn=      5 IRanWt=     -1 IRanGd=            0 ICorTp=0 IEmpDi=  4
 NAtoms=    4 NActive=    4 NUniq=    4 SFac= 1.00D+00 NAtFMM=   60 NAOKFM=F Big=F
 Integral buffers will be    131072 words long.
 Raffenetti 1 integral format.
 Two-electron integral symmetry is turned off.
 Leave Link  301 at Fri Nov  5 15:23:38 2021, MaxMem= 16106127360 cpu:               1.6 elap:               0.1
 (Enter /sw/contrib/gaussian/g16/B01/g16/l302.exe)
 NPDir=0 NMtPBC=     1 NCelOv=     1 NCel=       1 NClECP=     1 NCelD=      1
         NCelK=      1 NCelE2=     1 NClLst=     1 CellRange=     0.0.
 One-electron integrals computed using PRISM.
 NBasis=   169 RedAO= T EigKep=  2.23D-04  NBF=   169
 NBsUse=   169 1.00D-06 EigRej= -1.00D+00 NBFU=   169
 Leave Link  302 at Fri Nov  5 15:23:39 2021, MaxMem= 16106127360 cpu:               4.4 elap:               0.2
 (Enter /sw/contrib/gaussian/g16/B01/g16/l303.exe)
 DipDrv:  MaxL=1.
 Leave Link  303 at Fri Nov  5 15:23:39 2021, MaxMem= 16106127360 cpu:               0.8 elap:               0.1
 (Enter /sw/contrib/gaussian/g16/B01/g16/l401.exe)
 ExpMin= 2.53D-02 ExpMax= 4.56D+05 ExpMxC= 1.44D+03 IAcc=3 IRadAn=         5 AccDes= 0.00D+00
 Harris functional with IExCor=  205 and IRadAn=       5 diagonalized for initial guess.
 HarFok:  IExCor=  205 AccDes= 0.00D+00 IRadAn=         5 IDoV= 1 UseB2=F ITyADJ=14
 ICtDFT=  3500011 ScaDFX=  1.000000  1.000000  1.000000  1.000000
 FoFCou: FMM=F IPFlag=           0 FMFlag=      100000 FMFlg1=           0
         NFxFlg=           0 DoJE=T BraDBF=F KetDBF=T FulRan=T
         wScrn=  0.000000 ICntrl=       500 IOpCl=  0 I1Cent=   200000004 NGrid=           0
         NMat0=    1 NMatS0=      1 NMatT0=    0 NMatD0=    1 NMtDS0=    0 NMtDT0=    0
 Symmetry not used in FoFCou.
 Harris En= -993.822399531608    
 JPrj=0 DoOrth=F DoCkMO=F.
 Leave Link  401 at Fri Nov  5 15:23:39 2021, MaxMem= 16106127360 cpu:              11.3 elap:               0.5
 (Enter /sw/contrib/gaussian/g16/B01/g16/l502.exe)
 Keep R1 ints in memory in canonical form, NReq=117119129.
 FoFCou: FMM=F IPFlag=           0 FMFlag=           0 FMFlg1=           0
         NFxFlg=           0 DoJE=F BraDBF=F KetDBF=F FulRan=T
         wScrn=  0.000000 ICntrl=       600 IOpCl=  0 I1Cent=           0 NGrid=           0
         NMat0=    1 NMatS0=  14365 NMatT0=    0 NMatD0=    1 NMtDS0=    0 NMtDT0=    0
 Symmetry not used in FoFCou.
 Two-electron integral symmetry not used.
 Closed shell SCF:
 Using DIIS extrapolation, IDIIS=  1040.
 NGot= 16106127360 LenX= 16002858349 LenY= 16002818704
 Requested convergence on RMS density matrix=1.00D-08 within 128 cycles.
 Requested convergence on MAX density matrix=1.00D-06.
 Requested convergence on             energy=1.00D-06.
 No special actions if energy rises.

 Cycle   1  Pass 1  IDiag  1:
 E= -994.391569246764    
 DIIS: error= 3.57D-02 at cycle   1 NSaved=   1.
 NSaved= 1 IEnMin= 1 EnMin= -994.391569246764     IErMin= 1 ErrMin= 3.57D-02
 ErrMax= 3.57D-02  0.00D+00 EMaxC= 1.00D-01 BMatC= 4.30D-01 BMatP= 4.30D-01
 IDIUse=3 WtCom= 6.43D-01 WtEn= 3.57D-01
 Coeff-Com:  0.100D+01
 Coeff-En:   0.100D+01
 Coeff:      0.100D+01
 Gap=     0.561 Goal=   None    Shift=    0.000
 GapD=    0.561 DampG=2.000 DampE=0.500 DampFc=1.0000 IDamp=-1.
 RMSDP=2.20D-03 MaxDP=7.12D-02              OVMax= 1.27D-01

 Cycle   2  Pass 1  IDiag  1:
 E= -994.487149594652     Delta-E=       -0.095580347888 Rises=F Damp=F
 DIIS: error= 1.93D-02 at cycle   2 NSaved=   2.
 NSaved= 2 IEnMin= 2 EnMin= -994.487149594652     IErMin= 2 ErrMin= 1.93D-02
 ErrMax= 1.93D-02  0.00D+00 EMaxC= 1.00D-01 BMatC= 5.35D-02 BMatP= 4.30D-01
 IDIUse=3 WtCom= 8.07D-01 WtEn= 1.93D-01
 Coeff-Com:  0.176D+00 0.824D+00
 Coeff-En:   0.000D+00 0.100D+01
 Coeff:      0.142D+00 0.858D+00
 Gap=     0.375 Goal=   None    Shift=    0.000
 RMSDP=1.01D-03 MaxDP=4.03D-02 DE=-9.56D-02 OVMax= 8.35D-02

 Cycle   3  Pass 1  IDiag  1:
 E= -994.514190584344     Delta-E=       -0.027040989692 Rises=F Damp=F
 DIIS: error= 8.23D-03 at cycle   3 NSaved=   3.
 NSaved= 3 IEnMin= 3 EnMin= -994.514190584344     IErMin= 3 ErrMin= 8.23D-03
 ErrMax= 8.23D-03  0.00D+00 EMaxC= 1.00D-01 BMatC= 1.48D-02 BMatP= 5.35D-02
 IDIUse=3 WtCom= 9.18D-01 WtEn= 8.23D-02
 Coeff-Com: -0.157D-01 0.334D+00 0.681D+00
 Coeff-En:   0.000D+00 0.118D+00 0.882D+00
 Coeff:     -0.144D-01 0.316D+00 0.698D+00
 Gap=     0.356 Goal=   None    Shift=    0.000
 RMSDP=3.67D-04 MaxDP=1.49D-02 DE=-2.70D-02 OVMax= 3.78D-02

 Cycle   4  Pass 1  IDiag  1:
 E= -994.524330524269     Delta-E=       -0.010139939925 Rises=F Damp=F
 DIIS: error= 1.23D-03 at cycle   4 NSaved=   4.
 NSaved= 4 IEnMin= 4 EnMin= -994.524330524269     IErMin= 4 ErrMin= 1.23D-03
 ErrMax= 1.23D-03  0.00D+00 EMaxC= 1.00D-01 BMatC= 1.80D-04 BMatP= 1.48D-02
 IDIUse=3 WtCom= 9.88D-01 WtEn= 1.23D-02
 Coeff-Com: -0.402D-02 0.165D-01 0.102D+00 0.886D+00
 Coeff-En:   0.000D+00 0.000D+00 0.000D+00 0.100D+01
 Coeff:     -0.397D-02 0.163D-01 0.101D+00 0.887D+00
 Gap=     0.349 Goal=   None    Shift=    0.000
 RMSDP=5.78D-05 MaxDP=1.46D-03 DE=-1.01D-02 OVMax= 3.13D-03

 Cycle   5  Pass 1  IDiag  1:
 E= -994.524525323716     Delta-E=       -0.000194799446 Rises=F Damp=F
 DIIS: error= 2.85D-04 at cycle   5 NSaved=   5.
 NSaved= 5 IEnMin= 5 EnMin= -994.524525323716     IErMin= 5 ErrMin= 2.85D-04
 ErrMax= 2.85D-04  0.00D+00 EMaxC= 1.00D-01 BMatC= 1.73D-05 BMatP= 1.80D-04
 IDIUse=3 WtCom= 9.97D-01 WtEn= 2.85D-03
 Coeff-Com:  0.108D-02-0.398D-01-0.712D-01 0.155D-01 0.109D+01
 Coeff-En:   0.000D+00 0.000D+00 0.000D+00 0.000D+00 0.100D+01
 Coeff:      0.108D-02-0.396D-01-0.710D-01 0.155D-01 0.109D+01
 Gap=     0.351 Goal=   None    Shift=    0.000
 RMSDP=3.36D-05 MaxDP=1.23D-03 DE=-1.95D-04 OVMax= 3.30D-03

 Cycle   6  Pass 1  IDiag  1:
 E= -994.524569397799     Delta-E=       -0.000044074083 Rises=F Damp=F
 DIIS: error= 1.31D-04 at cycle   6 NSaved=   6.
 NSaved= 6 IEnMin= 6 EnMin= -994.524569397799     IErMin= 6 ErrMin= 1.31D-04
 ErrMax= 1.31D-04  0.00D+00 EMaxC= 1.00D-01 BMatC= 2.34D-06 BMatP= 1.73D-05
 IDIUse=3 WtCom= 9.99D-01 WtEn= 1.31D-03
 Coeff-Com:  0.240D-03 0.908D-02 0.168D-01-0.816D-01-0.419D+00 0.147D+01
 Coeff-En:   0.000D+00 0.000D+00 0.000D+00 0.000D+00 0.000D+00 0.100D+01
 Coeff:      0.239D-03 0.907D-02 0.168D-01-0.815D-01-0.419D+00 0.147D+01
 Gap=     0.351 Goal=   None    Shift=    0.000
 RMSDP=1.78D-05 MaxDP=6.42D-04 DE=-4.41D-05 OVMax= 1.77D-03

 Cycle   7  Pass 1  IDiag  1:
 E= -994.524577838688     Delta-E=       -0.000008440889 Rises=F Damp=F
 DIIS: error= 4.22D-05 at cycle   7 NSaved=   7.
 NSaved= 7 IEnMin= 7 EnMin= -994.524577838688     IErMin= 7 ErrMin= 4.22D-05
 ErrMax= 4.22D-05  0.00D+00 EMaxC= 1.00D-01 BMatC= 1.41D-07 BMatP= 2.34D-06
 IDIUse=1 WtCom= 1.00D+00 WtEn= 0.00D+00
 Coeff-Com: -0.173D-03-0.955D-03-0.111D-02 0.310D-01 0.893D-01-0.608D+00
 Coeff-Com:  0.149D+01
 Coeff:     -0.173D-03-0.955D-03-0.111D-02 0.310D-01 0.893D-01-0.608D+00
 Coeff:      0.149D+01
 Gap=     0.351 Goal=   None    Shift=    0.000
 RMSDP=5.45D-06 MaxDP=1.76D-04 DE=-8.44D-06 OVMax= 5.28D-04

 Cycle   8  Pass 1  IDiag  1:
 E= -994.524578494637     Delta-E=       -0.000000655949 Rises=F Damp=F
 DIIS: error= 8.06D-06 at cycle   8 NSaved=   8.
 NSaved= 8 IEnMin= 8 EnMin= -994.524578494637     IErMin= 8 ErrMin= 8.06D-06
 ErrMax= 8.06D-06  0.00D+00 EMaxC= 1.00D-01 BMatC= 1.01D-08 BMatP= 1.41D-07
 IDIUse=1 WtCom= 1.00D+00 WtEn= 0.00D+00
 Coeff-Com:  0.174D-04-0.619D-03-0.971D-03 0.280D-03 0.134D-01 0.216D-02
 Coeff-Com: -0.246D+00 0.123D+01
 Coeff:      0.174D-04-0.619D-03-0.971D-03 0.280D-03 0.134D-01 0.216D-02
 Coeff:     -0.246D+00 0.123D+01
 Gap=     0.351 Goal=   None    Shift=    0.000
 RMSDP=1.27D-06 MaxDP=2.89D-05 DE=-6.56D-07 OVMax= 1.48D-04

 Cycle   9  Pass 1  IDiag  1:
 E= -994.524578534522     Delta-E=       -0.000000039885 Rises=F Damp=F
 DIIS: error= 3.85D-06 at cycle   9 NSaved=   9.
 NSaved= 9 IEnMin= 9 EnMin= -994.524578534522     IErMin= 9 ErrMin= 3.85D-06
 ErrMax= 3.85D-06  0.00D+00 EMaxC= 1.00D-01 BMatC= 1.42D-09 BMatP= 1.01D-08
 IDIUse=1 WtCom= 1.00D+00 WtEn= 0.00D+00
 Coeff-Com:  0.152D-04 0.259D-03 0.395D-03-0.368D-02-0.145D-01 0.740D-01
 Coeff-Com: -0.114D+00-0.332D+00 0.139D+01
 Coeff:      0.152D-04 0.259D-03 0.395D-03-0.368D-02-0.145D-01 0.740D-01
 Coeff:     -0.114D+00-0.332D+00 0.139D+01
 Gap=     0.351 Goal=   None    Shift=    0.000
 RMSDP=6.12D-07 MaxDP=1.62D-05 DE=-3.99D-08 OVMax= 7.44D-05

 Cycle  10  Pass 1  IDiag  1:
 E= -994.524578542031     Delta-E=       -0.000000007509 Rises=F Damp=F
 DIIS: error= 1.76D-06 at cycle  10 NSaved=  10.
 NSaved=10 IEnMin=10 EnMin= -994.524578542031     IErMin=10 ErrMin= 1.76D-06
 ErrMax= 1.76D-06  0.00D+00 EMaxC= 1.00D-01 BMatC= 2.15D-10 BMatP= 1.42D-09
 IDIUse=1 WtCom= 1.00D+00 WtEn= 0.00D+00
 Coeff-Com: -0.330D-05 0.291D-04-0.212D-05 0.731D-03 0.145D-02-0.154D-01
 Coeff-Com:  0.592D-01-0.153D+00-0.172D+00 0.128D+01
 Coeff:     -0.330D-05 0.291D-04-0.212D-05 0.731D-03 0.145D-02-0.154D-01
 Coeff:      0.592D-01-0.153D+00-0.172D+00 0.128D+01
 Gap=     0.351 Goal=   None    Shift=    0.000
 RMSDP=2.45D-07 MaxDP=7.01D-06 DE=-7.51D-09 OVMax= 2.92D-05

 Cycle  11  Pass 1  IDiag  1:
 E= -994.524578543056     Delta-E=       -0.000000001025 Rises=F Damp=F
 DIIS: error= 5.09D-07 at cycle  11 NSaved=  11.
 NSaved=11 IEnMin=11 EnMin= -994.524578543056     IErMin=11 ErrMin= 5.09D-07
 ErrMax= 5.09D-07  0.00D+00 EMaxC= 1.00D-01 BMatC= 1.54D-11 BMatP= 2.15D-10
 IDIUse=1 WtCom= 1.00D+00 WtEn= 0.00D+00
 Coeff-Com: -0.272D-05-0.213D-04-0.223D-04 0.423D-03 0.131D-02-0.750D-02
 Coeff-Com:  0.106D-01 0.453D-01-0.129D+00-0.180D+00 0.126D+01
 Coeff:     -0.272D-05-0.213D-04-0.223D-04 0.423D-03 0.131D-02-0.750D-02
 Coeff:      0.106D-01 0.453D-01-0.129D+00-0.180D+00 0.126D+01
 Gap=     0.351 Goal=   None    Shift=    0.000
 RMSDP=7.13D-08 MaxDP=2.12D-06 DE=-1.03D-09 OVMax= 7.98D-06

 Cycle  12  Pass 1  IDiag  1:
 E= -994.524578543131     Delta-E=       -0.000000000075 Rises=F Damp=F
 DIIS: error= 9.65D-08 at cycle  12 NSaved=  12.
 NSaved=12 IEnMin=12 EnMin= -994.524578543131     IErMin=12 ErrMin= 9.65D-08
 ErrMax= 9.65D-08  0.00D+00 EMaxC= 1.00D-01 BMatC= 7.14D-13 BMatP= 1.54D-11
 IDIUse=1 WtCom= 1.00D+00 WtEn= 0.00D+00
 Coeff-Com:  0.703D-06 0.897D-07 0.298D-07-0.102D-03-0.249D-03 0.187D-02
 Coeff-Com: -0.457D-02 0.121D-03 0.309D-01-0.416D-01-0.188D+00 0.120D+01
 Coeff:      0.703D-06 0.897D-07 0.298D-07-0.102D-03-0.249D-03 0.187D-02
 Coeff:     -0.457D-02 0.121D-03 0.309D-01-0.416D-01-0.188D+00 0.120D+01
 Gap=     0.351 Goal=   None    Shift=    0.000
 RMSDP=1.28D-08 MaxDP=3.05D-07 DE=-7.46D-11 OVMax= 1.08D-06

 Cycle  13  Pass 1  IDiag  1:
 E= -994.524578543137     Delta-E=       -0.000000000007 Rises=F Damp=F
 DIIS: error= 2.27D-08 at cycle  13 NSaved=  13.
 NSaved=13 IEnMin=13 EnMin= -994.524578543137     IErMin=13 ErrMin= 2.27D-08
 ErrMax= 2.27D-08  0.00D+00 EMaxC= 1.00D-01 BMatC= 7.39D-14 BMatP= 7.14D-13
 IDIUse=1 WtCom= 1.00D+00 WtEn= 0.00D+00
 Coeff-Com:  0.159D-06 0.187D-05 0.173D-05-0.263D-04-0.916D-04 0.489D-03
 Coeff-Com: -0.543D-03-0.397D-02 0.969D-02 0.165D-01-0.103D+00-0.457D-01
 Coeff-Com:  0.113D+01
 Coeff:      0.159D-06 0.187D-05 0.173D-05-0.263D-04-0.916D-04 0.489D-03
 Coeff:     -0.543D-03-0.397D-02 0.969D-02 0.165D-01-0.103D+00-0.457D-01
 Coeff:      0.113D+01
 Gap=     0.351 Goal=   None    Shift=    0.000
 RMSDP=3.60D-09 MaxDP=9.00D-08 DE=-6.59D-12 OVMax= 3.24D-07

 SCF Done:  E(RHF) =  -994.524578543     A.U. after   13 cycles
            NFock= 13  Conv=0.36D-08     -V/T= 2.0001
 KE= 9.944156573894D+02 PE=-2.620845460559D+03 EE= 5.103342136442D+02
 Leave Link  502 at Fri Nov  5 15:23:42 2021, MaxMem= 16106127360 cpu:              23.3 elap:               3.1
 (Enter /sw/contrib/gaussian/g16/B01/g16/l801.exe)
 ExpMin= 2.53D-02 ExpMax= 4.56D+05 ExpMxC= 1.44D+03 IAcc=3 IRadAn=         5 AccDes= 0.00D+00
 HarFok:  IExCor=  205 AccDes= 0.00D+00 IRadAn=         5 IDoV=-2 UseB2=F ITyADJ=14
 ICtDFT= 12500011 ScaDFX=  1.000000  1.000000  1.000000  1.000000
 Largest valence mixing into a core orbital is  4.48D-04
 Largest core mixing into a valence orbital is  1.73D-04
 Range of M.O.s used for correlation:    12   169
 NBasis=   169 NAE=    22 NBE=    22 NFC=    11 NFV=     0
 NROrb=    158 NOA=    11 NOB=    11 NVA=   147 NVB=   147

 **** Warning!!: The largest alpha MO coefficient is  0.20492642D+02

 Leave Link  801 at Fri Nov  5 15:23:42 2021, MaxMem= 16106127360 cpu:               2.3 elap:               0.1
 (Enter /sw/contrib/gaussian/g16/B01/g16/l906.exe)
 Frozen-core derivative calculation, NFC=  11 NFV=   0.
 FulOut=F Deriv=T AODrv=F NAtomX=     4
   MMem=         144  MDisk=          11 MDiskD=          11
  W3Min=      736164 MinDsk=     1250177 NBas6D=         198
 NBas2D=       20187    NTT=       19701    LW2=     3500000
    MDV= 16105751326 MDiskM=      406660 NBas2p=       19980
 Fully in-core method, ICMem=   420417501.
 IMap=   1   2   3   4   5   6   7   8   9  10  11  12  13  14  15  16  17  18  19  20
 IMap=  21  22
 JobTyp=1 Pass  1 fully in-core, NPsUse= 28.
 Compute canonical integrals.
 FoFCou: FMM=F IPFlag=           0 FMFlag=           0 FMFlg1=           0
         NFxFlg=           0 DoJE=F BraDBF=F KetDBF=F FulRan=T
         wScrn=  0.000000 ICntrl=       600 IOpCl=  1 I1Cent=           0 NGrid=           0
         NMat0=    1 NMatS0=  20187 NMatT0=    0 NMatD0=    1 NMtDS0=    0 NMtDT0=    0
 Symmetry not used in FoFCou.
 Spin components of T(2) and E(2):
     alpha-alpha T2 =       0.2907924397D-01 E2=     -0.8377262939D-01
     alpha-beta  T2 =       0.1588819479D+00 E2=     -0.4975882956D+00
     beta-beta   T2 =       0.2907924397D-01 E2=     -0.8377262939D-01
 The integrals were generated   1 times.
 ANorm=    0.1103195556D+01
 E2 =    -0.6651335544D+00 EUMP2 =    -0.99518971209751D+03
 Leave Link  906 at Fri Nov  5 15:23:47 2021, MaxMem= 16106127360 cpu:             141.6 elap:               5.1
 (Enter /sw/contrib/gaussian/g16/B01/g16/l1002.exe)
 Minotr:  Closed shell wavefunction.
          Computing MP2/KS-MP2 derivatives.
          Using Z-Vector for PSCF gradient.
          Skipping F1 and S1 gradient terms here.
          Frozen-core window.
          Direct CPHF calculation.
          Differentiating once with respect to electric field.
                with respect to dipole field.
          Electric field/nuclear overlap derivatives assumed to be zero.
          Requested convergence is 1.0D-10 RMS, and 1.0D-09 maximum.
          NewPWx=F KeepS1=T KeepF1=T KeepIn=T MapXYZ=F SortEE=F KeepMc=T.
 Keep R1 ints in memory in canonical form, NReq=117123285.
 FoFCou: FMM=F IPFlag=           0 FMFlag=           0 FMFlg1=           0
         NFxFlg=           0 DoJE=F BraDBF=F KetDBF=F FulRan=T
         wScrn=  0.000000 ICntrl=       600 IOpCl=  0 I1Cent=           0 NGrid=           0
         NMat0=    1 NMatS0=  14365 NMatT0=    0 NMatD0=    1 NMtDS0=    0 NMtDT0=    0
 Symmetry not used in FoFCou.
 Two-electron integral symmetry not used.
          MDV=   16106127360 using IRadAn=       5.
          Solving linear equations separately, MaxMat=       0.
          There are     1 degrees of freedom in the 1st order CPHF.  IDoFFX=0 NUNeed=     1.
 LinEq1:  Iter=  0 NonCon=     1 RMS=3.04D-03 Max=4.36D-02 NDo=     1
 AX will form     1 AO Fock derivatives at one time.
 LinEq1:  Iter=  1 NonCon=     1 RMS=3.82D-04 Max=5.18D-03 NDo=     1
 LinEq1:  Iter=  2 NonCon=     1 RMS=1.68D-04 Max=3.74D-03 NDo=     1
 LinEq1:  Iter=  3 NonCon=     1 RMS=6.50D-05 Max=1.05D-03 NDo=     1
 LinEq1:  Iter=  4 NonCon=     1 RMS=2.63D-05 Max=6.68D-04 NDo=     1
 LinEq1:  Iter=  5 NonCon=     1 RMS=5.74D-06 Max=7.22D-05 NDo=     1
 LinEq1:  Iter=  6 NonCon=     1 RMS=1.55D-06 Max=1.71D-05 NDo=     1
 LinEq1:  Iter=  7 NonCon=     1 RMS=3.81D-07 Max=8.73D-06 NDo=     1
 LinEq1:  Iter=  8 NonCon=     1 RMS=9.34D-08 Max=2.32D-06 NDo=     1
 LinEq1:  Iter=  9 NonCon=     1 RMS=2.29D-08 Max=3.44D-07 NDo=     1
 LinEq1:  Iter= 10 NonCon=     1 RMS=5.84D-09 Max=5.02D-08 NDo=     1
 LinEq1:  Iter= 11 NonCon=     1 RMS=1.59D-09 Max=2.35D-08 NDo=     1
 LinEq1:  Iter= 12 NonCon=     1 RMS=3.09D-10 Max=4.48D-09 NDo=     1
 LinEq1:  Iter= 13 NonCon=     1 RMS=6.38D-11 Max=1.07D-09 NDo=     1
 LinEq1:  Iter= 14 NonCon=     0 RMS=1.86D-11 Max=2.56D-10 NDo=     1
 Linear equations converged to 1.000D-10 1.000D-09 after    14 iterations.
 End of Minotr F.D. properties file   721 does not exist.
 End of Minotr F.D. properties file   722 does not exist.
 End of Minotr F.D. properties file   788 does not exist.
 Leave Link 1002 at Fri Nov  5 15:23:51 2021, MaxMem= 16106127360 cpu:              29.4 elap:               3.7
 (Enter /sw/contrib/gaussian/g16/B01/g16/l601.exe)
 Copying SCF densities to generalized density rwf, IOpCl= 0 IROHF=0.

 **********************************************************************

            Population analysis using the MP2 Density.

 **********************************************************************

 Alpha  occ. eigenvalues -- -104.72914-104.54295 -20.45732 -10.44854 -10.26773
 Alpha  occ. eigenvalues --   -7.91567  -7.91306  -7.91297  -7.73388  -7.73375
 Alpha  occ. eigenvalues --   -7.73374  -1.23070  -0.89722  -0.78138  -0.54465
 Alpha  occ. eigenvalues --   -0.43853  -0.42962  -0.30790  -0.28048  -0.19957
 Alpha  occ. eigenvalues --   -0.19098  -0.19091
 Alpha virt. eigenvalues --    0.16023   0.18387   0.22556   0.23412   0.25958
 Alpha virt. eigenvalues --    0.27408   0.27665   0.28728   0.30876   0.32205
 Alpha virt. eigenvalues --    0.33541   0.34953   0.38978   0.44547   0.46114
 Alpha virt. eigenvalues --    0.51499   0.52293   0.53878   0.56284   0.57282
 Alpha virt. eigenvalues --    0.59188   0.60021   0.60120   0.65246   0.66064
 Alpha virt. eigenvalues --    0.68175   0.68426   0.74612   0.78280   0.79147
 Alpha virt. eigenvalues --    0.83280   0.87669   0.89032   0.89894   0.90647
 Alpha virt. eigenvalues --    0.92304   0.96249   0.99789   1.04790   1.05647
 Alpha virt. eigenvalues --    1.07792   1.08916   1.09390   1.10115   1.14153
 Alpha virt. eigenvalues --    1.14525   1.16920   1.18794   1.19131   1.20746
 Alpha virt. eigenvalues --    1.22271   1.24168   1.28727   1.31493   1.32243
 Alpha virt. eigenvalues --    1.37139   1.40498   1.42954   1.43389   1.46039
 Alpha virt. eigenvalues --    1.48366   1.49641   1.55020   1.60560   1.64325
 Alpha virt. eigenvalues --    1.67282   1.68656   1.71194   1.72969   1.78335
 Alpha virt. eigenvalues --    1.82614   1.83198   1.84623   1.90559   1.95133
 Alpha virt. eigenvalues --    1.99529   2.27457   2.38851   2.50863   2.52689
 Alpha virt. eigenvalues --    2.53681   2.57680   2.59347   2.62895   2.67869
 Alpha virt. eigenvalues --    2.69466   2.70237   2.72094   2.74126   2.75325
 Alpha virt. eigenvalues --    2.76725   2.78654   2.80383   2.82524   2.90444
 Alpha virt. eigenvalues --    2.92748   2.97375   2.98757   3.06059   3.08865
 Alpha virt. eigenvalues --    3.11266   3.14649   3.19192   3.21976   3.22091
 Alpha virt. eigenvalues --    3.26634   3.29979   3.31994   3.33812   3.34445
 Alpha virt. eigenvalues --    3.39969   3.41356   3.43113   3.49300   3.51879
 Alpha virt. eigenvalues --    3.52876   3.54814   3.58957   3.68339   3.97290
 Alpha virt. eigenvalues --    4.27662   4.35486   4.48809   4.59230   4.61149
 Alpha virt. eigenvalues --    4.80649   5.01761   5.19990   5.48796   5.54104
 Alpha virt. eigenvalues --    5.75241   6.26561   6.54274   6.64184   6.86982
 Alpha virt. eigenvalues --    6.91242   6.91875   7.01223   7.33994   7.39164
 Alpha virt. eigenvalues --    7.42878   7.46275   7.54808   7.82646   7.84120
 Alpha virt. eigenvalues --    8.44543  15.51590
          Condensed to atoms (all electrons):
               1          2          3          4
     1  O    8.603134  -0.104018  -0.085382   0.047546
     2  Cl  -0.104018  17.053731   0.001402  -0.000678
     3  Cl  -0.085382   0.001402  17.883938   0.066036
     4  H    0.047546  -0.000678   0.066036   0.609386
 Mulliken charges:
               1
     1  O   -0.461280
     2  Cl   0.049563
     3  Cl  -0.865994
     4  H    0.277710
 Sum of Mulliken charges =  -1.00000
 Mulliken charges with hydrogens summed into heavy atoms:
               1
     1  O   -0.183569
     2  Cl   0.049563
     3  Cl  -0.865994
 Electronic spatial extent (au):  <R**2>=            806.5212
 Charge=             -1.0000 electrons
 Dipole moment (field-independent basis, Debye):
    X=              1.5494    Y=             10.0470    Z=              0.0658  Tot=             10.1660
 Quadrupole moment (field-independent basis, Debye-Ang):
   XX=            -38.5385   YY=            -68.4367   ZZ=            -36.6887
   XY=             -7.4381   XZ=             -0.0390   YZ=             -0.0409
 Traceless Quadrupole moment (field-independent basis, Debye-Ang):
   XX=              9.3495   YY=            -20.5487   ZZ=             11.1993
   XY=             -7.4381   XZ=             -0.0390   YZ=             -0.0409
 Octapole moment (field-independent basis, Debye-Ang**2):
  XXX=            -32.5487  YYY=            235.8963  ZZZ=             -0.2980  XYY=              8.4211
  XXY=             52.0278  XXZ=             -0.1683  XZZ=            -12.5177  YZZ=             47.8073
  YYZ=             -0.4027  XYZ=             -0.0721
 Hexadecapole moment (field-independent basis, Debye-Ang**3):
 XXXX=           -301.2168 YYYY=          -1123.7194 ZZZZ=            -50.0039 XXXY=            -94.7749
 XXXZ=             -0.0738 YYYX=           -149.1789 YYYZ=              1.5992 ZZZX=              0.0386
 ZZZY=              0.3884 XXYY=           -211.9204 XXZZ=            -63.4180 YYZZ=           -152.9175
 XXYZ=              0.1568 YYXZ=              0.2828 ZZXY=            -30.5260
 N-N= 1.215710109827D+02 E-N=-2.620904943282D+03  KE= 9.950693531190D+02
 No NMR shielding tensors so no spin-rotation constants.
 Leave Link  601 at Fri Nov  5 15:23:51 2021, MaxMem= 16106127360 cpu:               4.3 elap:               0.2
 (Enter /sw/contrib/gaussian/g16/B01/g16/l607.exe)
 ******************************Gaussian NBO Version 3.1******************************
             N A T U R A L   A T O M I C   O R B I T A L   A N D
          N A T U R A L   B O N D   O R B I T A L   A N A L Y S I S
 ******************************Gaussian NBO Version 3.1******************************
       /RESON  / : Allow strongly delocalized NBO set

 Analyzing the MP2 density

 Job title: title                                                           

 Storage needed:     86521 in NPA,    114817 in NBO (********** available)
 GSVD:  LWork=        1191 too small for GESVD, short by       52514 words or       52514 for optimal perf.


 NATURAL POPULATIONS:  Natural atomic orbital occupancies 
                                                          
   NAO  Atom  No  lang   Type(AO)    Occupancy
 --------------------------------------------
     1    O    1  S      Cor( 1S)     1.99965
     2    O    1  S      Val( 2S)     1.78044
     3    O    1  S      Ryd( 3S)     0.00925
     4    O    1  S      Ryd( 4S)     0.00106
     5    O    1  S      Ryd( 5S)     0.00018
     6    O    1  px     Val( 2p)     1.19946
     7    O    1  px     Ryd( 3p)     0.00637
     8    O    1  px     Ryd( 4p)     0.00062
     9    O    1  px     Ryd( 5p)     0.00035
    10    O    1  py     Val( 2p)     1.70838
    11    O    1  py     Ryd( 3p)     0.01206
    12    O    1  py     Ryd( 4p)     0.00078
    13    O    1  py     Ryd( 5p)     0.00039
    14    O    1  pz     Val( 2p)     1.94621
    15    O    1  pz     Ryd( 3p)     0.01980
    16    O    1  pz     Ryd( 4p)     0.00068
    17    O    1  pz     Ryd( 5p)     0.00013
    18    O    1  dxy    Ryd( 3d)     0.00858
    19    O    1  dxy    Ryd( 4d)     0.00045
    20    O    1  dxy    Ryd( 5d)     0.00014
    21    O    1  dxz    Ryd( 3d)     0.00855
    22    O    1  dxz    Ryd( 4d)     0.00056
    23    O    1  dxz    Ryd( 5d)     0.00009
    24    O    1  dyz    Ryd( 3d)     0.00776
    25    O    1  dyz    Ryd( 4d)     0.00059
    26    O    1  dyz    Ryd( 5d)     0.00038
    27    O    1  dx2y2  Ryd( 3d)     0.01338
    28    O    1  dx2y2  Ryd( 4d)     0.00034
    29    O    1  dx2y2  Ryd( 5d)     0.00017
    30    O    1  dz2    Ryd( 3d)     0.00968
    31    O    1  dz2    Ryd( 4d)     0.00054
    32    O    1  dz2    Ryd( 5d)     0.00014
    33    O    1  f(0)   Ryd( 4f)     0.00070
    34    O    1  f(0)   Ryd( 5f)     0.00010
    35    O    1  f(C1)  Ryd( 4f)     0.00067
    36    O    1  f(C1)  Ryd( 5f)     0.00011
    37    O    1  f(S1)  Ryd( 4f)     0.00057
    38    O    1  f(S1)  Ryd( 5f)     0.00011
    39    O    1  f(C2)  Ryd( 4f)     0.00058
    40    O    1  f(C2)  Ryd( 5f)     0.00012
    41    O    1  f(S2)  Ryd( 4f)     0.00053
    42    O    1  f(S2)  Ryd( 5f)     0.00012
    43    O    1  f(C3)  Ryd( 4f)     0.00057
    44    O    1  f(C3)  Ryd( 5f)     0.00014
    45    O    1  f(S3)  Ryd( 4f)     0.00053
    46    O    1  f(S3)  Ryd( 5f)     0.00014

    47   Cl    2  S      Cor( 1S)     2.00000
    48   Cl    2  S      Cor( 2S)     1.99981
    49   Cl    2  S      Val( 3S)     1.88587
    50   Cl    2  S      Ryd( 4S)     0.00793
    51   Cl    2  S      Ryd( 5S)     0.00054
    52   Cl    2  S      Ryd( 6S)     0.00015
    53   Cl    2  px     Cor( 2p)     1.99997
    54   Cl    2  px     Val( 3p)     0.91063
    55   Cl    2  px     Ryd( 4p)     0.00642
    56   Cl    2  px     Ryd( 5p)     0.00052
    57   Cl    2  px     Ryd( 6p)     0.00020
    58   Cl    2  py     Cor( 2p)     2.00003
    59   Cl    2  py     Val( 3p)     1.95358
    60   Cl    2  py     Ryd( 4p)     0.00978
    61   Cl    2  py     Ryd( 5p)     0.00051
    62   Cl    2  py     Ryd( 6p)     0.00008
    63   Cl    2  pz     Cor( 2p)     2.00003
    64   Cl    2  pz     Val( 3p)     1.95457
    65   Cl    2  pz     Ryd( 4p)     0.01051
    66   Cl    2  pz     Ryd( 5p)     0.00067
    67   Cl    2  pz     Ryd( 6p)     0.00003
    68   Cl    2  dxy    Ryd( 3d)     0.01659
    69   Cl    2  dxy    Ryd( 4d)     0.00082
    70   Cl    2  dxy    Ryd( 5d)     0.00033
    71   Cl    2  dxz    Ryd( 3d)     0.02127
    72   Cl    2  dxz    Ryd( 4d)     0.00109
    73   Cl    2  dxz    Ryd( 5d)     0.00036
    74   Cl    2  dyz    Ryd( 3d)     0.01678
    75   Cl    2  dyz    Ryd( 4d)     0.00073
    76   Cl    2  dyz    Ryd( 5d)     0.00019
    77   Cl    2  dx2y2  Ryd( 3d)     0.01835
    78   Cl    2  dx2y2  Ryd( 4d)     0.00047
    79   Cl    2  dx2y2  Ryd( 5d)     0.00016
    80   Cl    2  dz2    Ryd( 3d)     0.01742
    81   Cl    2  dz2    Ryd( 4d)     0.00060
    82   Cl    2  dz2    Ryd( 5d)     0.00016
    83   Cl    2  f(0)   Ryd( 4f)     0.00131
    84   Cl    2  f(0)   Ryd( 5f)     0.00013
    85   Cl    2  f(C1)  Ryd( 4f)     0.00143
    86   Cl    2  f(C1)  Ryd( 5f)     0.00014
    87   Cl    2  f(S1)  Ryd( 4f)     0.00127
    88   Cl    2  f(S1)  Ryd( 5f)     0.00013
    89   Cl    2  f(C2)  Ryd( 4f)     0.00134
    90   Cl    2  f(C2)  Ryd( 5f)     0.00013
    91   Cl    2  f(S2)  Ryd( 4f)     0.00120
    92   Cl    2  f(S2)  Ryd( 5f)     0.00013
    93   Cl    2  f(C3)  Ryd( 4f)     0.00154
    94   Cl    2  f(C3)  Ryd( 5f)     0.00013
    95   Cl    2  f(S3)  Ryd( 4f)     0.00126
    96   Cl    2  f(S3)  Ryd( 5f)     0.00014

    97   Cl    3  S      Cor( 1S)     2.00000
    98   Cl    3  S      Cor( 2S)     1.99998
    99   Cl    3  S      Val( 3S)     1.96810
   100   Cl    3  S      Ryd( 4S)     0.00179
   101   Cl    3  S      Ryd( 5S)     0.00022
   102   Cl    3  S      Ryd( 6S)     0.00010
   103   Cl    3  px     Cor( 2p)     2.00003
   104   Cl    3  px     Val( 3p)     1.94825
   105   Cl    3  px     Ryd( 4p)     0.01250
   106   Cl    3  px     Ryd( 5p)     0.00056
   107   Cl    3  px     Ryd( 6p)     0.00007
   108   Cl    3  py     Cor( 2p)     2.00002
   109   Cl    3  py     Val( 3p)     1.87535
   110   Cl    3  py     Ryd( 4p)     0.01060
   111   Cl    3  py     Ryd( 5p)     0.00053
   112   Cl    3  py     Ryd( 6p)     0.00007
   113   Cl    3  pz     Cor( 2p)     2.00003
   114   Cl    3  pz     Val( 3p)     1.95197
   115   Cl    3  pz     Ryd( 4p)     0.01268
   116   Cl    3  pz     Ryd( 5p)     0.00057
   117   Cl    3  pz     Ryd( 6p)     0.00005
   118   Cl    3  dxy    Ryd( 3d)     0.01853
   119   Cl    3  dxy    Ryd( 4d)     0.00070
   120   Cl    3  dxy    Ryd( 5d)     0.00012
   121   Cl    3  dxz    Ryd( 3d)     0.01828
   122   Cl    3  dxz    Ryd( 4d)     0.00097
   123   Cl    3  dxz    Ryd( 5d)     0.00013
   124   Cl    3  dyz    Ryd( 3d)     0.01860
   125   Cl    3  dyz    Ryd( 4d)     0.00072
   126   Cl    3  dyz    Ryd( 5d)     0.00012
   127   Cl    3  dx2y2  Ryd( 3d)     0.01830
   128   Cl    3  dx2y2  Ryd( 4d)     0.00083
   129   Cl    3  dx2y2  Ryd( 5d)     0.00012
   130   Cl    3  dz2    Ryd( 3d)     0.01826
   131   Cl    3  dz2    Ryd( 4d)     0.00093
   132   Cl    3  dz2    Ryd( 5d)     0.00011
   133   Cl    3  f(0)   Ryd( 4f)     0.00128
   134   Cl    3  f(0)   Ryd( 5f)     0.00015
   135   Cl    3  f(C1)  Ryd( 4f)     0.00129
   136   Cl    3  f(C1)  Ryd( 5f)     0.00014
   137   Cl    3  f(S1)  Ryd( 4f)     0.00129
   138   Cl    3  f(S1)  Ryd( 5f)     0.00017
   139   Cl    3  f(C2)  Ryd( 4f)     0.00128
   140   Cl    3  f(C2)  Ryd( 5f)     0.00016
   141   Cl    3  f(S2)  Ryd( 4f)     0.00129
   142   Cl    3  f(S2)  Ryd( 5f)     0.00015
   143   Cl    3  f(C3)  Ryd( 4f)     0.00127
   144   Cl    3  f(C3)  Ryd( 5f)     0.00016
   145   Cl    3  f(S3)  Ryd( 4f)     0.00127
   146   Cl    3  f(S3)  Ryd( 5f)     0.00017

   147    H    4  S      Val( 1S)     0.49239
   148    H    4  S      Ryd( 2S)     0.00875
   149    H    4  S      Ryd( 3S)     0.00023
   150    H    4  S      Ryd( 4S)     0.00014
   151    H    4  px     Ryd( 2p)     0.00388
   152    H    4  px     Ryd( 3p)     0.00050
   153    H    4  px     Ryd( 4p)     0.00012
   154    H    4  py     Ryd( 2p)     0.00540
   155    H    4  py     Ryd( 3p)     0.00092
   156    H    4  py     Ryd( 4p)     0.00034
   157    H    4  pz     Ryd( 2p)     0.00509
   158    H    4  pz     Ryd( 3p)     0.00039
   159    H    4  pz     Ryd( 4p)     0.00025
   160    H    4  dxy    Ryd( 3d)     0.00025
   161    H    4  dxy    Ryd( 4d)     0.00011
   162    H    4  dxz    Ryd( 3d)     0.00022
   163    H    4  dxz    Ryd( 4d)     0.00007
   164    H    4  dyz    Ryd( 3d)     0.00040
   165    H    4  dyz    Ryd( 4d)     0.00011
   166    H    4  dx2y2  Ryd( 3d)     0.00020
   167    H    4  dx2y2  Ryd( 4d)     0.00012
   168    H    4  dz2    Ryd( 3d)     0.00023
   169    H    4  dz2    Ryd( 4d)     0.00009


 Summary of Natural Population Analysis:                  
                                                          
                                       Natural Population 
                Natural  -----------------------------------------------
    Atom  No    Charge         Core      Valence    Rydberg      Total
 -----------------------------------------------------------------------
      O    1   -0.74215      1.99965     6.63448    0.10801     8.74215
     Cl    2    0.15257      9.99983     6.70466    0.14294    16.84743
     Cl    3   -0.89023     10.00005     7.74367    0.14651    17.89023
      H    4    0.47981      0.00000     0.49239    0.02780     0.52019
 =======================================================================
   * Total *   -1.00000     21.99954    21.57520    0.42526    44.00000

                                 Natural Population      
 --------------------------------------------------------
   Core                      21.99954 ( 99.9979% of  22)
   Valence                   21.57520 ( 98.0691% of  22)
   Natural Minimal Basis     43.57474 ( 99.0335% of  44)
   Natural Rydberg Basis      0.42526 (  0.9665% of  44)
 --------------------------------------------------------

    Atom  No          Natural Electron Configuration
 ----------------------------------------------------------------------------
      O    1      [core]2S( 1.78)2p( 4.85)3S( 0.01)3p( 0.04)3d( 0.05)
     Cl    2      [core]3S( 1.89)3p( 4.82)4S( 0.01)3d( 0.09)4p( 0.03)4f( 0.01)
     Cl    3      [core]3S( 1.97)3p( 5.78)3d( 0.09)4p( 0.04)4f( 0.01)
      H    4            1S( 0.49)2S( 0.01)2p( 0.01)


 NATURAL BOND ORBITAL ANALYSIS:
 Warning:  a bond orbital has occupanc of -0.00000

                       Occupancies       Lewis Structure    Low   High
           Occ.    -------------------  -----------------   occ   occ
  Cycle   Thresh.   Lewis   Non-Lewis     CR  BD  3C  LP    (L)   (NL)   Dev
 =============================================================================
   1(1)    1.90    43.45593   0.54407     11   2   0   9     1      1    0.13
 Warning:  a bond orbital has occupanc of -0.00000
   2(2)    1.90    43.45593   0.54407     11   2   0   9     1      1    0.13
 Warning:  a bond orbital has occupanc of -0.00000
   3(1)    1.80    43.45593   0.54407     11   2   0   9     0      1    0.13
 Warning:  a bond orbital has occupanc of -0.00000
   4(2)    1.80    43.45593   0.54407     11   2   0   9     0      1    0.13
 Warning:  a bond orbital has occupanc of -0.00000
   5(1)    1.70    43.45593   0.54407     11   2   0   9     0      1    0.13
 Warning:  a bond orbital has occupanc of -0.00000
   6(2)    1.70    43.45593   0.54407     11   2   0   9     0      1    0.13
 Warning:  a bond orbital has occupanc of -0.00000
   7(1)    1.60    43.45593   0.54407     11   2   0   9     0      1    0.13
 Warning:  a bond orbital has occupanc of -0.00000
   8(2)    1.60    43.45593   0.54407     11   2   0   9     0      1    0.13
 Warning:  a bond orbital has occupanc of -0.00000
   9(1)    1.50    43.07027   0.92973     11   1   0  10     0      1    0.58
 Warning:  a bond orbital has occupanc of -0.00000
  10(2)    1.50    43.07027   0.92973     11   1   0  10     0      1    0.58
 Warning:  a bond orbital has occupanc of -0.00000
  11(1)    1.90    43.45593   0.54407     11   2   0   9     1      1    0.13
 -----------------------------------------------------------------------------

 Structure accepted: RESONANCE keyword permits strongly delocalized structure

 --------------------------------------------------------
   Core                     21.99954 ( 99.998% of  22)
   Valence Lewis            21.45639 ( 97.529% of  22)
  ==================       ============================
   Total Lewis              43.45593 ( 98.763% of  44)
  -----------------------------------------------------
   Valence non-Lewis         0.16417 (  0.373% of  44)
   Rydberg non-Lewis         0.37990 (  0.863% of  44)
  ==================       ============================
   Total non-Lewis           0.54407 (  1.237% of  44)
 --------------------------------------------------------


       (Occupancy)   Bond orbital/ Coefficients/ Hybrids
 ---------------------------------------------------------------------------------
     1. (1.93872) BD ( 1) O   1 -Cl   2  
                ( 58.58%)   0.7653* O   1 s( 10.01%)p 8.93( 89.46%)d 0.05(  0.51%)
                                                  f 0.00(  0.02%)
                                            0.0003  0.3134 -0.0412 -0.0147 -0.0005
                                            0.9447 -0.0286 -0.0102 -0.0109 -0.0175
                                           -0.0292 -0.0053 -0.0001  0.0048  0.0028
                                            0.0005 -0.0001 -0.0223 -0.0014  0.0028
                                            0.0027  0.0004 -0.0001 -0.0021 -0.0002
                                            0.0003  0.0523  0.0050  0.0025 -0.0421
                                           -0.0038  0.0004 -0.0000 -0.0000 -0.0114
                                            0.0013 -0.0003  0.0002  0.0001 -0.0002
                                           -0.0011  0.0003  0.0056  0.0006 -0.0006
                                            0.0022
                ( 41.42%)   0.6436*Cl   2 s(  8.28%)p10.93( 90.50%)d 0.13(  1.11%)
                                                  f 0.01(  0.11%)
                                           -0.0000  0.0005  0.2821 -0.0559 -0.0106
                                           -0.0019 -0.0004 -0.9490  0.0642  0.0142
                                           -0.0048 -0.0000 -0.0095 -0.0017  0.0024
                                           -0.0007  0.0000  0.0010  0.0000 -0.0003
                                            0.0001  0.0118 -0.0001  0.0008 -0.0019
                                           -0.0002 -0.0001 -0.0009  0.0000  0.0002
                                            0.0878 -0.0105 -0.0003 -0.0556  0.0059
                                            0.0008 -0.0001  0.0000  0.0207 -0.0033
                                            0.0004 -0.0002  0.0001  0.0000  0.0003
                                           -0.0002 -0.0252  0.0031 -0.0012  0.0002
     2. (1.96691) BD ( 1) O   1 - H   4  
                ( 79.25%)   0.8902* O   1 s( 30.83%)p 2.23( 68.67%)d 0.02(  0.49%)
                                                  f 0.00(  0.01%)
                                           -0.0003 -0.5552  0.0061  0.0079 -0.0022
                                            0.1973 -0.0169 -0.0027 -0.0031  0.8006
                                           -0.0092 -0.0070 -0.0038 -0.0797  0.0005
                                            0.0008  0.0009  0.0004  0.0028  0.0001
                                           -0.0000 -0.0003 -0.0001  0.0120  0.0008
                                           -0.0003  0.0583  0.0052  0.0021  0.0355
                                            0.0011 -0.0029  0.0020  0.0001 -0.0015
                                           -0.0006 -0.0082 -0.0004  0.0011  0.0004
                                           -0.0004 -0.0004 -0.0017 -0.0024  0.0004
                                           -0.0025
                ( 20.75%)   0.4555* H   4 s( 99.84%)p 0.00(  0.16%)d 0.00(  0.00%)
                                           -0.9984 -0.0408 -0.0017  0.0015 -0.0110
                                           -0.0081 -0.0021  0.0163 -0.0315  0.0098
                                           -0.0055  0.0031 -0.0003  0.0006  0.0022
                                           -0.0004 -0.0002 -0.0004 -0.0001  0.0011
                                            0.0005 -0.0004  0.0032
     3. (1.99965) CR ( 1) O   1           s(100.00%)p 0.00(  0.00%)
                                            1.0000 -0.0004  0.0000  0.0000 -0.0000
                                           -0.0002  0.0000  0.0000  0.0000  0.0001
                                            0.0000 -0.0000 -0.0000 -0.0000 -0.0000
                                            0.0000  0.0000  0.0000  0.0000 -0.0000
                                           -0.0000 -0.0000 -0.0000  0.0000  0.0000
                                           -0.0000 -0.0000  0.0000  0.0000  0.0000
                                            0.0000 -0.0000  0.0000  0.0000  0.0000
                                           -0.0000 -0.0000 -0.0000  0.0000  0.0000
                                            0.0000 -0.0000 -0.0000 -0.0000 -0.0000
                                           -0.0000
     4. (2.00000) CR ( 1)Cl   2           s(100.00%)
                                            1.0000  0.0000  0.0000 -0.0000 -0.0000
                                           -0.0000 -0.0000 -0.0000  0.0000  0.0000
                                           -0.0000 -0.0000 -0.0000 -0.0000  0.0000
                                           -0.0000 -0.0000  0.0000  0.0000 -0.0000
                                            0.0000  0.0000 -0.0000  0.0000 -0.0000
                                           -0.0000 -0.0000 -0.0000  0.0000  0.0000
                                            0.0000 -0.0000 -0.0000 -0.0000  0.0000
                                            0.0000 -0.0000  0.0000  0.0000 -0.0000
                                            0.0000 -0.0000  0.0000  0.0000  0.0000
                                           -0.0000 -0.0000  0.0000 -0.0000  0.0000
     5. (1.99981) CR ( 2)Cl   2           s(100.00%)p 0.00(  0.00%)
                                            0.0000  1.0000 -0.0004  0.0000  0.0000
                                            0.0000  0.0000  0.0004 -0.0000 -0.0000
                                            0.0000  0.0000  0.0000  0.0000 -0.0000
                                            0.0000 -0.0000 -0.0000 -0.0000  0.0000
                                           -0.0000 -0.0000  0.0000 -0.0000  0.0000
                                            0.0000  0.0000  0.0000 -0.0000 -0.0000
                                           -0.0000  0.0000  0.0000  0.0000 -0.0000
                                           -0.0000  0.0000 -0.0000 -0.0000  0.0000
                                           -0.0000  0.0000 -0.0000 -0.0000 -0.0000
                                            0.0000  0.0000 -0.0000  0.0000 -0.0000
     6. (1.99996) CR ( 3)Cl   2           s(  0.00%)p 1.00(100.00%)
                                           -0.0000  0.0000  0.0001 -0.0000 -0.0000
                                           -0.0000  1.0000 -0.0004  0.0000  0.0000
                                           -0.0000  0.0000 -0.0000 -0.0000  0.0000
                                           -0.0000 -0.0000  0.0000  0.0000 -0.0000
                                            0.0000  0.0000 -0.0000  0.0000 -0.0000
                                           -0.0000 -0.0000 -0.0000  0.0000  0.0000
                                            0.0000 -0.0000 -0.0000 -0.0000  0.0000
                                            0.0000 -0.0000  0.0000  0.0000 -0.0000
                                            0.0000 -0.0000  0.0000  0.0000  0.0000
                                           -0.0000 -0.0000  0.0000 -0.0000  0.0000
     7. (2.00003) CR ( 4)Cl   2           s(  0.00%)p 1.00(100.00%)
                                           -0.0000  0.0000  0.0000  0.0000  0.0000
                                           -0.0000  0.0000 -0.0000  0.0000  0.0000
                                           -0.0000  1.0000  0.0002  0.0000  0.0000
                                           -0.0000  0.0000 -0.0000 -0.0000  0.0000
                                           -0.0000  0.0000  0.0000  0.0000  0.0000
                                            0.0000  0.0000  0.0000  0.0000 -0.0000
                                           -0.0000 -0.0000 -0.0000 -0.0000 -0.0000
                                           -0.0000  0.0000 -0.0000  0.0000  0.0000
                                           -0.0000  0.0000  0.0000 -0.0000 -0.0000
                                            0.0000 -0.0000  0.0000  0.0000 -0.0000
     8. (2.00003) CR ( 5)Cl   2           s(  0.00%)p 1.00(100.00%)
                                           -0.0000 -0.0000 -0.0000  0.0000  0.0000
                                           -0.0000 -0.0000  0.0000 -0.0000  0.0000
                                            0.0000  0.0000 -0.0000 -0.0000  0.0000
                                           -0.0000  1.0000  0.0002  0.0000  0.0000
                                           -0.0000  0.0000  0.0000  0.0000  0.0000
                                            0.0000  0.0000  0.0000  0.0000  0.0000
                                           -0.0000  0.0000  0.0000  0.0000  0.0000
                                            0.0000 -0.0000  0.0000 -0.0000  0.0000
                                           -0.0000  0.0000  0.0000 -0.0000  0.0000
                                           -0.0000  0.0000  0.0000 -0.0000  0.0000
     9. (2.00000) CR ( 1)Cl   3           s(100.00%)
                                            1.0000  0.0000  0.0000 -0.0000  0.0000
                                           -0.0000  0.0000 -0.0000  0.0000 -0.0000
                                            0.0000  0.0000 -0.0000  0.0000 -0.0000
                                            0.0000  0.0000 -0.0000  0.0000 -0.0000
                                            0.0000 -0.0000 -0.0000 -0.0000 -0.0000
                                           -0.0000 -0.0000 -0.0000 -0.0000 -0.0000
                                            0.0000 -0.0000  0.0000  0.0000 -0.0000
                                            0.0000  0.0000  0.0000  0.0000  0.0000
                                           -0.0000 -0.0000  0.0000 -0.0000 -0.0000
                                           -0.0000 -0.0000  0.0000 -0.0000 -0.0000
    10. (1.99998) CR ( 2)Cl   3           s(100.00%)
                                            0.0000  1.0000 -0.0001  0.0000 -0.0000
                                            0.0000 -0.0000  0.0000 -0.0000  0.0000
                                           -0.0000 -0.0000  0.0000 -0.0000  0.0000
                                           -0.0000 -0.0000  0.0000 -0.0000  0.0000
                                           -0.0000  0.0000  0.0000  0.0000  0.0000
                                            0.0000  0.0000  0.0000  0.0000  0.0000
                                           -0.0000  0.0000 -0.0000 -0.0000  0.0000
                                           -0.0000 -0.0000 -0.0000  0.0000 -0.0000
                                            0.0000  0.0000 -0.0000  0.0000  0.0000
                                            0.0000  0.0000  0.0000  0.0000  0.0000
    11. (2.00003) CR ( 3)Cl   3           s(  0.00%)p 1.00(100.00%)
                                            0.0000 -0.0000 -0.0000  0.0000 -0.0000
                                            0.0000  1.0000  0.0000  0.0000  0.0000
                                           -0.0000  0.0000 -0.0000 -0.0000 -0.0000
                                            0.0000  0.0000 -0.0000 -0.0000 -0.0000
                                            0.0000  0.0000  0.0000 -0.0000  0.0000
                                            0.0000  0.0000 -0.0000 -0.0000  0.0000
                                            0.0000  0.0000 -0.0000 -0.0000 -0.0000
                                           -0.0000  0.0000  0.0000 -0.0000 -0.0000
                                            0.0000  0.0000  0.0000  0.0000  0.0000
                                            0.0000 -0.0000 -0.0000  0.0000  0.0000
    12. (2.00002) CR ( 4)Cl   3           s(  0.00%)p 1.00(100.00%)
                                            0.0000 -0.0000 -0.0000  0.0000 -0.0000
                                            0.0000  0.0000 -0.0000 -0.0000 -0.0000
                                            0.0000  1.0000  0.0000 -0.0000  0.0000
                                           -0.0000  0.0000 -0.0000 -0.0000 -0.0000
                                            0.0000 -0.0000 -0.0000  0.0000 -0.0000
                                           -0.0000  0.0000 -0.0000 -0.0000  0.0000
                                           -0.0000  0.0000 -0.0000 -0.0000 -0.0000
                                           -0.0000  0.0000  0.0000  0.0000  0.0000
                                            0.0000  0.0000  0.0000  0.0000 -0.0000
                                           -0.0000  0.0000  0.0000 -0.0000 -0.0000
    13. (2.00003) CR ( 5)Cl   3           s(  0.00%)p 1.00(100.00%)
                                            0.0000 -0.0000 -0.0000 -0.0000  0.0000
                                           -0.0000  0.0000 -0.0000 -0.0000  0.0000
                                           -0.0000  0.0000 -0.0000 -0.0000  0.0000
                                           -0.0000  1.0000  0.0000  0.0000  0.0000
                                           -0.0000 -0.0000 -0.0000  0.0000  0.0000
                                            0.0000 -0.0000  0.0000  0.0000 -0.0000
                                            0.0000  0.0000 -0.0000  0.0000  0.0000
                                            0.0000 -0.0000 -0.0000  0.0000  0.0000
                                            0.0000  0.0000 -0.0000 -0.0000  0.0000
                                            0.0000  0.0000  0.0000  0.0000  0.0000
    14. (1.96653) LP ( 1) O   1           s( 59.28%)p 0.69( 40.62%)d 0.00(  0.10%)
                                                  f 0.00(  0.00%)
                                            0.0002  0.7698  0.0116  0.0083 -0.0015
                                           -0.2433 -0.0035 -0.0040 -0.0023  0.5853
                                            0.0084  0.0058  0.0018 -0.0654 -0.0010
                                           -0.0006 -0.0000  0.0223  0.0021 -0.0036
                                           -0.0026 -0.0004  0.0002  0.0042  0.0001
                                           -0.0004  0.0164 -0.0002 -0.0044  0.0121
                                            0.0006  0.0005  0.0008 -0.0001  0.0001
                                            0.0005 -0.0028  0.0002  0.0000  0.0002
                                            0.0004 -0.0002  0.0033 -0.0021  0.0037
                                           -0.0018
    15. (1.95326) LP ( 2) O   1           s(  0.00%)p 1.00( 99.80%)d 0.00(  0.18%)
                                                  f 0.00(  0.01%)
                                           -0.0000  0.0046  0.0016  0.0007 -0.0000
                                           -0.0046 -0.0002 -0.0000 -0.0002  0.1031
                                            0.0020  0.0006  0.0006  0.9934  0.0200
                                            0.0062  0.0066  0.0030  0.0004 -0.0002
                                            0.0295  0.0051 -0.0005 -0.0261  0.0044
                                            0.0121  0.0028 -0.0006 -0.0013  0.0057
                                           -0.0002 -0.0014 -0.0100  0.0005 -0.0002
                                           -0.0001 -0.0019 -0.0001  0.0046 -0.0024
                                            0.0009  0.0013 -0.0001 -0.0002  0.0007
                                           -0.0004
    16. (1.97432) LP ( 1)Cl   2           s( 91.94%)p 0.09(  8.04%)d 0.00(  0.02%)
                                                  f 0.00(  0.00%)
                                            0.0000  0.0003  0.9588  0.0065  0.0012
                                            0.0002  0.0000  0.2828 -0.0059 -0.0029
                                            0.0013  0.0000 -0.0206  0.0016  0.0002
                                           -0.0004 -0.0000  0.0036  0.0001  0.0000
                                            0.0000  0.0000 -0.0003 -0.0004  0.0001
                                            0.0001  0.0001 -0.0001 -0.0000  0.0000
                                           -0.0115  0.0006 -0.0000  0.0074  0.0005
                                            0.0004 -0.0001  0.0000 -0.0019 -0.0004
                                            0.0001 -0.0000  0.0000  0.0000  0.0001
                                           -0.0001  0.0032 -0.0000 -0.0005  0.0003
    17. (1.95615) LP ( 2)Cl   2           s(  0.00%)p 1.00( 99.95%)d 0.00(  0.05%)
                                                  f 0.00(  0.01%)
                                            0.0000  0.0000  0.0023 -0.0008 -0.0004
                                            0.0003  0.0000  0.0004  0.0001 -0.0001
                                            0.0000  0.0000 -0.0653 -0.0009 -0.0004
                                            0.0000  0.0002 -0.9975 -0.0152 -0.0051
                                            0.0023 -0.0008 -0.0012 -0.0006 -0.0080
                                           -0.0174 -0.0085 -0.0039 -0.0033 -0.0009
                                            0.0002  0.0001  0.0001 -0.0001 -0.0001
                                           -0.0000  0.0054 -0.0009  0.0002 -0.0001
                                            0.0003 -0.0002 -0.0066  0.0011 -0.0009
                                            0.0007  0.0001 -0.0001 -0.0005  0.0001
    18. (1.95509) LP ( 3)Cl   2           s(  0.06%)p99.99( 99.89%)d 0.68(  0.04%)
                                                  f 0.15(  0.01%)
                                            0.0000 -0.0000  0.0228  0.0066  0.0039
                                           -0.0018  0.0000 -0.0043 -0.0004 -0.0002
                                           -0.0007 -0.0002  0.9972  0.0128  0.0016
                                            0.0000  0.0000 -0.0652 -0.0011 -0.0002
                                            0.0001 -0.0006  0.0149  0.0080  0.0003
                                           -0.0008 -0.0005  0.0001 -0.0001 -0.0001
                                           -0.0081 -0.0051 -0.0030 -0.0011 -0.0030
                                           -0.0005  0.0005 -0.0001  0.0002  0.0002
                                           -0.0023  0.0001 -0.0003 -0.0000 -0.0002
                                            0.0001 -0.0013  0.0003  0.0087 -0.0015
    19. (1.97756) LP ( 1)Cl   3           s( 91.81%)p 0.09(  8.19%)d 0.00(  0.00%)
                                                  f 0.00(  0.00%)
                                           -0.0000  0.0001  0.9582 -0.0003  0.0006
                                           -0.0003  0.0000 -0.0678  0.0002 -0.0002
                                           -0.0000  0.0000 -0.2774  0.0017 -0.0007
                                            0.0003  0.0000 -0.0184  0.0001 -0.0000
                                            0.0000 -0.0002 -0.0000 -0.0002 -0.0001
                                           -0.0000 -0.0000 -0.0002  0.0000 -0.0001
                                            0.0003 -0.0002  0.0004  0.0003 -0.0000
                                            0.0003 -0.0000 -0.0000 -0.0000 -0.0000
                                           -0.0003 -0.0001 -0.0000 -0.0000  0.0000
                                            0.0000 -0.0002 -0.0001 -0.0002 -0.0002
    20. (1.95254) LP ( 2)Cl   3           s(  0.00%)p 1.00( 99.99%)d 0.00(  0.01%)
                                                  f 0.00(  0.00%)
                                           -0.0000  0.0000 -0.0003  0.0004 -0.0003
                                            0.0004 -0.0000  0.0659  0.0002  0.0001
                                           -0.0000 -0.0000  0.0490  0.0000 -0.0001
                                            0.0001  0.0000 -0.9966 -0.0025 -0.0016
                                            0.0005  0.0009  0.0001 -0.0001 -0.0021
                                           -0.0004  0.0002 -0.0099 -0.0020  0.0007
                                           -0.0005 -0.0000  0.0002 -0.0014 -0.0005
                                           -0.0001  0.0021  0.0013 -0.0002 -0.0001
                                           -0.0006 -0.0004  0.0023  0.0013 -0.0011
                                           -0.0007 -0.0003 -0.0001 -0.0001  0.0000
    21. (1.95220) LP ( 3)Cl   3           s(  0.00%)p 1.00( 99.98%)d 0.00(  0.01%)
                                                  f 0.00(  0.00%)
                                            0.0000 -0.0000  0.0066  0.0004 -0.0001
                                            0.0004 -0.0000  0.9742  0.0025  0.0013
                                           -0.0005  0.0000 -0.2188 -0.0004 -0.0003
                                            0.0002 -0.0000  0.0536  0.0001  0.0001
                                            0.0000  0.0101  0.0018 -0.0008  0.0009
                                            0.0003  0.0001  0.0004  0.0001 -0.0000
                                            0.0039  0.0001 -0.0008  0.0001  0.0000
                                            0.0000 -0.0001 -0.0001 -0.0009 -0.0005
                                            0.0001  0.0001 -0.0000 -0.0000  0.0004
                                            0.0002 -0.0025 -0.0013  0.0018  0.0010
    22. (1.86311) LP ( 4)Cl   3           s(  8.18%)p11.22( 91.76%)d 0.01(  0.06%)
                                                  f 0.00(  0.00%)
                                            0.0000  0.0000  0.2860  0.0011 -0.0020
                                            0.0009 -0.0000  0.2045 -0.0008 -0.0004
                                            0.0003 -0.0000  0.9339 -0.0049 -0.0034
                                            0.0012 -0.0000  0.0594  0.0002 -0.0002
                                            0.0001  0.0083  0.0018  0.0002  0.0007
                                            0.0002  0.0000  0.0030  0.0008  0.0002
                                           -0.0177 -0.0032  0.0006 -0.0120 -0.0026
                                           -0.0003 -0.0006 -0.0002 -0.0008 -0.0005
                                           -0.0036 -0.0018 -0.0007 -0.0003  0.0003
                                            0.0001 -0.0027 -0.0013 -0.0035 -0.0013
    23. (0.01931) RY*( 1) O   1           s(  0.01%)p 1.00( 98.69%)d 0.01(  1.25%)
                                                  f 0.00(  0.05%)
                                           -0.0000 -0.0000  0.0097  0.0007  0.0003
                                            0.0007 -0.0039  0.0002 -0.0007 -0.0023
                                            0.0992 -0.0034 -0.0020 -0.0243  0.9873
                                           -0.0392 -0.0150  0.0088  0.0024  0.0004
                                            0.0867  0.0278  0.0100 -0.0582  0.0042
                                            0.0191  0.0054 -0.0010 -0.0021  0.0130
                                            0.0004 -0.0017 -0.0106  0.0099  0.0003
                                           -0.0000 -0.0008  0.0011  0.0131 -0.0112
                                           -0.0035  0.0017  0.0005 -0.0002  0.0020
                                           -0.0017
    24. (0.01575) RY*( 2) O   1           s( 29.58%)p 2.31( 68.20%)d 0.07(  2.00%)
                                                  f 0.01(  0.22%)
                                           -0.0000  0.0013  0.5425 -0.0383 -0.0050
                                            0.0394 -0.3384 -0.0033  0.0216 -0.0150
                                            0.7460 -0.0022 -0.0464  0.0010 -0.0814
                                            0.0015  0.0055  0.1284  0.0244  0.0057
                                           -0.0158 -0.0036 -0.0019  0.0093 -0.0008
                                           -0.0029  0.0199  0.0028 -0.0000  0.0450
                                            0.0009 -0.0080 -0.0019  0.0004 -0.0048
                                            0.0012  0.0047  0.0010 -0.0051  0.0024
                                            0.0038 -0.0021  0.0326 -0.0149  0.0249
                                           -0.0128
    25. (0.00775) RY*( 3) O   1           s( 16.51%)p 0.51(  8.35%)d 4.47( 73.86%)
                                                  f 0.08(  1.28%)
                                           -0.0000  0.0165  0.4012 -0.0607  0.0127
                                           -0.0202 -0.1517  0.0080  0.0322 -0.0096
                                           -0.2308  0.0295 -0.0662  0.0001  0.0193
                                           -0.0023  0.0024 -0.8260 -0.0130 -0.0261
                                            0.0374  0.0019  0.0019 -0.0075 -0.0012
                                            0.0003  0.1436  0.0072  0.0263  0.1801
                                           -0.0096  0.0032 -0.0032  0.0017 -0.0260
                                            0.0156  0.0050  0.0004  0.0008 -0.0001
                                           -0.0090  0.0040 -0.0470  0.0165 -0.0878
                                            0.0398
    26. (0.00697) RY*( 4) O   1           s(  0.02%)p18.79(  0.43%)d99.99( 97.88%)
                                                  f73.07(  1.67%)
                                            0.0000  0.0009  0.0150 -0.0016 -0.0003
                                           -0.0009 -0.0008  0.0005  0.0012 -0.0011
                                           -0.0029 -0.0012 -0.0009 -0.0172 -0.0622
                                           -0.0094 -0.0046  0.0272 -0.0033  0.0001
                                            0.9213 -0.0361  0.0173  0.3505 -0.0205
                                            0.0064 -0.0386  0.0027  0.0003 -0.0522
                                            0.0026 -0.0020 -0.0383  0.0178  0.0025
                                           -0.0011  0.0091 -0.0041  0.1085 -0.0486
                                           -0.0219  0.0098 -0.0023  0.0003  0.0077
                                           -0.0036
    27. (0.00620) RY*( 5) O   1           s(  1.52%)p 9.94( 15.12%)d53.78( 81.79%)
                                                  f 1.03(  1.57%)
                                           -0.0000  0.0071  0.1170 -0.0373 -0.0081
                                           -0.0176 -0.2376  0.0035  0.0351 -0.0517
                                           -0.2976  0.0282 -0.0089 -0.0161 -0.0259
                                            0.0005  0.0118  0.3828 -0.0069  0.0206
                                            0.1911 -0.0183 -0.0030 -0.4260  0.0296
                                           -0.0131  0.5228 -0.0141  0.0286  0.4195
                                           -0.0298  0.0171 -0.0366  0.0170  0.0124
                                           -0.0073 -0.0665  0.0360 -0.0055  0.0019
                                           -0.0175  0.0075  0.0785 -0.0309 -0.0223
                                            0.0130
    28. (0.00613) RY*( 6) O   1           s(  0.81%)p10.66(  8.68%)d99.99( 89.12%)
                                                  f 1.71(  1.39%)
                                           -0.0000  0.0059  0.0855 -0.0273 -0.0070
                                           -0.0142 -0.1823  0.0026  0.0257 -0.0354
                                           -0.2049  0.0187 -0.0013  0.0304  0.0872
                                           -0.0074 -0.0218  0.1972 -0.0022  0.0133
                                           -0.2906  0.0248  0.0020  0.8122 -0.0566
                                            0.0273  0.2898 -0.0037  0.0171  0.1375
                                           -0.0106  0.0063  0.0738 -0.0356 -0.0013
                                           -0.0008 -0.0201  0.0123  0.0332 -0.0158
                                            0.0440 -0.0187  0.0481 -0.0188 -0.0163
                                            0.0090
    29. (0.00567) RY*( 7) O   1           s(  1.01%)p12.35( 12.41%)d84.01( 84.45%)
                                                  f 2.12(  2.13%)
                                           -0.0000  0.0187  0.0946 -0.0197  0.0193
                                            0.0715  0.3393 -0.0010 -0.0492 -0.0019
                                            0.0365  0.0067 -0.0100 -0.0005 -0.0058
                                           -0.0003  0.0006  0.0656 -0.0179 -0.0144
                                           -0.0101  0.0020  0.0017  0.0864 -0.0123
                                            0.0004 -0.4450  0.0175  0.0064  0.7917
                                           -0.0824  0.0005  0.0054 -0.0024  0.0989
                                           -0.0393 -0.0215  0.0098 -0.0017  0.0009
                                            0.0056 -0.0022 -0.0814  0.0340  0.0357
                                           -0.0156
    30. (0.00312) RY*( 8) O   1           s( 33.82%)p 0.81( 27.36%)d 1.13( 38.35%)
                                                  f 0.01(  0.47%)
                                            0.0000 -0.0065  0.5548 -0.1715  0.0299
                                            0.0281 -0.0399  0.0285  0.0531  0.0255
                                           -0.4636  0.0961 -0.2019 -0.0020  0.0426
                                           -0.0117  0.0039  0.2924 -0.0331  0.0374
                                           -0.0261  0.0038 -0.0016 -0.0662  0.0106
                                           -0.0065 -0.4387  0.0608 -0.0167 -0.2914
                                            0.0913 -0.0244 -0.0101  0.0080  0.0072
                                           -0.0007  0.0307 -0.0200 -0.0122  0.0074
                                            0.0048 -0.0037  0.0059 -0.0164  0.0485
                                           -0.0153
    31. (0.00248) RY*( 9) O   1           s( 12.06%)p 5.42( 65.41%)d 1.83( 22.10%)
                                                  f 0.04(  0.43%)
                                           -0.0000  0.0014  0.3394 -0.0729 -0.0089
                                            0.0100  0.7995 -0.0376 -0.0308 -0.0107
                                            0.0954  0.0164 -0.0535  0.0010 -0.0088
                                            0.0005  0.0028  0.0442 -0.0155 -0.0095
                                           -0.0046  0.0005 -0.0002  0.0210 -0.0041
                                            0.0022  0.4270 -0.0404  0.1051 -0.1458
                                            0.0331 -0.0290 -0.0016 -0.0004 -0.0229
                                            0.0311 -0.0030  0.0093 -0.0005 -0.0002
                                            0.0033 -0.0006  0.0399 -0.0321 -0.0094
                                            0.0047
    32. (0.00078) RY*(10) O   1           s( 33.49%)p 1.64( 55.08%)d 0.27(  9.13%)
                                                  f 0.07(  2.29%)
                                           -0.0000 -0.0034  0.0337  0.5765  0.0380
                                            0.0112 -0.0148 -0.0688 -0.2512 -0.0079
                                            0.0105  0.6772 -0.1440  0.0004 -0.0008
                                           -0.0495  0.0253  0.0230 -0.2113 -0.1228
                                           -0.0004  0.0022  0.0022  0.0044 -0.0236
                                            0.0128  0.0249  0.0273  0.0196 -0.0074
                                            0.1091  0.1290 -0.0182  0.0014 -0.0052
                                            0.0053 -0.0126  0.0258 -0.0168  0.0050
                                           -0.0090  0.0024 -0.1314  0.0474 -0.0422
                                            0.0031
    33. (0.00064) RY*(11) O   1           s(  0.01%)p99.99( 45.87%)d99.99( 36.08%)
                                                  f99.99( 18.04%)
                                           -0.0000  0.0002 -0.0050  0.0074  0.0053
                                            0.0001  0.0012 -0.0040  0.0106  0.0005
                                            0.0002 -0.0791 -0.0036  0.0048 -0.0308
                                           -0.6692  0.0591 -0.0052  0.0371  0.0029
                                           -0.0304  0.1831  0.0095 -0.0218 -0.5559
                                           -0.0410  0.0025  0.0533  0.0058  0.0054
                                            0.1034  0.0112 -0.1839 -0.0063  0.0714
                                           -0.0097 -0.0274  0.0037  0.0873  0.0246
                                           -0.3565  0.0461  0.0537 -0.0072  0.0097
                                            0.0047
    34. (0.00058) RY*(12) O   1           s(  0.21%)p99.99( 48.92%)d99.99( 27.21%)
                                                  f99.99( 23.67%)
                                           -0.0000  0.0004  0.0120  0.0435  0.0066
                                            0.0019  0.0037 -0.0059  0.0013 -0.0009
                                           -0.0064 -0.0700  0.0290  0.0013 -0.0182
                                           -0.6610  0.2146 -0.0052 -0.0165 -0.0076
                                           -0.0078 -0.1536 -0.0135  0.0142  0.4964
                                           -0.0071 -0.0021 -0.0328 -0.0063  0.0016
                                           -0.0029  0.0107 -0.0340 -0.0098 -0.0119
                                            0.0006  0.0053 -0.0001  0.1068  0.0253
                                            0.4703 -0.0435 -0.0095 -0.0010  0.0065
                                            0.0021
    35. (0.00059) RY*(13) O   1           s(  4.72%)p 0.71(  3.37%)d10.71( 50.53%)
                                                  f 8.77( 41.38%)
                                           -0.0000  0.0037  0.0047  0.1865  0.1113
                                            0.0093  0.0182  0.0148  0.0570 -0.0052
                                           -0.0007 -0.1324 -0.0067 -0.0002  0.0024
                                            0.1081 -0.0233 -0.0570  0.1718 -0.0550
                                            0.0074 -0.0044  0.0074  0.0070  0.0804
                                            0.0118  0.0024  0.1409 -0.0379  0.0428
                                            0.6570  0.0889  0.0249  0.0012  0.5071
                                           -0.0474 -0.0640  0.0017 -0.0172 -0.0031
                                            0.0798 -0.0077  0.3752 -0.0334  0.0326
                                            0.0028
    36. (0.00050) RY*(14) O   1           s(  0.01%)p 1.00(  3.11%)d16.18( 50.34%)
                                                  f14.96( 46.54%)
                                            0.0000 -0.0001  0.0010  0.0084  0.0053
                                            0.0000 -0.0012 -0.0260 -0.0017 -0.0003
                                            0.0001  0.0094 -0.0035 -0.0098 -0.0212
                                            0.1597 -0.0656  0.0008  0.0132 -0.0006
                                           -0.0264  0.6974 -0.0996 -0.0179  0.0650
                                           -0.0370  0.0006 -0.0003 -0.0000  0.0021
                                           -0.0167  0.0054 -0.4197 -0.0114 -0.0132
                                            0.0028  0.0158  0.0043  0.4627  0.0218
                                            0.2713 -0.0115 -0.0188  0.0009 -0.0007
                                           -0.0011
    37. (0.00050) RY*(15) O   1           s(  0.86%)p16.51( 14.15%)d42.51( 36.42%)
                                                  f56.71( 48.58%)
                                            0.0000 -0.0007  0.0505  0.0771  0.0084
                                            0.0010 -0.0071 -0.2682 -0.0227  0.0054
                                           -0.0072 -0.2244  0.1346  0.0004  0.0032
                                            0.0202 -0.0001  0.0398 -0.5888  0.0909
                                           -0.0061 -0.0079 -0.0066 -0.0029  0.0093
                                           -0.0091 -0.0340  0.0126 -0.0581 -0.0076
                                           -0.0496 -0.0118 -0.0346 -0.0034  0.1654
                                            0.0027  0.3912  0.0171 -0.0013  0.0008
                                           -0.0485 -0.0001  0.1590 -0.0084 -0.5241
                                           -0.0388
    38. (0.00047) RY*(16) O   1           s(  0.02%)p85.23(  1.84%)d99.99( 23.63%)
                                                  f99.99( 74.52%)
                                            0.0000  0.0001 -0.0075 -0.0025  0.0124
                                           -0.0006 -0.0024 -0.0198  0.0090  0.0008
                                            0.0024 -0.0515 -0.0158 -0.0010 -0.0040
                                           -0.0002 -0.1224  0.0097 -0.0113  0.0181
                                            0.0616  0.0373  0.0910 -0.0188 -0.4540
                                            0.1066  0.0006  0.0373 -0.0079  0.0042
                                            0.0531 -0.0098 -0.1586 -0.0194 -0.0850
                                           -0.0047 -0.0477 -0.0031 -0.5065 -0.0614
                                            0.6575  0.0391 -0.0708 -0.0025 -0.1045
                                           -0.0076
    39. (0.00047) RY*(17) O   1           s(  0.41%)p99.99( 70.61%)d11.32(  4.66%)
[...]
                                           -0.7802  0.1287 -0.0203  0.3324 -0.1169
                                           -0.0121  0.0605  0.0055 -0.2086 -0.1091
                                            0.0358  0.0063  0.0421 -0.0121 -0.0056
                                           -0.0618  0.1572 -0.0482
   153. (0.00032) RY*( 8) H   4           s( 30.94%)p 1.30( 40.15%)d 0.93( 28.92%)
                                           -0.0054 -0.0370  0.5540 -0.0321 -0.0584
                                            0.5020  0.2239  0.0806  0.0111 -0.2900
                                           -0.0020 -0.0394  0.0602 -0.4441  0.1452
                                           -0.0265 -0.0248  0.0051 -0.0482  0.1650
                                           -0.0929  0.1561 -0.0838
   154. (0.00031) RY*( 9) H   4           s(  0.08%)p99.99( 91.28%)d99.99(  8.64%)
                                           -0.0006 -0.0051  0.0271  0.0053 -0.0003
                                           -0.0698  0.0137  0.0052 -0.0371  0.1026
                                            0.1289 -0.9377  0.0041  0.0015 -0.0412
                                            0.0740 -0.0792  0.1314 -0.2175  0.0433
                                            0.0413  0.0417  0.0552
   155. (0.00024) RY*(10) H   4           s(  1.90%)p19.18( 36.46%)d32.43( 61.64%)
                                            0.0151  0.0506  0.0523  0.1161 -0.0883
                                           -0.1452  0.1514 -0.0339 -0.3197  0.4477
                                           -0.0115  0.0872 -0.0361 -0.3578 -0.0130
                                            0.0231  0.0010 -0.0064  0.0242  0.5199
                                            0.1080 -0.4329  0.1328
   156. (0.00022) RY*(11) H   4           s(  0.47%)p 2.98(  1.40%)d99.99( 98.14%)
                                           -0.0019 -0.0069  0.0680  0.0018  0.0205
                                            0.0396 -0.0498  0.0020  0.0351 -0.0682
                                           -0.0241  0.0503 -0.0220  0.1338  0.0505
                                            0.9559 -0.1408 -0.0879  0.0266  0.1026
                                           -0.0308 -0.0696 -0.0501
   157. (0.00021) RY*(12) H   4           s(  5.80%)p 5.01( 29.07%)d11.23( 65.13%)
                                            0.0139  0.0151  0.2126  0.1113  0.0635
                                           -0.0202 -0.0655 -0.0439 -0.3952  0.3335
                                            0.0053  0.1109  0.0174  0.2425 -0.0694
                                            0.0239  0.0121  0.0627  0.0210  0.1936
                                            0.0766  0.7335 -0.0356
   158. (0.00016) RY*(13) H   4           s(  7.99%)p 1.75( 13.98%)d 9.77( 78.03%)
                                           -0.0039 -0.0342  0.2736 -0.0619  0.0620
                                           -0.0432 -0.2942  0.0027  0.1328 -0.1703
                                            0.0008 -0.0267  0.0137  0.5226  0.1939
                                           -0.2156  0.0225  0.0413 -0.0553  0.5535
                                           -0.0958 -0.2449 -0.2060
   159. (0.00013) RY*(14) H   4           s(  2.94%)p13.33( 39.20%)d19.67( 57.86%)
                                           -0.0020 -0.0059  0.0830  0.1499  0.0039
                                            0.0297  0.0896 -0.0088  0.0283 -0.0144
                                           -0.0020 -0.2181 -0.5783  0.0618 -0.0816
                                           -0.0532  0.1448 -0.4370  0.5862  0.0232
                                           -0.0601  0.0182 -0.0719
   160. (0.00010) RY*(15) H   4           s( 67.72%)p 0.10(  6.90%)d 0.37( 25.39%)
                                           -0.0019 -0.0083  0.3702  0.7349  0.0225
                                            0.1303  0.0226  0.0047  0.1028  0.1692
                                           -0.0082  0.0302  0.1038  0.2196 -0.0400
                                           -0.0227 -0.0243  0.0649 -0.0736 -0.3359
                                            0.1345 -0.2450  0.0483
   161. (0.00010) RY*(16) H   4           s(  0.78%)p40.37( 31.44%)d87.04( 67.78%)
                                            0.0029  0.0070  0.0853 -0.0213 -0.0251
                                           -0.0936 -0.5251 -0.0114  0.0349  0.1394
                                            0.0032 -0.0356 -0.0854 -0.2654  0.6733
                                            0.0037 -0.0229 -0.0581  0.1068 -0.1739
                                            0.3238  0.0594  0.0121
   162. (0.00006) RY*(17) H   4           s(  0.04%)p39.96(  1.60%)d99.99( 98.36%)
   163. (0.00006) RY*(18) H   4           s(  8.57%)p 2.87( 24.57%)d 7.80( 66.87%)
   164. (0.00005) RY*(19) H   4           s(  0.44%)p70.74( 31.05%)d99.99( 68.51%)
   165. (0.00006) RY*(20) H   4           s(  6.71%)p 1.73( 11.64%)d12.16( 81.65%)
   166. (0.00003) RY*(21) H   4           s( 44.31%)p 0.23( 10.25%)d 1.03( 45.44%)
   167. (0.00004) RY*(22) H   4           s(  1.26%)p36.02( 45.34%)d42.42( 53.40%)
   168. (0.05826) BD*( 1) O   1 -Cl   2  
                ( 41.42%)   0.6436* O   1 s( 10.01%)p 8.93( 89.46%)d 0.05(  0.51%)
                                                  f 0.00(  0.02%)
                                           -0.0003 -0.3134  0.0412  0.0147  0.0005
                                           -0.9447  0.0286  0.0102  0.0109  0.0175
                                            0.0292  0.0053  0.0001 -0.0048 -0.0028
                                           -0.0005  0.0001  0.0223  0.0014 -0.0028
                                           -0.0027 -0.0004  0.0001  0.0021  0.0002
                                           -0.0003 -0.0523 -0.0050 -0.0025  0.0421
                                            0.0038 -0.0004  0.0000  0.0000  0.0114
                                           -0.0013  0.0003 -0.0002 -0.0001  0.0002
                                            0.0011 -0.0003 -0.0056 -0.0006  0.0006
                                           -0.0022
                ( 58.58%)  -0.7653*Cl   2 s(  8.28%)p10.93( 90.50%)d 0.13(  1.11%)
                                                  f 0.01(  0.11%)
                                            0.0000 -0.0005 -0.2821  0.0559  0.0106
                                            0.0019  0.0004  0.9490 -0.0642 -0.0142
                                            0.0048  0.0000  0.0095  0.0017 -0.0024
                                            0.0007 -0.0000 -0.0010 -0.0000  0.0003
                                           -0.0001 -0.0118  0.0001 -0.0008  0.0019
                                            0.0002  0.0001  0.0009 -0.0000 -0.0002
                                           -0.0878  0.0105  0.0003  0.0556 -0.0059
                                           -0.0008  0.0001 -0.0000 -0.0207  0.0033
                                           -0.0004  0.0002 -0.0001 -0.0000 -0.0003
                                            0.0002  0.0252 -0.0031  0.0012 -0.0002
   169. (0.10591) BD*( 1) O   1 - H   4  
                ( 20.75%)   0.4555* O   1 s( 30.83%)p 2.23( 68.67%)d 0.02(  0.49%)
                                                  f 0.00(  0.01%)
                                            0.0003  0.5552 -0.0061 -0.0079  0.0022
                                           -0.1973  0.0169  0.0027  0.0031 -0.8006
                                            0.0092  0.0070  0.0038  0.0797 -0.0005
                                           -0.0008 -0.0009 -0.0004 -0.0028 -0.0001
                                            0.0000  0.0003  0.0001 -0.0120 -0.0008
                                            0.0003 -0.0583 -0.0052 -0.0021 -0.0355
                                           -0.0011  0.0029 -0.0020 -0.0001  0.0015
                                            0.0006  0.0082  0.0004 -0.0011 -0.0004
                                            0.0004  0.0004  0.0017  0.0024 -0.0004
                                            0.0025
                ( 79.25%)  -0.8902* H   4 s( 99.84%)p 0.00(  0.16%)d 0.00(  0.00%)
                                            0.9984  0.0408  0.0017 -0.0015  0.0110
                                            0.0081  0.0021 -0.0163  0.0315 -0.0098
                                            0.0055 -0.0031  0.0003 -0.0006 -0.0022
                                            0.0004  0.0002  0.0004  0.0001 -0.0011
                                           -0.0005  0.0004 -0.0032


 NHO Directionality and "Bond Bending" (deviations from line of nuclear centers)

         [Thresholds for printing:  angular deviation  >  1.0 degree]
                                    hybrid p-character > 25.0%
                                    orbital occupancy  >  0.10e

                                Line of Centers        Hybrid 1              Hybrid 2
                                ---------------  -------------------   ------------------
                NBO               Theta   Phi    Theta   Phi    Dev    Theta   Phi    Dev
 ========================================================================================
     1. BD (   1) O   1 -Cl   2    90.0    0.0    89.5  356.7   3.4      --     --    --
    14. LP (   1) O   1             --     --     95.9  112.8   --       --     --    --
    15. LP (   2) O   1             --     --      5.9   92.7   --       --     --    --
    17. LP (   2)Cl   2             --     --    176.3  270.3   --       --     --    --
    18. LP (   3)Cl   2             --     --     93.8   90.3   --       --     --    --
    20. LP (   2)Cl   3             --     --    175.3   36.6   --       --     --    --
    21. LP (   3)Cl   3             --     --     86.9  347.4   --       --     --    --
    22. LP (   4)Cl   3             --     --     86.4   77.6   --       --     --    --


 Natural Bond Orbitals (Summary):

           NBO                  Occupancy  
 -----------------------------------------------
 Molecular unit  1  (HOCl)
     1. BD (   1) O   1 -Cl   2          1.93872
     2. BD (   1) O   1 - H   4          1.96691
     3. CR (   1) O   1                  1.99965
     4. CR (   1)Cl   2                  2.00000
     5. CR (   2)Cl   2                  1.99981
     6. CR (   3)Cl   2                  1.99996
     7. CR (   4)Cl   2                  2.00003
     8. CR (   5)Cl   2                  2.00003
    14. LP (   1) O   1                  1.96653
    15. LP (   2) O   1                  1.95326
    16. LP (   1)Cl   2                  1.97432
    17. LP (   2)Cl   2                  1.95615
    18. LP (   3)Cl   2                  1.95509
    23. RY*(   1) O   1                  0.01931
    24. RY*(   2) O   1                  0.01575
    25. RY*(   3) O   1                  0.00775
    26. RY*(   4) O   1                  0.00697
    27. RY*(   5) O   1                  0.00620
    28. RY*(   6) O   1                  0.00613
    29. RY*(   7) O   1                  0.00567
    30. RY*(   8) O   1                  0.00312
    31. RY*(   9) O   1                  0.00248
    32. RY*(  10) O   1                  0.00078
    33. RY*(  11) O   1                  0.00064
    34. RY*(  12) O   1                  0.00058
    35. RY*(  13) O   1                  0.00059
    36. RY*(  14) O   1                  0.00050
    37. RY*(  15) O   1                  0.00050
    38. RY*(  16) O   1                  0.00047
    39. RY*(  17) O   1                  0.00047
    40. RY*(  18) O   1                  0.00046
    41. RY*(  19) O   1                  0.00044
    42. RY*(  20) O   1                  0.00044
    43. RY*(  21) O   1                  0.00044
    44. RY*(  22) O   1                  0.00041
    45. RY*(  23) O   1                  0.00034
    46. RY*(  24) O   1                  0.00030
    47. RY*(  25) O   1                  0.00024
    48. RY*(  26) O   1                  0.00020
    49. RY*(  27) O   1                  0.00012
    50. RY*(  28) O   1                  0.00012
    51. RY*(  29) O   1                  0.00013
    52. RY*(  30) O   1                  0.00008
    53. RY*(  31) O   1                  0.00008
    54. RY*(  32) O   1                  0.00008
    55. RY*(  33) O   1                  0.00007
    56. RY*(  34) O   1                  0.00008
    57. RY*(  35) O   1                  0.00008
    58. RY*(  36) O   1                  0.00006
    59. RY*(  37) O   1                  0.00005
    60. RY*(  38) O   1                  0.00005
    61. RY*(  39) O   1                  0.00003
    62. RY*(  40) O   1                  0.00003
    63. RY*(  41) O   1                 -0.00000
    64. RY*(   1)Cl   2                  0.02235
    65. RY*(   2)Cl   2                  0.01736
    66. RY*(   3)Cl   2                  0.01674
    67. RY*(   4)Cl   2                  0.01655
    68. RY*(   5)Cl   2                  0.01161
    69. RY*(   6)Cl   2                  0.00930
    70. RY*(   7)Cl   2                  0.00906
    71. RY*(   8)Cl   2                  0.00631
    72. RY*(   9)Cl   2                  0.00167
    73. RY*(  10)Cl   2                  0.00126
    74. RY*(  11)Cl   2                  0.00126
    75. RY*(  12)Cl   2                  0.00119
    76. RY*(  13)Cl   2                  0.00120
    77. RY*(  14)Cl   2                  0.00116
    78. RY*(  15)Cl   2                  0.00110
    79. RY*(  16)Cl   2                  0.00094
    80. RY*(  17)Cl   2                  0.00076
    81. RY*(  18)Cl   2                  0.00076
    82. RY*(  19)Cl   2                  0.00064
    83. RY*(  20)Cl   2                  0.00054
    84. RY*(  21)Cl   2                  0.00043
    85. RY*(  22)Cl   2                  0.00036
    86. RY*(  23)Cl   2                  0.00034
    87. RY*(  24)Cl   2                  0.00030
    88. RY*(  25)Cl   2                  0.00019
    89. RY*(  26)Cl   2                  0.00016
    90. RY*(  27)Cl   2                  0.00014
    91. RY*(  28)Cl   2                  0.00013
    92. RY*(  29)Cl   2                  0.00012
    93. RY*(  30)Cl   2                  0.00012
    94. RY*(  31)Cl   2                  0.00011
    95. RY*(  32)Cl   2                  0.00010
    96. RY*(  33)Cl   2                  0.00010
    97. RY*(  34)Cl   2                  0.00009
    98. RY*(  35)Cl   2                  0.00010
    99. RY*(  36)Cl   2                  0.00007
   100. RY*(  37)Cl   2                  0.00008
   101. RY*(  38)Cl   2                  0.00003
   102. RY*(  39)Cl   2                  0.00003
   103. RY*(  40)Cl   2                  0.00003
   104. RY*(  41)Cl   2                  0.00000
   146. RY*(   1) H   4                  0.01051
   147. RY*(   2) H   4                  0.00533
   148. RY*(   3) H   4                  0.00504
   149. RY*(   4) H   4                  0.00355
   150. RY*(   5) H   4                  0.00062
   151. RY*(   6) H   4                  0.00051
   152. RY*(   7) H   4                  0.00045
   153. RY*(   8) H   4                  0.00032
   154. RY*(   9) H   4                  0.00031
   155. RY*(  10) H   4                  0.00024
   156. RY*(  11) H   4                  0.00022
   157. RY*(  12) H   4                  0.00021
   158. RY*(  13) H   4                  0.00016
   159. RY*(  14) H   4                  0.00013
   160. RY*(  15) H   4                  0.00010
   161. RY*(  16) H   4                  0.00010
   162. RY*(  17) H   4                  0.00006
   163. RY*(  18) H   4                  0.00006
   164. RY*(  19) H   4                  0.00005
   165. RY*(  20) H   4                  0.00006
   166. RY*(  21) H   4                  0.00003
   167. RY*(  22) H   4                  0.00004
   168. BD*(   1) O   1 -Cl   2          0.05826
   169. BD*(   1) O   1 - H   4          0.10591
       -------------------------------
              Total Lewis   25.71046  ( 98.4707%)
        Valence non-Lewis    0.16417  (  0.6288%)
        Rydberg non-Lewis    0.23513  (  0.9005%)
       -------------------------------
            Total unit  1   26.10977  (100.0000%)
           Charge unit  1   -0.10977

 Molecular unit  2  (Cl)
     9. CR (   1)Cl   3                  2.00000
    10. CR (   2)Cl   3                  1.99998
    11. CR (   3)Cl   3                  2.00003
    12. CR (   4)Cl   3                  2.00002
    13. CR (   5)Cl   3                  2.00003
    19. LP (   1)Cl   3                  1.97756
    20. LP (   2)Cl   3                  1.95254
    21. LP (   3)Cl   3                  1.95220
    22. LP (   4)Cl   3                  1.86311
   105. RY*(   1)Cl   3                  0.01842
   106. RY*(   2)Cl   3                  0.01838
   107. RY*(   3)Cl   3                  0.01827
   108. RY*(   4)Cl   3                  0.01827
   109. RY*(   5)Cl   3                  0.01771
   110. RY*(   6)Cl   3                  0.01267
   111. RY*(   7)Cl   3                  0.01258
   112. RY*(   8)Cl   3                  0.01015
   113. RY*(   9)Cl   3                  0.00188
   114. RY*(  10)Cl   3                  0.00129
   115. RY*(  11)Cl   3                  0.00130
   116. RY*(  12)Cl   3                  0.00128
   117. RY*(  13)Cl   3                  0.00129
   118. RY*(  14)Cl   3                  0.00128
   119. RY*(  15)Cl   3                  0.00127
   120. RY*(  16)Cl   3                  0.00124
   121. RY*(  17)Cl   3                  0.00097
   122. RY*(  18)Cl   3                  0.00098
   123. RY*(  19)Cl   3                  0.00072
   124. RY*(  20)Cl   3                  0.00070
   125. RY*(  21)Cl   3                  0.00065
   126. RY*(  22)Cl   3                  0.00053
   127. RY*(  23)Cl   3                  0.00052
   128. RY*(  24)Cl   3                  0.00050
   129. RY*(  25)Cl   3                  0.00020
   130. RY*(  26)Cl   3                  0.00017
   131. RY*(  27)Cl   3                  0.00016
   132. RY*(  28)Cl   3                  0.00015
   133. RY*(  29)Cl   3                  0.00014
   134. RY*(  30)Cl   3                  0.00014
   135. RY*(  31)Cl   3                  0.00014
   136. RY*(  32)Cl   3                  0.00015
   137. RY*(  33)Cl   3                  0.00012
   138. RY*(  34)Cl   3                  0.00011
   139. RY*(  35)Cl   3                  0.00009
   140. RY*(  36)Cl   3                  0.00009
   141. RY*(  37)Cl   3                  0.00010
   142. RY*(  38)Cl   3                  0.00007
   143. RY*(  39)Cl   3                  0.00004
   144. RY*(  40)Cl   3                  0.00003
   145. RY*(  41)Cl   3                  0.00001
       -------------------------------
              Total Lewis   17.74546  ( 99.1908%)
        Valence non-Lewis    0.00000  (  0.0000%)
        Rydberg non-Lewis    0.14477  (  0.8092%)
       -------------------------------
            Total unit  2   17.89023  (100.0000%)
           Charge unit  2   -0.89023
 Leave Link  607 at Fri Nov  5 15:23:54 2021, MaxMem= 16106127360 cpu:              75.9 elap:               2.7
 (Enter /sw/contrib/gaussian/g16/B01/g16/l9999.exe)
 1\1\GINC-N2113\SP\RMP2-FC\Aug-CC-pVTZ\Cl2H1O1(1-)\CGAVINH\05-Nov-2021\
 0\\#p pop=NBO SP NoSymm mp2/aug-cc-pvtz density=current\\title\\-1,1\O
 \X,1,10.\Cl,1,1.69700154,2,90.\Cl,1,2.93100907,2,90.,3,102.48429983,0\
 H,1,0.96862334,2,85.,3,102.48429983,0\\Version=ES64L-G16RevB.01\HF=-99
 4.5245785\MP2=-995.1897121\RMSD=3.603e-09\Dipole=1.3948944,1.7733974,0
 .0295998\Quadrupole=6.9511035,-15.2774859,8.3263824,-5.5300771,-0.0290
 129,-0.0304436\PG=C01 [X(Cl2H1O1)]\\@


 WHEN ALL ELSE FAILS, TRY THE BOSS'S SUGGESTION.
 Job cpu time:       0 days  0 hours  5 minutes  2.1 seconds.
 Elapsed time:       0 days  0 hours  0 minutes 16.1 seconds.
 File lengths (MBytes):  RWF=     14 Int=      0 D2E=      0 Chk=      8 Scr=      1
 Normal termination of Gaussian 16 at Fri Nov  5 15:23:55 2021.
