 Entering Gaussian System, Link 0=g16
 Input=clhocl_oop_00_sp.gjf
 Output=clhocl_oop_00_sp.log
 Initial command:
 /sw/contrib/gaussian/g16/B01/g16/l1.exe "/scr/Gau-20169.inp" -scrdir="/scr/"
 Entering Link 1 = /sw/contrib/gaussian/g16/B01/g16/l1.exe PID=     20170.
  
 Copyright (c) 1988-2017, Gaussian, Inc.  All Rights Reserved.
  
 This is part of the Gaussian(R) 16 program.  It is based on
 the Gaussian(R) 09 system (copyright 2009, Gaussian, Inc.),
 the Gaussian(R) 03 system (copyright 2003, Gaussian, Inc.),
 the Gaussian(R) 98 system (copyright 1998, Gaussian, Inc.),
 the Gaussian(R) 94 system (copyright 1995, Gaussian, Inc.),
 the Gaussian 92(TM) system (copyright 1992, Gaussian, Inc.),
 the Gaussian 90(TM) system (copyright 1990, Gaussian, Inc.),
 the Gaussian 88(TM) system (copyright 1988, Gaussian, Inc.),
 the Gaussian 86(TM) system (copyright 1986, Carnegie Mellon
 University), and the Gaussian 82(TM) system (copyright 1983,
 Carnegie Mellon University). Gaussian is a federally registered
 trademark of Gaussian, Inc.
  
 This software contains proprietary and confidential information,
 including trade secrets, belonging to Gaussian, Inc.
  
 This software is provided under written license and may be
 used, copied, transmitted, or stored only in accord with that
 written license.
  
 The following legend is applicable only to US Government
 contracts under FAR:
  
                    RESTRICTED RIGHTS LEGEND
  
 Use, reproduction and disclosure by the US Government is
 subject to restrictions as set forth in subparagraphs (a)
 and (c) of the Commercial Computer Software - Restricted
 Rights clause in FAR 52.227-19.
  
 Gaussian, Inc.
 340 Quinnipiac St., Bldg. 40, Wallingford CT 06492
  
  
 ---------------------------------------------------------------
 Warning -- This program may not be used in any manner that
 competes with the business of Gaussian, Inc. or will provide
 assistance to any competitor of Gaussian, Inc.  The licensee
 of this program is prohibited from giving any competitor of
 Gaussian, Inc. access to this program.  By using this program,
 the user acknowledges that Gaussian, Inc. is engaged in the
 business of creating and licensing software in the field of
 computational chemistry and represents and warrants to the
 licensee that it is not a competitor of Gaussian, Inc. and that
 it will not use this program in any manner prohibited above.
 ---------------------------------------------------------------
  

 Cite this work as:
 Gaussian 16, Revision B.01,
 M. J. Frisch, G. W. Trucks, H. B. Schlegel, G. E. Scuseria, 
 M. A. Robb, J. R. Cheeseman, G. Scalmani, V. Barone, 
 G. A. Petersson, H. Nakatsuji, X. Li, M. Caricato, A. V. Marenich, 
 J. Bloino, B. G. Janesko, R. Gomperts, B. Mennucci, H. P. Hratchian, 
 J. V. Ortiz, A. F. Izmaylov, J. L. Sonnenberg, D. Williams-Young, 
 F. Ding, F. Lipparini, F. Egidi, J. Goings, B. Peng, A. Petrone, 
 T. Henderson, D. Ranasinghe, V. G. Zakrzewski, J. Gao, N. Rega, 
 G. Zheng, W. Liang, M. Hada, M. Ehara, K. Toyota, R. Fukuda, 
 J. Hasegawa, M. Ishida, T. Nakajima, Y. Honda, O. Kitao, H. Nakai, 
 T. Vreven, K. Throssell, J. A. Montgomery, Jr., J. E. Peralta, 
 F. Ogliaro, M. J. Bearpark, J. J. Heyd, E. N. Brothers, K. N. Kudin, 
 V. N. Staroverov, T. A. Keith, R. Kobayashi, J. Normand, 
 K. Raghavachari, A. P. Rendell, J. C. Burant, S. S. Iyengar, 
 J. Tomasi, M. Cossi, J. M. Millam, M. Klene, C. Adamo, R. Cammi, 
 J. W. Ochterski, R. L. Martin, K. Morokuma, O. Farkas, 
 J. B. Foresman, and D. J. Fox, Gaussian, Inc., Wallingford CT, 2016.
 
 ******************************************
 Gaussian 16:  ES64L-G16RevB.01 20-Dec-2017
                 5-Nov-2021 
 ******************************************
 %nproc=28
 Will use up to   28 processors via shared memory.
 %mem=120GB
 %chk=/gscratch/ilahie/mccoygrp/coire_hocl/oop_s_rOH_f/clhocl/clhocl_oop_0_sp.chk
 ----------------------------------------------------
 #p pop=NBO SP NoSymm mp2/aug-cc-pvtz density=current
 ----------------------------------------------------
 1/30=1,38=1,172=1/1;
 2/12=2,15=1,17=6,18=5,40=1/2;
 3/5=16,6=1,7=10,11=9,25=1,30=1,71=1/1,2,3;
 4//1;
 5/5=2,38=5/2;
 8/6=4,10=1/1;
 9/15=1,16=-3/6;
 10/5=1,13=10,31=1/2;
 6/7=2,8=2,9=2,10=2,22=-1,40=1/1,7;
 99/5=1,9=1/99;
 Leave Link    1 at Fri Nov  5 15:23:18 2021, MaxMem= 16106127360 cpu:               1.8 elap:               0.1
 (Enter /sw/contrib/gaussian/g16/B01/g16/l101.exe)
 -----
 title
 -----
 Symbolic Z-matrix:
 Charge = -1 Multiplicity = 1
 O
 X                    1     10. 
 Cl                   1    r1       2     90. 
 Cl                   1    r2       2     90.      3    a1       0
 H                    1    r3       2    oop      3    a1       0
       Variables:
  r1                    1.697                    
  r2                    2.93101                  
  r3                    0.96862                  
  a1                  102.4843                   
  OOP                  90.                       
 
 ITRead=  0  0  0  0
 MicOpt= -1 -1 -1 -1
 NAtoms=      4 NQM=        4 NQMF=       0 NMMI=      0 NMMIF=      0
                NMic=       0 NMicF=      0.
                    Isotopes and Nuclear Properties:
 (Nuclear quadrupole moments (NQMom) in fm**2, nuclear magnetic moments (NMagM)
  in nuclear magnetons)

  Atom         1           2           3           4
 IAtWgt=          16          35          35           1
 AtmWgt=  15.9949146  34.9688527  34.9688527   1.0078250
 NucSpn=           0           3           3           1
 AtZEff=  -0.0000000  -0.0000000  -0.0000000  -0.0000000
 NQMom=    0.0000000  -8.1650000  -8.1650000   0.0000000
 NMagM=    0.0000000   0.8218740   0.8218740   2.7928460
 AtZNuc=   8.0000000  17.0000000  17.0000000   1.0000000
 Leave Link  101 at Fri Nov  5 15:23:18 2021, MaxMem= 16106127360 cpu:               2.9 elap:               0.1
 (Enter /sw/contrib/gaussian/g16/B01/g16/l202.exe)
                          Input orientation:                          
 ---------------------------------------------------------------------
 Center     Atomic      Atomic             Coordinates (Angstroms)
 Number     Number       Type             X           Y           Z
 ---------------------------------------------------------------------
      1          8           0        0.000000    0.000000    0.000000
      2         17           0        1.697002    0.000000    0.000000
      3         17           0       -0.633602   -2.861706    0.000000
      4          1           0       -0.209389   -0.945721    0.000000
 ---------------------------------------------------------------------
                    Distance matrix (angstroms):
                    1          2          3          4
     1  O    0.000000
     2  Cl   1.697002   0.000000
     3  Cl   2.931009   3.690674   0.000000
     4  H    0.968623   2.128077   1.962386   0.000000
 Symmetry turned off by external request.
 Stoichiometry    Cl2HO(1-)
 Framework group  CS[SG(Cl2HO)]
 Deg. of freedom     5
 Full point group                 CS      NOp   2
 Rotational constants (GHZ):          22.7903852           2.0479599           1.8791024
 Leave Link  202 at Fri Nov  5 15:23:18 2021, MaxMem= 16106127360 cpu:               0.9 elap:               0.1
 (Enter /sw/contrib/gaussian/g16/B01/g16/l301.exe)
 Standard basis: Aug-CC-pVTZ (5D, 7F)
 Ernie: Thresh=  0.10000D-02 Tol=  0.10000D-05 Strict=F.
 Ernie:  29 primitive shells out of 169 were deleted.
   169 basis functions,   327 primitive gaussians,   198 cartesian basis functions
    22 alpha electrons       22 beta electrons
       nuclear repulsion energy       121.5825549013 Hartrees.
 IExCor=    0 DFT=F Ex=HF Corr=None ExCW=0 ScaHFX=  1.000000
 ScaDFX=  1.000000  1.000000  1.000000  1.000000 ScalE2=  1.000000  1.000000
 IRadAn=      5 IRanWt=     -1 IRanGd=            0 ICorTp=0 IEmpDi=  4
 NAtoms=    4 NActive=    4 NUniq=    4 SFac= 1.00D+00 NAtFMM=   60 NAOKFM=F Big=F
 Integral buffers will be    131072 words long.
 Raffenetti 1 integral format.
 Two-electron integral symmetry is turned off.
 Leave Link  301 at Fri Nov  5 15:23:18 2021, MaxMem= 16106127360 cpu:               1.6 elap:               0.1
 (Enter /sw/contrib/gaussian/g16/B01/g16/l302.exe)
 NPDir=0 NMtPBC=     1 NCelOv=     1 NCel=       1 NClECP=     1 NCelD=      1
         NCelK=      1 NCelE2=     1 NClLst=     1 CellRange=     0.0.
 One-electron integrals computed using PRISM.
 NBasis=   169 RedAO= T EigKep=  2.21D-04  NBF=   169
 NBsUse=   169 1.00D-06 EigRej= -1.00D+00 NBFU=   169
 Leave Link  302 at Fri Nov  5 15:23:19 2021, MaxMem= 16106127360 cpu:              12.0 elap:               0.6
 (Enter /sw/contrib/gaussian/g16/B01/g16/l303.exe)
 DipDrv:  MaxL=1.
 Leave Link  303 at Fri Nov  5 15:23:20 2021, MaxMem= 16106127360 cpu:               5.9 elap:               0.3
 (Enter /sw/contrib/gaussian/g16/B01/g16/l401.exe)
 ExpMin= 2.53D-02 ExpMax= 4.56D+05 ExpMxC= 1.44D+03 IAcc=3 IRadAn=         5 AccDes= 0.00D+00
 Harris functional with IExCor=  205 and IRadAn=       5 diagonalized for initial guess.
 HarFok:  IExCor=  205 AccDes= 0.00D+00 IRadAn=         5 IDoV= 1 UseB2=F ITyADJ=14
 ICtDFT=  3500011 ScaDFX=  1.000000  1.000000  1.000000  1.000000
 FoFCou: FMM=F IPFlag=           0 FMFlag=      100000 FMFlg1=           0
         NFxFlg=           0 DoJE=T BraDBF=F KetDBF=T FulRan=T
         wScrn=  0.000000 ICntrl=       500 IOpCl=  0 I1Cent=   200000004 NGrid=           0
         NMat0=    1 NMatS0=      1 NMatT0=    0 NMatD0=    1 NMtDS0=    0 NMtDT0=    0
 Symmetry not used in FoFCou.
 Harris En= -993.822628230849    
 JPrj=0 DoOrth=F DoCkMO=F.
 Leave Link  401 at Fri Nov  5 15:23:20 2021, MaxMem= 16106127360 cpu:              13.5 elap:               0.6
 (Enter /sw/contrib/gaussian/g16/B01/g16/l502.exe)
 Keep R1 ints in memory in canonical form, NReq=117119173.
 FoFCou: FMM=F IPFlag=           0 FMFlag=           0 FMFlg1=           0
         NFxFlg=           0 DoJE=F BraDBF=F KetDBF=F FulRan=T
         wScrn=  0.000000 ICntrl=       600 IOpCl=  0 I1Cent=           0 NGrid=           0
         NMat0=    1 NMatS0=  14365 NMatT0=    0 NMatD0=    1 NMtDS0=    0 NMtDT0=    0
 Symmetry not used in FoFCou.
 Two-electron integral symmetry not used.
 Closed shell SCF:
 Using DIIS extrapolation, IDIIS=  1040.
 NGot= 16106127360 LenX= 16002858349 LenY= 16002818704
 Requested convergence on RMS density matrix=1.00D-08 within 128 cycles.
 Requested convergence on MAX density matrix=1.00D-06.
 Requested convergence on             energy=1.00D-06.
 No special actions if energy rises.

 Cycle   1  Pass 1  IDiag  1:
 E= -994.391852543497    
 DIIS: error= 3.61D-02 at cycle   1 NSaved=   1.
 NSaved= 1 IEnMin= 1 EnMin= -994.391852543497     IErMin= 1 ErrMin= 3.61D-02
 ErrMax= 3.61D-02  0.00D+00 EMaxC= 1.00D-01 BMatC= 4.30D-01 BMatP= 4.30D-01
 IDIUse=3 WtCom= 6.39D-01 WtEn= 3.61D-01
 Coeff-Com:  0.100D+01
 Coeff-En:   0.100D+01
 Coeff:      0.100D+01
 Gap=     0.561 Goal=   None    Shift=    0.000
 GapD=    0.561 DampG=2.000 DampE=0.500 DampFc=1.0000 IDamp=-1.
 RMSDP=2.21D-03 MaxDP=7.12D-02              OVMax= 1.27D-01

 Cycle   2  Pass 1  IDiag  1:
 E= -994.487381035788     Delta-E=       -0.095528492291 Rises=F Damp=F
 DIIS: error= 1.88D-02 at cycle   2 NSaved=   2.
 NSaved= 2 IEnMin= 2 EnMin= -994.487381035788     IErMin= 2 ErrMin= 1.88D-02
 ErrMax= 1.88D-02  0.00D+00 EMaxC= 1.00D-01 BMatC= 5.35D-02 BMatP= 4.30D-01
 IDIUse=3 WtCom= 8.12D-01 WtEn= 1.88D-01
 Coeff-Com:  0.176D+00 0.824D+00
 Coeff-En:   0.000D+00 0.100D+01
 Coeff:      0.143D+00 0.857D+00
 Gap=     0.377 Goal=   None    Shift=    0.000
 RMSDP=1.01D-03 MaxDP=4.02D-02 DE=-9.55D-02 OVMax= 8.35D-02

 Cycle   3  Pass 1  IDiag  1:
 E= -994.514514371745     Delta-E=       -0.027133335957 Rises=F Damp=F
 DIIS: error= 8.41D-03 at cycle   3 NSaved=   3.
 NSaved= 3 IEnMin= 3 EnMin= -994.514514371745     IErMin= 3 ErrMin= 8.41D-03
 ErrMax= 8.41D-03  0.00D+00 EMaxC= 1.00D-01 BMatC= 1.48D-02 BMatP= 5.35D-02
 IDIUse=3 WtCom= 9.16D-01 WtEn= 8.41D-02
 Coeff-Com: -0.157D-01 0.334D+00 0.682D+00
 Coeff-En:   0.000D+00 0.116D+00 0.884D+00
 Coeff:     -0.144D-01 0.315D+00 0.699D+00
 Gap=     0.356 Goal=   None    Shift=    0.000
 RMSDP=3.66D-04 MaxDP=1.49D-02 DE=-2.71D-02 OVMax= 3.78D-02

 Cycle   4  Pass 1  IDiag  1:
 E= -994.524617064283     Delta-E=       -0.010102692537 Rises=F Damp=F
 DIIS: error= 1.23D-03 at cycle   4 NSaved=   4.
 NSaved= 4 IEnMin= 4 EnMin= -994.524617064283     IErMin= 4 ErrMin= 1.23D-03
 ErrMax= 1.23D-03  0.00D+00 EMaxC= 1.00D-01 BMatC= 1.82D-04 BMatP= 1.48D-02
 IDIUse=3 WtCom= 9.88D-01 WtEn= 1.23D-02
 Coeff-Com: -0.401D-02 0.160D-01 0.102D+00 0.886D+00
 Coeff-En:   0.000D+00 0.000D+00 0.000D+00 0.100D+01
 Coeff:     -0.396D-02 0.158D-01 0.101D+00 0.887D+00
 Gap=     0.349 Goal=   None    Shift=    0.000
 RMSDP=5.79D-05 MaxDP=1.47D-03 DE=-1.01D-02 OVMax= 3.15D-03

 Cycle   5  Pass 1  IDiag  1:
 E= -994.524813207280     Delta-E=       -0.000196142998 Rises=F Damp=F
 DIIS: error= 2.90D-04 at cycle   5 NSaved=   5.
 NSaved= 5 IEnMin= 5 EnMin= -994.524813207280     IErMin= 5 ErrMin= 2.90D-04
 ErrMax= 2.90D-04  0.00D+00 EMaxC= 1.00D-01 BMatC= 1.73D-05 BMatP= 1.82D-04
 IDIUse=3 WtCom= 9.97D-01 WtEn= 2.90D-03
 Coeff-Com:  0.108D-02-0.397D-01-0.713D-01 0.159D-01 0.109D+01
 Coeff-En:   0.000D+00 0.000D+00 0.000D+00 0.000D+00 0.100D+01
 Coeff:      0.108D-02-0.396D-01-0.710D-01 0.158D-01 0.109D+01
 Gap=     0.351 Goal=   None    Shift=    0.000
 RMSDP=3.36D-05 MaxDP=1.23D-03 DE=-1.96D-04 OVMax= 3.30D-03

 Cycle   6  Pass 1  IDiag  1:
 E= -994.524857328217     Delta-E=       -0.000044120937 Rises=F Damp=F
 DIIS: error= 1.27D-04 at cycle   6 NSaved=   6.
 NSaved= 6 IEnMin= 6 EnMin= -994.524857328217     IErMin= 6 ErrMin= 1.27D-04
 ErrMax= 1.27D-04  0.00D+00 EMaxC= 1.00D-01 BMatC= 2.34D-06 BMatP= 1.73D-05
 IDIUse=3 WtCom= 9.99D-01 WtEn= 1.27D-03
 Coeff-Com:  0.238D-03 0.910D-02 0.168D-01-0.818D-01-0.419D+00 0.148D+01
 Coeff-En:   0.000D+00 0.000D+00 0.000D+00 0.000D+00 0.000D+00 0.100D+01
 Coeff:      0.238D-03 0.909D-02 0.168D-01-0.817D-01-0.419D+00 0.147D+01
 Gap=     0.352 Goal=   None    Shift=    0.000
 RMSDP=1.78D-05 MaxDP=6.43D-04 DE=-4.41D-05 OVMax= 1.77D-03

 Cycle   7  Pass 1  IDiag  1:
 E= -994.524865791214     Delta-E=       -0.000008462997 Rises=F Damp=F
 DIIS: error= 4.36D-05 at cycle   7 NSaved=   7.
 NSaved= 7 IEnMin= 7 EnMin= -994.524865791214     IErMin= 7 ErrMin= 4.36D-05
 ErrMax= 4.36D-05  0.00D+00 EMaxC= 1.00D-01 BMatC= 1.42D-07 BMatP= 2.34D-06
 IDIUse=1 WtCom= 1.00D+00 WtEn= 0.00D+00
 Coeff-Com: -0.173D-03-0.974D-03-0.111D-02 0.311D-01 0.895D-01-0.609D+00
 Coeff-Com:  0.149D+01
 Coeff:     -0.173D-03-0.974D-03-0.111D-02 0.311D-01 0.895D-01-0.609D+00
 Coeff:      0.149D+01
 Gap=     0.352 Goal=   None    Shift=    0.000
 RMSDP=5.46D-06 MaxDP=1.76D-04 DE=-8.46D-06 OVMax= 5.29D-04

 Cycle   8  Pass 1  IDiag  1:
 E= -994.524866449269     Delta-E=       -0.000000658055 Rises=F Damp=F
 DIIS: error= 8.40D-06 at cycle   8 NSaved=   8.
 NSaved= 8 IEnMin= 8 EnMin= -994.524866449269     IErMin= 8 ErrMin= 8.40D-06
 ErrMax= 8.40D-06  0.00D+00 EMaxC= 1.00D-01 BMatC= 1.02D-08 BMatP= 1.42D-07
 IDIUse=1 WtCom= 1.00D+00 WtEn= 0.00D+00
 Coeff-Com:  0.174D-04-0.612D-03-0.960D-03 0.214D-03 0.131D-01 0.374D-02
 Coeff-Com: -0.249D+00 0.123D+01
 Coeff:      0.174D-04-0.612D-03-0.960D-03 0.214D-03 0.131D-01 0.374D-02
 Coeff:     -0.249D+00 0.123D+01
 Gap=     0.352 Goal=   None    Shift=    0.000
 RMSDP=1.27D-06 MaxDP=2.91D-05 DE=-6.58D-07 OVMax= 1.48D-04

 Cycle   9  Pass 1  IDiag  1:
 E= -994.524866489366     Delta-E=       -0.000000040097 Rises=F Damp=F
 DIIS: error= 3.90D-06 at cycle   9 NSaved=   9.
 NSaved= 9 IEnMin= 9 EnMin= -994.524866489366     IErMin= 9 ErrMin= 3.90D-06
 ErrMax= 3.90D-06  0.00D+00 EMaxC= 1.00D-01 BMatC= 1.42D-09 BMatP= 1.02D-08
 IDIUse=1 WtCom= 1.00D+00 WtEn= 0.00D+00
 Coeff-Com:  0.152D-04 0.260D-03 0.391D-03-0.367D-02-0.144D-01 0.736D-01
 Coeff-Com: -0.113D+00-0.337D+00 0.139D+01
 Coeff:      0.152D-04 0.260D-03 0.391D-03-0.367D-02-0.144D-01 0.736D-01
 Coeff:     -0.113D+00-0.337D+00 0.139D+01
 Gap=     0.352 Goal=   None    Shift=    0.000
 RMSDP=6.15D-07 MaxDP=1.63D-05 DE=-4.01D-08 OVMax= 7.46D-05

 Cycle  10  Pass 1  IDiag  1:
 E= -994.524866496922     Delta-E=       -0.000000007557 Rises=F Damp=F
 DIIS: error= 1.77D-06 at cycle  10 NSaved=  10.
 NSaved=10 IEnMin=10 EnMin= -994.524866496922     IErMin=10 ErrMin= 1.77D-06
 ErrMax= 1.77D-06  0.00D+00 EMaxC= 1.00D-01 BMatC= 2.15D-10 BMatP= 1.42D-09
 IDIUse=1 WtCom= 1.00D+00 WtEn= 0.00D+00
 Coeff-Com: -0.337D-05 0.282D-04-0.235D-05 0.745D-03 0.149D-02-0.156D-01
 Coeff-Com:  0.596D-01-0.152D+00-0.173D+00 0.128D+01
 Coeff:     -0.337D-05 0.282D-04-0.235D-05 0.745D-03 0.149D-02-0.156D-01
 Coeff:      0.596D-01-0.152D+00-0.173D+00 0.128D+01
 Gap=     0.352 Goal=   None    Shift=    0.000
 RMSDP=2.45D-07 MaxDP=7.01D-06 DE=-7.56D-09 OVMax= 2.91D-05

 Cycle  11  Pass 1  IDiag  1:
 E= -994.524866497933     Delta-E=       -0.000000001011 Rises=F Damp=F
 DIIS: error= 5.11D-07 at cycle  11 NSaved=  11.
 NSaved=11 IEnMin=11 EnMin= -994.524866497933     IErMin=11 ErrMin= 5.11D-07
 ErrMax= 5.11D-07  0.00D+00 EMaxC= 1.00D-01 BMatC= 1.52D-11 BMatP= 2.15D-10
 IDIUse=1 WtCom= 1.00D+00 WtEn= 0.00D+00
 Coeff-Com: -0.270D-05-0.213D-04-0.220D-04 0.422D-03 0.130D-02-0.745D-02
 Coeff-Com:  0.105D-01 0.453D-01-0.129D+00-0.176D+00 0.126D+01
 Coeff:     -0.270D-05-0.213D-04-0.220D-04 0.422D-03 0.130D-02-0.745D-02
 Coeff:      0.105D-01 0.453D-01-0.129D+00-0.176D+00 0.126D+01
 Gap=     0.352 Goal=   None    Shift=    0.000
 RMSDP=7.07D-08 MaxDP=2.10D-06 DE=-1.01D-09 OVMax= 7.91D-06

 Cycle  12  Pass 1  IDiag  1:
 E= -994.524866498010     Delta-E=       -0.000000000077 Rises=F Damp=F
 DIIS: error= 9.68D-08 at cycle  12 NSaved=  12.
 NSaved=12 IEnMin=12 EnMin= -994.524866498010     IErMin=12 ErrMin= 9.68D-08
 ErrMax= 9.68D-08  0.00D+00 EMaxC= 1.00D-01 BMatC= 7.02D-13 BMatP= 1.52D-11
 IDIUse=1 WtCom= 1.00D+00 WtEn= 0.00D+00
 Coeff-Com:  0.705D-06 0.180D-06 0.213D-07-0.102D-03-0.250D-03 0.187D-02
 Coeff-Com: -0.457D-02 0.256D-04 0.310D-01-0.421D-01-0.187D+00 0.120D+01
 Coeff:      0.705D-06 0.180D-06 0.213D-07-0.102D-03-0.250D-03 0.187D-02
 Coeff:     -0.457D-02 0.256D-04 0.310D-01-0.421D-01-0.187D+00 0.120D+01
 Gap=     0.352 Goal=   None    Shift=    0.000
 RMSDP=1.27D-08 MaxDP=3.02D-07 DE=-7.66D-11 OVMax= 1.08D-06

 Cycle  13  Pass 1  IDiag  1:
 E= -994.524866498016     Delta-E=       -0.000000000006 Rises=F Damp=F
 DIIS: error= 2.27D-08 at cycle  13 NSaved=  13.
 NSaved=13 IEnMin=13 EnMin= -994.524866498016     IErMin=13 ErrMin= 2.27D-08
 ErrMax= 2.27D-08  0.00D+00 EMaxC= 1.00D-01 BMatC= 6.99D-14 BMatP= 7.02D-13
 IDIUse=1 WtCom= 1.00D+00 WtEn= 0.00D+00
 Coeff-Com:  0.157D-06 0.184D-05 0.167D-05-0.260D-04-0.898D-04 0.482D-03
 Coeff-Com: -0.543D-03-0.389D-02 0.966D-02 0.158D-01-0.102D+00-0.428D-01
 Coeff-Com:  0.112D+01
 Coeff:      0.157D-06 0.184D-05 0.167D-05-0.260D-04-0.898D-04 0.482D-03
 Coeff:     -0.543D-03-0.389D-02 0.966D-02 0.158D-01-0.102D+00-0.428D-01
 Coeff:      0.112D+01
 Gap=     0.352 Goal=   None    Shift=    0.000
 RMSDP=3.50D-09 MaxDP=8.91D-08 DE=-6.37D-12 OVMax= 3.21D-07

 SCF Done:  E(RHF) =  -994.524866498     A.U. after   13 cycles
            NFock= 13  Conv=0.35D-08     -V/T= 2.0001
 KE= 9.944165700420D+02 PE=-2.620869261335D+03 EE= 5.103452698938D+02
 Leave Link  502 at Fri Nov  5 15:23:24 2021, MaxMem= 16106127360 cpu:              28.8 elap:               3.3
 (Enter /sw/contrib/gaussian/g16/B01/g16/l801.exe)
 ExpMin= 2.53D-02 ExpMax= 4.56D+05 ExpMxC= 1.44D+03 IAcc=3 IRadAn=         5 AccDes= 0.00D+00
 HarFok:  IExCor=  205 AccDes= 0.00D+00 IRadAn=         5 IDoV=-2 UseB2=F ITyADJ=14
 ICtDFT= 12500011 ScaDFX=  1.000000  1.000000  1.000000  1.000000
 Largest valence mixing into a core orbital is  4.48D-04
 Largest core mixing into a valence orbital is  1.73D-04
 Range of M.O.s used for correlation:    12   169
 NBasis=   169 NAE=    22 NBE=    22 NFC=    11 NFV=     0
 NROrb=    158 NOA=    11 NOB=    11 NVA=   147 NVB=   147

 **** Warning!!: The largest alpha MO coefficient is  0.21169135D+02

 Leave Link  801 at Fri Nov  5 15:23:25 2021, MaxMem= 16106127360 cpu:               4.8 elap:               0.3
 (Enter /sw/contrib/gaussian/g16/B01/g16/l906.exe)
 Frozen-core derivative calculation, NFC=  11 NFV=   0.
 FulOut=F Deriv=T AODrv=F NAtomX=     4
   MMem=         144  MDisk=          11 MDiskD=          11
  W3Min=      736164 MinDsk=     1250177 NBas6D=         198
 NBas2D=       20187    NTT=       19701    LW2=     3500000
    MDV= 16105751326 MDiskM=      406660 NBas2p=       19980
 Fully in-core method, ICMem=   420417501.
 IMap=   1   2   3   4   5   6   7   8   9  10  11  12  13  14  15  16  17  18  19  20
 IMap=  21  22
 JobTyp=1 Pass  1 fully in-core, NPsUse= 28.
 Compute canonical integrals.
 FoFCou: FMM=F IPFlag=           0 FMFlag=           0 FMFlg1=           0
         NFxFlg=           0 DoJE=F BraDBF=F KetDBF=F FulRan=T
         wScrn=  0.000000 ICntrl=       600 IOpCl=  1 I1Cent=           0 NGrid=           0
         NMat0=    1 NMatS0=  20187 NMatT0=    0 NMatD0=    1 NMtDS0=    0 NMtDT0=    0
 Symmetry not used in FoFCou.
 Spin components of T(2) and E(2):
     alpha-alpha T2 =       0.2907956105D-01 E2=     -0.8378114081D-01
     alpha-beta  T2 =       0.1588662404D+00 E2=     -0.4975989552D+00
     beta-beta   T2 =       0.2907956105D-01 E2=     -0.8378114081D-01
 The integrals were generated   1 times.
 ANorm=    0.1103188725D+01
 E2 =    -0.6651612368D+00 EUMP2 =    -0.99519002773479D+03
 Leave Link  906 at Fri Nov  5 15:23:30 2021, MaxMem= 16106127360 cpu:             135.3 elap:               4.9
 (Enter /sw/contrib/gaussian/g16/B01/g16/l1002.exe)
 Minotr:  Closed shell wavefunction.
          Computing MP2/KS-MP2 derivatives.
          Using Z-Vector for PSCF gradient.
          Skipping F1 and S1 gradient terms here.
          Frozen-core window.
          Direct CPHF calculation.
          Differentiating once with respect to electric field.
                with respect to dipole field.
          Electric field/nuclear overlap derivatives assumed to be zero.
          Requested convergence is 1.0D-10 RMS, and 1.0D-09 maximum.
          NewPWx=F KeepS1=T KeepF1=T KeepIn=T MapXYZ=F SortEE=F KeepMc=T.
 Keep R1 ints in memory in canonical form, NReq=117123285.
 FoFCou: FMM=F IPFlag=           0 FMFlag=           0 FMFlg1=           0
         NFxFlg=           0 DoJE=F BraDBF=F KetDBF=F FulRan=T
         wScrn=  0.000000 ICntrl=       600 IOpCl=  0 I1Cent=           0 NGrid=           0
         NMat0=    1 NMatS0=  14365 NMatT0=    0 NMatD0=    1 NMtDS0=    0 NMtDT0=    0
 Symmetry not used in FoFCou.
 Two-electron integral symmetry not used.
          MDV=   16106127360 using IRadAn=       5.
          Solving linear equations separately, MaxMat=       0.
          There are     1 degrees of freedom in the 1st order CPHF.  IDoFFX=0 NUNeed=     1.
 LinEq1:  Iter=  0 NonCon=     1 RMS=3.04D-03 Max=4.75D-02 NDo=     1
 AX will form     1 AO Fock derivatives at one time.
 LinEq1:  Iter=  1 NonCon=     1 RMS=3.82D-04 Max=5.17D-03 NDo=     1
 LinEq1:  Iter=  2 NonCon=     1 RMS=1.68D-04 Max=3.77D-03 NDo=     1
 LinEq1:  Iter=  3 NonCon=     1 RMS=6.50D-05 Max=1.12D-03 NDo=     1
 LinEq1:  Iter=  4 NonCon=     1 RMS=2.63D-05 Max=6.71D-04 NDo=     1
 LinEq1:  Iter=  5 NonCon=     1 RMS=5.68D-06 Max=7.35D-05 NDo=     1
 LinEq1:  Iter=  6 NonCon=     1 RMS=1.49D-06 Max=1.68D-05 NDo=     1
 LinEq1:  Iter=  7 NonCon=     1 RMS=3.02D-07 Max=3.57D-06 NDo=     1
 LinEq1:  Iter=  8 NonCon=     1 RMS=4.98D-08 Max=7.42D-07 NDo=     1
 LinEq1:  Iter=  9 NonCon=     1 RMS=1.02D-08 Max=1.24D-07 NDo=     1
 LinEq1:  Iter= 10 NonCon=     1 RMS=2.67D-09 Max=3.85D-08 NDo=     1
 LinEq1:  Iter= 11 NonCon=     1 RMS=8.38D-10 Max=1.67D-08 NDo=     1
 LinEq1:  Iter= 12 NonCon=     1 RMS=1.97D-10 Max=4.10D-09 NDo=     1
 LinEq1:  Iter= 13 NonCon=     0 RMS=4.63D-11 Max=8.97D-10 NDo=     1
 Linear equations converged to 1.000D-10 1.000D-09 after    13 iterations.
 End of Minotr F.D. properties file   721 does not exist.
 End of Minotr F.D. properties file   722 does not exist.
 End of Minotr F.D. properties file   788 does not exist.
 Leave Link 1002 at Fri Nov  5 15:23:34 2021, MaxMem= 16106127360 cpu:              28.8 elap:               3.7
 (Enter /sw/contrib/gaussian/g16/B01/g16/l601.exe)
 Copying SCF densities to generalized density rwf, IOpCl= 0 IROHF=0.

 **********************************************************************

            Population analysis using the MP2 Density.

 **********************************************************************

 Alpha  occ. eigenvalues -- -104.72898-104.54325 -20.45695 -10.44837 -10.26804
 Alpha  occ. eigenvalues --   -7.91551  -7.91290  -7.91281  -7.73419  -7.73406
 Alpha  occ. eigenvalues --   -7.73405  -1.23041  -0.89707  -0.78180  -0.54446
 Alpha  occ. eigenvalues --   -0.43828  -0.42939  -0.30775  -0.28029  -0.19997
 Alpha  occ. eigenvalues --   -0.19130  -0.19126
 Alpha virt. eigenvalues --    0.16029   0.18396   0.22558   0.23424   0.25950
 Alpha virt. eigenvalues --    0.27407   0.27644   0.28735   0.30835   0.32349
 Alpha virt. eigenvalues --    0.33510   0.34957   0.38831   0.44675   0.46101
 Alpha virt. eigenvalues --    0.51574   0.52353   0.53829   0.56457   0.57102
 Alpha virt. eigenvalues --    0.59169   0.60031   0.60035   0.65226   0.66023
 Alpha virt. eigenvalues --    0.68364   0.68478   0.74791   0.78229   0.79333
 Alpha virt. eigenvalues --    0.83192   0.88370   0.88493   0.89906   0.90465
 Alpha virt. eigenvalues --    0.92367   0.96304   0.99928   1.05164   1.05623
 Alpha virt. eigenvalues --    1.07650   1.08570   1.09400   1.10118   1.14192
 Alpha virt. eigenvalues --    1.14333   1.16709   1.18795   1.19083   1.20760
 Alpha virt. eigenvalues --    1.22208   1.24325   1.28874   1.31624   1.32308
 Alpha virt. eigenvalues --    1.37209   1.40531   1.42969   1.43356   1.47092
 Alpha virt. eigenvalues --    1.47544   1.49611   1.54867   1.60710   1.64632
 Alpha virt. eigenvalues --    1.66994   1.68987   1.71632   1.73294   1.80464
 Alpha virt. eigenvalues --    1.80941   1.82824   1.84522   1.90954   1.95106
 Alpha virt. eigenvalues --    1.99850   2.27879   2.38627   2.50862   2.53112
 Alpha virt. eigenvalues --    2.53805   2.57529   2.59556   2.62639   2.68745
 Alpha virt. eigenvalues --    2.68920   2.70095   2.72137   2.74247   2.75742
 Alpha virt. eigenvalues --    2.76656   2.78592   2.80366   2.82550   2.90270
 Alpha virt. eigenvalues --    2.92678   2.98377   2.98915   3.06081   3.08328
 Alpha virt. eigenvalues --    3.11395   3.15029   3.18864   3.22016   3.22232
 Alpha virt. eigenvalues --    3.26830   3.30360   3.31402   3.33808   3.34208
 Alpha virt. eigenvalues --    3.40150   3.41399   3.43353   3.48806   3.51941
 Alpha virt. eigenvalues --    3.53016   3.54674   3.58957   3.68909   3.97637
 Alpha virt. eigenvalues --    4.27929   4.35347   4.48395   4.59495   4.61500
 Alpha virt. eigenvalues --    4.80926   5.01879   5.20330   5.50139   5.52966
 Alpha virt. eigenvalues --    5.75325   6.26886   6.54106   6.66677   6.86705
 Alpha virt. eigenvalues --    6.91260   6.91747   7.01333   7.33896   7.38568
 Alpha virt. eigenvalues --    7.42913   7.46383   7.54813   7.82638   7.84650
 Alpha virt. eigenvalues --    8.44787  15.54513
          Condensed to atoms (all electrons):
               1          2          3          4
     1  O    8.604820  -0.103987  -0.085971   0.048652
     2  Cl  -0.103987  17.054351   0.001401  -0.000940
     3  Cl  -0.085971   0.001401  17.883954   0.065554
     4  H    0.048652  -0.000940   0.065554   0.607456
 Mulliken charges:
               1
     1  O   -0.463514
     2  Cl   0.049174
     3  Cl  -0.864939
     4  H    0.279279
 Sum of Mulliken charges =  -1.00000
 Mulliken charges with hydrogens summed into heavy atoms:
               1
     1  O   -0.184235
     2  Cl   0.049174
     3  Cl  -0.864939
 Electronic spatial extent (au):  <R**2>=            806.4711
 Charge=             -1.0000 electrons
 Dipole moment (field-independent basis, Debye):
    X=              1.5428    Y=             10.0272    Z=             -0.0000  Tot=             10.1452
 Quadrupole moment (field-independent basis, Debye-Ang):
   XX=            -38.5346   YY=            -68.3620   ZZ=            -36.7000
   XY=             -7.4212   XZ=             -0.0000   YZ=              0.0000
 Traceless Quadrupole moment (field-independent basis, Debye-Ang):
   XX=              9.3310   YY=            -20.4965   ZZ=             11.1655
   XY=             -7.4212   XZ=             -0.0000   YZ=              0.0000
 Octapole moment (field-independent basis, Debye-Ang**2):
  XXX=            -32.5858  YYY=            235.6269  ZZZ=              0.0000  XYY=              8.3702
  XXY=             52.0005  XXZ=              0.0000  XZZ=            -12.5222  YZZ=             47.7986
  YYZ=             -0.0000  XYZ=              0.0000
 Hexadecapole moment (field-independent basis, Debye-Ang**3):
 XXXX=           -301.2168 YYYY=          -1122.5761 ZZZZ=            -49.9562 XXXY=            -94.7061
 XXXZ=             -0.0000 YYYX=           -148.9795 YYYZ=              0.0000 ZZZX=             -0.0000
 ZZZY=             -0.0000 XXYY=           -211.8053 XXZZ=            -63.4106 YYZZ=           -152.8516
 XXYZ=              0.0000 YYXZ=             -0.0000 ZZXY=            -30.5130
 N-N= 1.215825549013D+02 E-N=-2.620928822298D+03  KE= 9.950700873738D+02
 No NMR shielding tensors so no spin-rotation constants.
 Leave Link  601 at Fri Nov  5 15:23:34 2021, MaxMem= 16106127360 cpu:               5.4 elap:               0.3
 (Enter /sw/contrib/gaussian/g16/B01/g16/l607.exe)
 ******************************Gaussian NBO Version 3.1******************************
             N A T U R A L   A T O M I C   O R B I T A L   A N D
          N A T U R A L   B O N D   O R B I T A L   A N A L Y S I S
 ******************************Gaussian NBO Version 3.1******************************
       /RESON  / : Allow strongly delocalized NBO set

 Analyzing the MP2 density

 Job title: title                                                           

 Storage needed:     86521 in NPA,    114817 in NBO (********** available)
 GSVD:  LWork=        1191 too small for GESVD, short by       52514 words or       52514 for optimal perf.


 NATURAL POPULATIONS:  Natural atomic orbital occupancies 
                                                          
   NAO  Atom  No  lang   Type(AO)    Occupancy
 --------------------------------------------
     1    O    1  S      Cor( 1S)     1.99965
     2    O    1  S      Val( 2S)     1.78019
     3    O    1  S      Ryd( 3S)     0.00926
     4    O    1  S      Ryd( 4S)     0.00106
     5    O    1  S      Ryd( 5S)     0.00018
     6    O    1  px     Val( 2p)     1.19927
     7    O    1  px     Ryd( 3p)     0.00637
     8    O    1  px     Ryd( 4p)     0.00061
     9    O    1  px     Ryd( 5p)     0.00035
    10    O    1  py     Val( 2p)     1.70711
    11    O    1  py     Ryd( 3p)     0.01200
    12    O    1  py     Ryd( 4p)     0.00078
    13    O    1  py     Ryd( 5p)     0.00039
    14    O    1  pz     Val( 2p)     1.94857
    15    O    1  pz     Ryd( 3p)     0.01987
    16    O    1  pz     Ryd( 4p)     0.00068
    17    O    1  pz     Ryd( 5p)     0.00013
    18    O    1  dxy    Ryd( 3d)     0.00858
    19    O    1  dxy    Ryd( 4d)     0.00045
    20    O    1  dxy    Ryd( 5d)     0.00014
    21    O    1  dxz    Ryd( 3d)     0.00854
    22    O    1  dxz    Ryd( 4d)     0.00056
    23    O    1  dxz    Ryd( 5d)     0.00009
    24    O    1  dyz    Ryd( 3d)     0.00759
    25    O    1  dyz    Ryd( 4d)     0.00059
    26    O    1  dyz    Ryd( 5d)     0.00038
    27    O    1  dx2y2  Ryd( 3d)     0.01346
    28    O    1  dx2y2  Ryd( 4d)     0.00034
    29    O    1  dx2y2  Ryd( 5d)     0.00017
    30    O    1  dz2    Ryd( 3d)     0.00974
    31    O    1  dz2    Ryd( 4d)     0.00054
    32    O    1  dz2    Ryd( 5d)     0.00014
    33    O    1  f(0)   Ryd( 4f)     0.00071
    34    O    1  f(0)   Ryd( 5f)     0.00010
    35    O    1  f(C1)  Ryd( 4f)     0.00067
    36    O    1  f(C1)  Ryd( 5f)     0.00011
    37    O    1  f(S1)  Ryd( 4f)     0.00056
    38    O    1  f(S1)  Ryd( 5f)     0.00011
    39    O    1  f(C2)  Ryd( 4f)     0.00058
    40    O    1  f(C2)  Ryd( 5f)     0.00012
    41    O    1  f(S2)  Ryd( 4f)     0.00053
    42    O    1  f(S2)  Ryd( 5f)     0.00012
    43    O    1  f(C3)  Ryd( 4f)     0.00057
    44    O    1  f(C3)  Ryd( 5f)     0.00014
    45    O    1  f(S3)  Ryd( 4f)     0.00053
    46    O    1  f(S3)  Ryd( 5f)     0.00014

    47   Cl    2  S      Cor( 1S)     2.00000
    48   Cl    2  S      Cor( 2S)     1.99981
    49   Cl    2  S      Val( 3S)     1.88585
    50   Cl    2  S      Ryd( 4S)     0.00792
    51   Cl    2  S      Ryd( 5S)     0.00054
    52   Cl    2  S      Ryd( 6S)     0.00015
    53   Cl    2  px     Cor( 2p)     1.99997
    54   Cl    2  px     Val( 3p)     0.91077
    55   Cl    2  px     Ryd( 4p)     0.00642
    56   Cl    2  px     Ryd( 5p)     0.00052
    57   Cl    2  px     Ryd( 6p)     0.00020
    58   Cl    2  py     Cor( 2p)     2.00003
    59   Cl    2  py     Val( 3p)     1.95358
    60   Cl    2  py     Ryd( 4p)     0.00977
    61   Cl    2  py     Ryd( 5p)     0.00051
    62   Cl    2  py     Ryd( 6p)     0.00008
    63   Cl    2  pz     Cor( 2p)     2.00003
    64   Cl    2  pz     Val( 3p)     1.95458
    65   Cl    2  pz     Ryd( 4p)     0.01051
    66   Cl    2  pz     Ryd( 5p)     0.00068
    67   Cl    2  pz     Ryd( 6p)     0.00003
    68   Cl    2  dxy    Ryd( 3d)     0.01656
    69   Cl    2  dxy    Ryd( 4d)     0.00082
    70   Cl    2  dxy    Ryd( 5d)     0.00033
    71   Cl    2  dxz    Ryd( 3d)     0.02132
    72   Cl    2  dxz    Ryd( 4d)     0.00109
    73   Cl    2  dxz    Ryd( 5d)     0.00036
    74   Cl    2  dyz    Ryd( 3d)     0.01677
    75   Cl    2  dyz    Ryd( 4d)     0.00073
    76   Cl    2  dyz    Ryd( 5d)     0.00019
    77   Cl    2  dx2y2  Ryd( 3d)     0.01835
    78   Cl    2  dx2y2  Ryd( 4d)     0.00047
    79   Cl    2  dx2y2  Ryd( 5d)     0.00016
    80   Cl    2  dz2    Ryd( 3d)     0.01743
    81   Cl    2  dz2    Ryd( 4d)     0.00059
    82   Cl    2  dz2    Ryd( 5d)     0.00016
    83   Cl    2  f(0)   Ryd( 4f)     0.00131
    84   Cl    2  f(0)   Ryd( 5f)     0.00013
    85   Cl    2  f(C1)  Ryd( 4f)     0.00144
    86   Cl    2  f(C1)  Ryd( 5f)     0.00014
    87   Cl    2  f(S1)  Ryd( 4f)     0.00127
    88   Cl    2  f(S1)  Ryd( 5f)     0.00013
    89   Cl    2  f(C2)  Ryd( 4f)     0.00134
    90   Cl    2  f(C2)  Ryd( 5f)     0.00013
    91   Cl    2  f(S2)  Ryd( 4f)     0.00120
    92   Cl    2  f(S2)  Ryd( 5f)     0.00013
    93   Cl    2  f(C3)  Ryd( 4f)     0.00154
    94   Cl    2  f(C3)  Ryd( 5f)     0.00013
    95   Cl    2  f(S3)  Ryd( 4f)     0.00126
    96   Cl    2  f(S3)  Ryd( 5f)     0.00014

    97   Cl    3  S      Cor( 1S)     2.00000
    98   Cl    3  S      Cor( 2S)     1.99998
    99   Cl    3  S      Val( 3S)     1.96777
   100   Cl    3  S      Ryd( 4S)     0.00177
   101   Cl    3  S      Ryd( 5S)     0.00022
   102   Cl    3  S      Ryd( 6S)     0.00009
   103   Cl    3  px     Cor( 2p)     2.00003
   104   Cl    3  px     Val( 3p)     1.94819
   105   Cl    3  px     Ryd( 4p)     0.01248
   106   Cl    3  px     Ryd( 5p)     0.00056
   107   Cl    3  px     Ryd( 6p)     0.00007
   108   Cl    3  py     Cor( 2p)     2.00002
   109   Cl    3  py     Val( 3p)     1.87402
   110   Cl    3  py     Ryd( 4p)     0.01057
   111   Cl    3  py     Ryd( 5p)     0.00053
   112   Cl    3  py     Ryd( 6p)     0.00007
   113   Cl    3  pz     Cor( 2p)     2.00003
   114   Cl    3  pz     Val( 3p)     1.95230
   115   Cl    3  pz     Ryd( 4p)     0.01267
   116   Cl    3  pz     Ryd( 5p)     0.00057
   117   Cl    3  pz     Ryd( 6p)     0.00005
   118   Cl    3  dxy    Ryd( 3d)     0.01853
   119   Cl    3  dxy    Ryd( 4d)     0.00069
   120   Cl    3  dxy    Ryd( 5d)     0.00012
   121   Cl    3  dxz    Ryd( 3d)     0.01828
   122   Cl    3  dxz    Ryd( 4d)     0.00097
   123   Cl    3  dxz    Ryd( 5d)     0.00013
   124   Cl    3  dyz    Ryd( 3d)     0.01859
   125   Cl    3  dyz    Ryd( 4d)     0.00072
   126   Cl    3  dyz    Ryd( 5d)     0.00012
   127   Cl    3  dx2y2  Ryd( 3d)     0.01830
   128   Cl    3  dx2y2  Ryd( 4d)     0.00083
   129   Cl    3  dx2y2  Ryd( 5d)     0.00012
   130   Cl    3  dz2    Ryd( 3d)     0.01826
   131   Cl    3  dz2    Ryd( 4d)     0.00093
   132   Cl    3  dz2    Ryd( 5d)     0.00011
   133   Cl    3  f(0)   Ryd( 4f)     0.00128
   134   Cl    3  f(0)   Ryd( 5f)     0.00015
   135   Cl    3  f(C1)  Ryd( 4f)     0.00129
   136   Cl    3  f(C1)  Ryd( 5f)     0.00014
   137   Cl    3  f(S1)  Ryd( 4f)     0.00129
   138   Cl    3  f(S1)  Ryd( 5f)     0.00017
   139   Cl    3  f(C2)  Ryd( 4f)     0.00128
   140   Cl    3  f(C2)  Ryd( 5f)     0.00016
   141   Cl    3  f(S2)  Ryd( 4f)     0.00129
   142   Cl    3  f(S2)  Ryd( 5f)     0.00015
   143   Cl    3  f(C3)  Ryd( 4f)     0.00127
   144   Cl    3  f(C3)  Ryd( 5f)     0.00016
   145   Cl    3  f(S3)  Ryd( 4f)     0.00127
   146   Cl    3  f(S3)  Ryd( 5f)     0.00017

   147    H    4  S      Val( 1S)     0.49303
   148    H    4  S      Ryd( 2S)     0.00880
   149    H    4  S      Ryd( 3S)     0.00023
   150    H    4  S      Ryd( 4S)     0.00014
   151    H    4  px     Ryd( 2p)     0.00390
   152    H    4  px     Ryd( 3p)     0.00050
   153    H    4  px     Ryd( 4p)     0.00012
   154    H    4  py     Ryd( 2p)     0.00538
   155    H    4  py     Ryd( 3p)     0.00092
   156    H    4  py     Ryd( 4p)     0.00034
   157    H    4  pz     Ryd( 2p)     0.00513
   158    H    4  pz     Ryd( 3p)     0.00039
   159    H    4  pz     Ryd( 4p)     0.00025
   160    H    4  dxy    Ryd( 3d)     0.00025
   161    H    4  dxy    Ryd( 4d)     0.00012
   162    H    4  dxz    Ryd( 3d)     0.00022
   163    H    4  dxz    Ryd( 4d)     0.00007
   164    H    4  dyz    Ryd( 3d)     0.00041
   165    H    4  dyz    Ryd( 4d)     0.00011
   166    H    4  dx2y2  Ryd( 3d)     0.00020
   167    H    4  dx2y2  Ryd( 4d)     0.00012
   168    H    4  dz2    Ryd( 3d)     0.00023
   169    H    4  dz2    Ryd( 4d)     0.00009


 Summary of Natural Population Analysis:                  
                                                          
                                       Natural Population 
                Natural  -----------------------------------------------
    Atom  No    Charge         Core      Valence    Rydberg      Total
 -----------------------------------------------------------------------
      O    1   -0.74278      1.99965     6.63514    0.10799     8.74278
     Cl    2    0.15244      9.99983     6.70478    0.14294    16.84756
     Cl    3   -0.88872     10.00005     7.74227    0.14640    17.88872
      H    4    0.47906      0.00000     0.49303    0.02791     0.52094
 =======================================================================
   * Total *   -1.00000     21.99954    21.57523    0.42523    44.00000

                                 Natural Population      
 --------------------------------------------------------
   Core                      21.99954 ( 99.9979% of  22)
   Valence                   21.57523 ( 98.0692% of  22)
   Natural Minimal Basis     43.57477 ( 99.0336% of  44)
   Natural Rydberg Basis      0.42523 (  0.9664% of  44)
 --------------------------------------------------------

    Atom  No          Natural Electron Configuration
 ----------------------------------------------------------------------------
      O    1      [core]2S( 1.78)2p( 4.85)3S( 0.01)3p( 0.04)3d( 0.05)
     Cl    2      [core]3S( 1.89)3p( 4.82)4S( 0.01)3d( 0.09)4p( 0.03)4f( 0.01)
     Cl    3      [core]3S( 1.97)3p( 5.77)3d( 0.09)4p( 0.04)4f( 0.01)
      H    4            1S( 0.49)2S( 0.01)2p( 0.01)


 NATURAL BOND ORBITAL ANALYSIS:
 Warning:  a bond orbital has occupanc of -0.00001

                       Occupancies       Lewis Structure    Low   High
           Occ.    -------------------  -----------------   occ   occ
  Cycle   Thresh.   Lewis   Non-Lewis     CR  BD  3C  LP    (L)   (NL)   Dev
 =============================================================================
   1(1)    1.90    43.45450   0.54550     11   2   0   9     1      1    0.13
 Warning:  a bond orbital has occupanc of -0.00001
   2(2)    1.90    43.45450   0.54550     11   2   0   9     1      1    0.13
 Warning:  a bond orbital has occupanc of -0.00001
   3(1)    1.80    43.45450   0.54550     11   2   0   9     0      1    0.13
 Warning:  a bond orbital has occupanc of -0.00001
   4(2)    1.80    43.45450   0.54550     11   2   0   9     0      1    0.13
 Warning:  a bond orbital has occupanc of -0.00001
   5(1)    1.70    43.45450   0.54550     11   2   0   9     0      1    0.13
 Warning:  a bond orbital has occupanc of -0.00001
   6(2)    1.70    43.45450   0.54550     11   2   0   9     0      1    0.13
 Warning:  a bond orbital has occupanc of -0.00001
   7(1)    1.60    43.45450   0.54550     11   2   0   9     0      1    0.13
 Warning:  a bond orbital has occupanc of -0.00001
   8(2)    1.60    43.45450   0.54550     11   2   0   9     0      1    0.13
 Warning:  a bond orbital has occupanc of -0.00001
   9(1)    1.50    43.06964   0.93036     11   1   0  10     0      1    0.58
 Warning:  a bond orbital has occupanc of -0.00001
  10(2)    1.50    43.06964   0.93036     11   1   0  10     0      1    0.58
 Warning:  a bond orbital has occupanc of -0.00001
  11(1)    1.90    43.45450   0.54550     11   2   0   9     1      1    0.13
 -----------------------------------------------------------------------------

 Structure accepted: RESONANCE keyword permits strongly delocalized structure

 --------------------------------------------------------
   Core                     21.99954 ( 99.998% of  22)
   Valence Lewis            21.45496 ( 97.523% of  22)
  ==================       ============================
   Total Lewis              43.45450 ( 98.760% of  44)
  -----------------------------------------------------
   Valence non-Lewis         0.16557 (  0.376% of  44)
   Rydberg non-Lewis         0.37993 (  0.863% of  44)
  ==================       ============================
   Total non-Lewis           0.54550 (  1.240% of  44)
 --------------------------------------------------------


       (Occupancy)   Bond orbital/ Coefficients/ Hybrids
 ---------------------------------------------------------------------------------
     1. (1.93872) BD ( 1) O   1 -Cl   2  
                ( 58.57%)   0.7653* O   1 s( 10.02%)p 8.93( 89.46%)d 0.05(  0.51%)
                                                  f 0.00(  0.02%)
                                            0.0003  0.3135 -0.0412 -0.0148 -0.0005
                                            0.9446 -0.0287 -0.0102 -0.0110 -0.0180
                                           -0.0293 -0.0053 -0.0001  0.0000  0.0000
                                            0.0000  0.0000 -0.0225 -0.0014  0.0028
                                            0.0000  0.0000  0.0000  0.0000  0.0000
                                            0.0000  0.0522  0.0050  0.0026 -0.0422
                                           -0.0038  0.0004  0.0000  0.0000 -0.0114
                                            0.0013 -0.0003  0.0002  0.0000  0.0000
                                            0.0000  0.0000  0.0055  0.0006 -0.0006
                                            0.0022
                ( 41.43%)   0.6437*Cl   2 s(  8.28%)p10.92( 90.50%)d 0.13(  1.11%)
                                                  f 0.01(  0.11%)
                                           -0.0000  0.0005  0.2821 -0.0559 -0.0106
                                           -0.0019 -0.0004 -0.9490  0.0641  0.0142
                                           -0.0048 -0.0000 -0.0096 -0.0018  0.0024
                                           -0.0008  0.0000  0.0000  0.0000  0.0000
                                            0.0000  0.0120 -0.0000  0.0008  0.0000
                                            0.0000  0.0000  0.0000  0.0000  0.0000
                                            0.0877 -0.0105 -0.0003 -0.0557  0.0059
                                            0.0008  0.0000  0.0000  0.0207 -0.0034
                                            0.0005 -0.0002  0.0000  0.0000  0.0000
                                            0.0000 -0.0252  0.0031 -0.0012  0.0002
     2. (1.96694) BD ( 1) O   1 - H   4  
                ( 79.28%)   0.8904* O   1 s( 30.95%)p 2.22( 68.56%)d 0.02(  0.48%)
                                                  f 0.00(  0.01%)
                                           -0.0003 -0.5562  0.0060  0.0079 -0.0022
                                            0.1977 -0.0169 -0.0027 -0.0031  0.8037
                                           -0.0091 -0.0070 -0.0038  0.0000  0.0000
                                            0.0000  0.0000  0.0002  0.0028  0.0001
                                            0.0000  0.0000  0.0000  0.0000  0.0000
                                            0.0000  0.0588  0.0052  0.0021  0.0365
                                            0.0011 -0.0029  0.0000  0.0000 -0.0015
                                           -0.0007 -0.0085 -0.0005  0.0000  0.0000
                                            0.0000  0.0000 -0.0017 -0.0025  0.0004
                                           -0.0025
                ( 20.72%)   0.4552* H   4 s( 99.84%)p 0.00(  0.16%)d 0.00(  0.00%)
                                           -0.9984 -0.0411 -0.0017  0.0016 -0.0110
                                           -0.0081 -0.0021  0.0167 -0.0316  0.0099
                                            0.0000  0.0000  0.0000  0.0006  0.0022
                                            0.0000  0.0000  0.0000  0.0000  0.0011
                                            0.0005 -0.0006  0.0033
     3. (1.99965) CR ( 1) O   1           s(100.00%)p 0.00(  0.00%)
                                            1.0000 -0.0004  0.0000  0.0000 -0.0000
                                           -0.0002  0.0000  0.0000  0.0000  0.0001
                                            0.0000 -0.0000 -0.0000  0.0000  0.0000
                                            0.0000  0.0000  0.0000  0.0000 -0.0000
                                            0.0000  0.0000  0.0000  0.0000  0.0000
                                            0.0000 -0.0000  0.0000  0.0000  0.0000
                                            0.0000 -0.0000  0.0000  0.0000  0.0000
                                           -0.0000 -0.0000 -0.0000  0.0000  0.0000
                                            0.0000  0.0000 -0.0000 -0.0000 -0.0000
                                           -0.0000
     4. (2.00000) CR ( 1)Cl   2           s(100.00%)
                                            1.0000  0.0000  0.0000 -0.0000 -0.0000
                                           -0.0000 -0.0000 -0.0000  0.0000  0.0000
                                           -0.0000 -0.0000 -0.0000 -0.0000  0.0000
                                           -0.0000  0.0000  0.0000  0.0000  0.0000
                                            0.0000  0.0000 -0.0000  0.0000  0.0000
                                            0.0000  0.0000  0.0000  0.0000  0.0000
                                            0.0000 -0.0000 -0.0000 -0.0000  0.0000
                                            0.0000  0.0000  0.0000  0.0000 -0.0000
                                            0.0000 -0.0000  0.0000  0.0000  0.0000
                                            0.0000 -0.0000  0.0000 -0.0000  0.0000
     5. (1.99981) CR ( 2)Cl   2           s(100.00%)p 0.00(  0.00%)
                                            0.0000  1.0000 -0.0004  0.0000  0.0000
                                            0.0000  0.0000  0.0004 -0.0000 -0.0000
                                            0.0000  0.0000  0.0000  0.0000 -0.0000
                                            0.0000  0.0000  0.0000  0.0000  0.0000
                                            0.0000 -0.0000  0.0000 -0.0000  0.0000
                                            0.0000  0.0000  0.0000  0.0000  0.0000
                                           -0.0000  0.0000  0.0000  0.0000 -0.0000
                                           -0.0000  0.0000  0.0000 -0.0000  0.0000
                                           -0.0000  0.0000  0.0000  0.0000  0.0000
                                            0.0000  0.0000 -0.0000  0.0000 -0.0000
     6. (1.99996) CR ( 3)Cl   2           s(  0.00%)p 1.00(100.00%)
                                           -0.0000  0.0000  0.0001 -0.0000 -0.0000
                                           -0.0000  1.0000 -0.0004  0.0000  0.0000
                                           -0.0000  0.0000 -0.0000 -0.0000  0.0000
                                           -0.0000  0.0000  0.0000  0.0000  0.0000
                                            0.0000  0.0000 -0.0000  0.0000  0.0000
                                            0.0000  0.0000  0.0000  0.0000  0.0000
                                            0.0000 -0.0000 -0.0000 -0.0000  0.0000
                                            0.0000  0.0000  0.0000  0.0000 -0.0000
                                            0.0000 -0.0000  0.0000  0.0000  0.0000
                                            0.0000 -0.0000  0.0000 -0.0000  0.0000
     7. (2.00003) CR ( 4)Cl   2           s(  0.00%)p 1.00(100.00%)
                                           -0.0000  0.0000  0.0000  0.0000  0.0000
                                           -0.0000  0.0000 -0.0000  0.0000  0.0000
                                           -0.0000  1.0000  0.0002  0.0000  0.0000
                                           -0.0000  0.0000  0.0000  0.0000  0.0000
                                            0.0000  0.0000  0.0000  0.0000  0.0000
                                            0.0000  0.0000  0.0000  0.0000  0.0000
                                           -0.0000 -0.0000 -0.0000 -0.0000 -0.0000
                                           -0.0000  0.0000  0.0000  0.0000  0.0000
                                           -0.0000  0.0000  0.0000  0.0000  0.0000
                                            0.0000 -0.0000  0.0000  0.0000 -0.0000
     8. (2.00003) CR ( 5)Cl   2           s(  0.00%)p 1.00(100.00%)
                                            0.0000  0.0000  0.0000  0.0000  0.0000
                                            0.0000  0.0000  0.0000  0.0000  0.0000
                                            0.0000  0.0000  0.0000  0.0000  0.0000
                                            0.0000  1.0000  0.0002  0.0000  0.0000
                                           -0.0000  0.0000  0.0000  0.0000  0.0000
                                            0.0000  0.0000  0.0000  0.0000  0.0000
                                            0.0000  0.0000  0.0000  0.0000  0.0000
                                            0.0000 -0.0000  0.0000  0.0000  0.0000
                                            0.0000  0.0000  0.0000 -0.0000  0.0000
                                           -0.0000  0.0000  0.0000  0.0000  0.0000
     9. (2.00000) CR ( 1)Cl   3           s(100.00%)
                                            1.0000  0.0000  0.0000 -0.0000  0.0000
                                           -0.0000  0.0000 -0.0000  0.0000 -0.0000
                                            0.0000  0.0000 -0.0000  0.0000 -0.0000
                                            0.0000  0.0000  0.0000  0.0000  0.0000
                                            0.0000 -0.0000 -0.0000 -0.0000  0.0000
                                            0.0000  0.0000  0.0000  0.0000  0.0000
                                            0.0000 -0.0000  0.0000  0.0000 -0.0000
                                            0.0000  0.0000  0.0000  0.0000  0.0000
                                           -0.0000 -0.0000  0.0000  0.0000  0.0000
                                            0.0000 -0.0000  0.0000 -0.0000 -0.0000
    10. (1.99997) CR ( 2)Cl   3           s(100.00%)
                                            0.0000  1.0000 -0.0001  0.0000 -0.0000
                                            0.0000 -0.0000  0.0000 -0.0000  0.0000
                                            0.0000 -0.0000  0.0000 -0.0000  0.0000
                                           -0.0000  0.0000  0.0000  0.0000  0.0000
                                            0.0000  0.0000  0.0000  0.0000  0.0000
                                            0.0000  0.0000  0.0000  0.0000  0.0000
                                           -0.0000  0.0000 -0.0000 -0.0000  0.0000
                                           -0.0000  0.0000  0.0000  0.0000 -0.0000
                                            0.0000  0.0000  0.0000  0.0000  0.0000
                                            0.0000  0.0000  0.0000  0.0000  0.0000
    11. (2.00003) CR ( 3)Cl   3           s(  0.00%)p 1.00(100.00%)
                                            0.0000 -0.0000 -0.0000  0.0000 -0.0000
                                            0.0000  1.0000  0.0000  0.0000  0.0000
                                           -0.0000  0.0000 -0.0000 -0.0000 -0.0000
                                            0.0000  0.0000  0.0000  0.0000  0.0000
                                            0.0000  0.0000  0.0000 -0.0000  0.0000
                                            0.0000  0.0000  0.0000  0.0000  0.0000
                                            0.0000  0.0000 -0.0000  0.0000 -0.0000
                                           -0.0000  0.0000  0.0000 -0.0000 -0.0000
                                            0.0000  0.0000  0.0000  0.0000  0.0000
                                            0.0000 -0.0000 -0.0000  0.0000  0.0000
    12. (2.00002) CR ( 4)Cl   3           s(  0.00%)p 1.00(100.00%)
                                            0.0000 -0.0000 -0.0000  0.0000 -0.0000
                                            0.0000  0.0000 -0.0000 -0.0000 -0.0000
                                            0.0000  1.0000  0.0000 -0.0000  0.0000
                                           -0.0000  0.0000  0.0000  0.0000  0.0000
                                            0.0000 -0.0000 -0.0000  0.0000  0.0000
                                            0.0000  0.0000  0.0000  0.0000  0.0000
                                           -0.0000  0.0000 -0.0000 -0.0000  0.0000
                                           -0.0000  0.0000  0.0000  0.0000  0.0000
                                            0.0000  0.0000  0.0000  0.0000  0.0000
                                            0.0000  0.0000  0.0000 -0.0000 -0.0000
    13. (2.00003) CR ( 5)Cl   3           s(  0.00%)p 1.00(100.00%)
                                            0.0000  0.0000  0.0000  0.0000  0.0000
                                            0.0000  0.0000  0.0000  0.0000  0.0000
                                            0.0000  0.0000  0.0000  0.0000  0.0000
                                            0.0000  1.0000  0.0000  0.0000  0.0000
                                           -0.0000  0.0000  0.0000  0.0000  0.0000
                                            0.0000 -0.0000  0.0000  0.0000 -0.0000
                                            0.0000  0.0000  0.0000  0.0000  0.0000
                                            0.0000 -0.0000 -0.0000  0.0000  0.0000
                                            0.0000  0.0000 -0.0000 -0.0000  0.0000
                                            0.0000  0.0000  0.0000  0.0000  0.0000
    14. (1.96647) LP ( 1) O   1           s( 59.16%)p 0.69( 40.74%)d 0.00(  0.10%)
                                                  f 0.00(  0.00%)
                                            0.0002  0.7690  0.0116  0.0084 -0.0016
                                           -0.2431 -0.0035 -0.0040 -0.0023  0.5901
                                            0.0085  0.0058  0.0018  0.0000  0.0000
                                            0.0000  0.0000  0.0224  0.0021 -0.0036
                                            0.0000  0.0000  0.0000  0.0000  0.0000
                                            0.0000  0.0167 -0.0002 -0.0044  0.0125
                                            0.0007  0.0005  0.0000  0.0000  0.0001
                                            0.0005 -0.0029  0.0002  0.0000  0.0000
                                            0.0000  0.0000  0.0033 -0.0021  0.0037
                                           -0.0019
    15. (1.95325) LP ( 2) O   1           s(  0.00%)p 1.00( 99.81%)d 0.00(  0.18%)
                                                  f 0.00(  0.01%)
                                            0.0000  0.0000  0.0000  0.0000  0.0000
                                            0.0000  0.0000  0.0000  0.0000  0.0000
                                            0.0000  0.0000  0.0000  0.9988  0.0201
                                            0.0062  0.0066  0.0000  0.0000  0.0000
                                            0.0296  0.0051 -0.0005 -0.0268  0.0045
                                            0.0123  0.0000  0.0000  0.0000  0.0000
                                            0.0000  0.0000 -0.0102  0.0005  0.0000
                                            0.0000  0.0000  0.0000  0.0045 -0.0024
                                            0.0009  0.0013  0.0000  0.0000  0.0000
                                            0.0000
    16. (1.97431) LP ( 1)Cl   2           s( 91.93%)p 0.09(  8.05%)d 0.00(  0.02%)
                                                  f 0.00(  0.00%)
                                            0.0000  0.0003  0.9588  0.0065  0.0012
                                            0.0002  0.0000  0.2828 -0.0059 -0.0029
                                            0.0013  0.0000 -0.0207  0.0016  0.0002
                                           -0.0004  0.0000  0.0000  0.0000  0.0000
                                            0.0000  0.0000 -0.0003 -0.0004  0.0000
                                            0.0000  0.0000  0.0000  0.0000  0.0000
                                           -0.0115  0.0006 -0.0000  0.0073  0.0005
                                            0.0004  0.0000  0.0000 -0.0019 -0.0004
                                            0.0001 -0.0000  0.0000  0.0000  0.0000
                                            0.0000  0.0032 -0.0000 -0.0005  0.0003
    17. (1.95615) LP ( 2)Cl   2           s(  0.00%)p 1.00( 99.95%)d 0.00(  0.05%)
                                                  f 0.00(  0.01%)
                                            0.0000  0.0000  0.0000  0.0000  0.0000
                                            0.0000  0.0000  0.0000  0.0000  0.0000
                                            0.0000  0.0000  0.0000  0.0000  0.0000
                                            0.0000 -0.0002  0.9996  0.0153  0.0051
                                           -0.0023  0.0000  0.0000  0.0000  0.0081
                                            0.0174  0.0085  0.0039  0.0032  0.0009
                                            0.0000  0.0000  0.0000  0.0000  0.0000
                                            0.0000 -0.0054  0.0010  0.0000  0.0000
                                            0.0000  0.0000  0.0066 -0.0011  0.0009
                                           -0.0007  0.0000  0.0000  0.0000  0.0000
    18. (1.95508) LP ( 3)Cl   2           s(  0.06%)p99.99( 99.89%)d 0.68(  0.04%)
                                                  f 0.15(  0.01%)
                                            0.0000 -0.0000  0.0228  0.0066  0.0039
                                           -0.0018  0.0000 -0.0044 -0.0004 -0.0002
                                           -0.0007 -0.0002  0.9994  0.0128  0.0016
                                            0.0000  0.0000  0.0000  0.0000  0.0000
                                            0.0000 -0.0006  0.0149  0.0080  0.0000
                                            0.0000  0.0000  0.0000  0.0000  0.0000
                                           -0.0081 -0.0050 -0.0030 -0.0011 -0.0029
                                           -0.0005  0.0000  0.0000  0.0001  0.0002
                                           -0.0023  0.0001  0.0000  0.0000  0.0000
                                            0.0000 -0.0013  0.0003  0.0087 -0.0015
    19. (1.97751) LP ( 1)Cl   3           s( 91.66%)p 0.09(  8.34%)d 0.00(  0.00%)
                                                  f 0.00(  0.00%)
                                           -0.0000  0.0001  0.9574 -0.0003  0.0006
                                           -0.0003  0.0000 -0.0686  0.0002 -0.0002
                                           -0.0000  0.0000 -0.2805  0.0017 -0.0007
                                            0.0003  0.0000  0.0000  0.0000  0.0000
                                            0.0000 -0.0002 -0.0000 -0.0002  0.0000
                                            0.0000  0.0000  0.0000  0.0000  0.0000
                                            0.0003 -0.0002  0.0004  0.0003 -0.0000
                                            0.0003  0.0000  0.0000 -0.0000 -0.0000
                                           -0.0002 -0.0001  0.0000  0.0000  0.0000
                                            0.0000 -0.0002 -0.0001 -0.0002 -0.0002
    20. (1.95256) LP ( 2)Cl   3           s(  0.00%)p 1.00( 99.99%)d 0.00(  0.01%)
                                                  f 0.00(  0.00%)
                                            0.0000  0.0000  0.0000  0.0000  0.0000
                                            0.0000  0.0000  0.0000  0.0000  0.0000
                                            0.0000  0.0000  0.0000  0.0000  0.0000
                                            0.0000 -0.0000  0.9999  0.0026  0.0016
                                           -0.0005  0.0000  0.0000  0.0000  0.0021
                                            0.0004 -0.0002  0.0101  0.0021 -0.0007
                                            0.0000  0.0000  0.0000  0.0000  0.0000
                                            0.0000 -0.0022 -0.0013  0.0000  0.0000
                                            0.0000  0.0000 -0.0024 -0.0013  0.0012
                                            0.0007  0.0000  0.0000  0.0000  0.0000
    21. (1.95220) LP ( 3)Cl   3           s(  0.00%)p 1.00( 99.98%)d 0.00(  0.01%)
                                                  f 0.00(  0.00%)
                                            0.0000 -0.0000  0.0067  0.0005 -0.0001
                                            0.0004 -0.0000  0.9763  0.0026  0.0013
                                           -0.0005  0.0000 -0.2160 -0.0004 -0.0004
                                            0.0002  0.0000  0.0000  0.0000  0.0000
                                            0.0000  0.0102  0.0018 -0.0008  0.0000
                                            0.0000  0.0000  0.0000  0.0000  0.0000
                                            0.0039  0.0001 -0.0008  0.0000 -0.0000
                                            0.0000  0.0000  0.0000 -0.0009 -0.0005
                                            0.0001  0.0000  0.0000  0.0000  0.0000
                                            0.0000 -0.0026 -0.0013  0.0018  0.0010
    22. (1.86176) LP ( 4)Cl   3           s(  8.33%)p10.99( 91.61%)d 0.01(  0.06%)
                                                  f 0.00(  0.00%)
                                           -0.0000 -0.0000  0.2887  0.0011 -0.0020
                                            0.0009  0.0000  0.2048 -0.0009 -0.0004
                                            0.0003 -0.0000  0.9349 -0.0050 -0.0034
                                            0.0012  0.0000  0.0000  0.0000  0.0000
                                            0.0000  0.0084  0.0018  0.0001  0.0000
                                            0.0000  0.0000  0.0000  0.0000  0.0000
                                           -0.0180 -0.0032  0.0007 -0.0122 -0.0027
                                           -0.0003  0.0000  0.0000 -0.0008 -0.0005
                                           -0.0037 -0.0018  0.0000  0.0000  0.0000
                                            0.0000 -0.0028 -0.0013 -0.0035 -0.0013
    23. (0.01931) RY*( 1) O   1           s(  0.00%)p 1.00( 98.71%)d 0.01(  1.24%)
                                                  f 0.00(  0.05%)
                                            0.0000  0.0000  0.0000  0.0000  0.0000
                                            0.0000  0.0000  0.0000  0.0000  0.0000
                                            0.0000  0.0000  0.0000 -0.0244  0.9923
                                           -0.0393 -0.0154  0.0000  0.0000  0.0000
                                            0.0871  0.0279  0.0099 -0.0594  0.0044
                                            0.0194  0.0000  0.0000  0.0000  0.0000
                                            0.0000  0.0000 -0.0106  0.0099  0.0000
                                            0.0000  0.0000  0.0000  0.0133 -0.0113
                                           -0.0036  0.0018  0.0000  0.0000  0.0000
                                            0.0000
    24. (0.01576) RY*( 2) O   1           s( 29.62%)p 2.30( 68.18%)d 0.07(  1.98%)
                                                  f 0.01(  0.21%)
                                           -0.0000  0.0013  0.5429 -0.0379 -0.0050
                                            0.0394 -0.3377 -0.0033  0.0215 -0.0149
                                            0.7505 -0.0021 -0.0467  0.0000  0.0000
                                            0.0000  0.0000  0.1289  0.0245  0.0057
                                            0.0000  0.0000  0.0000  0.0000  0.0000
                                            0.0000  0.0201  0.0026 -0.0002  0.0455
                                            0.0008 -0.0083  0.0000  0.0000 -0.0044
                                            0.0011  0.0054  0.0007  0.0000  0.0000
                                            0.0000  0.0000  0.0327 -0.0150  0.0251
                                           -0.0130
    25. (0.00775) RY*( 3) O   1           s( 16.59%)p 0.51(  8.40%)d 4.44( 73.73%)
                                                  f 0.08(  1.27%)
                                           -0.0000  0.0166  0.4022 -0.0609  0.0127
                                           -0.0202 -0.1520  0.0081  0.0326 -0.0097
                                           -0.2324  0.0301 -0.0661 -0.0000 -0.0000
                                           -0.0000 -0.0000 -0.8273 -0.0134 -0.0264
                                           -0.0000 -0.0000 -0.0000 -0.0000 -0.0000
                                           -0.0000  0.1416  0.0071  0.0263  0.1765
                                           -0.0098  0.0031 -0.0000 -0.0000 -0.0266
                                            0.0159  0.0060 -0.0001 -0.0000 -0.0000
                                           -0.0000 -0.0000 -0.0474  0.0168 -0.0874
                                            0.0397
    26. (0.00697) RY*( 4) O   1           s(  0.00%)p 1.00(  0.43%)d99.99( 97.90%)
                                                  f 3.87(  1.67%)
                                            0.0000  0.0000  0.0000  0.0000  0.0000
                                            0.0000  0.0000  0.0000  0.0000  0.0000
                                            0.0000  0.0000  0.0000 -0.0172 -0.0624
                                           -0.0095 -0.0051  0.0000  0.0000  0.0000
                                            0.9223 -0.0361  0.0176  0.3554 -0.0208
                                            0.0065  0.0000  0.0000  0.0000  0.0000
                                            0.0000  0.0000 -0.0372  0.0174  0.0000
                                            0.0000  0.0000  0.0000  0.1095 -0.0491
                                           -0.0217  0.0098  0.0000  0.0000  0.0000
                                            0.0000
    27. (0.00618) RY*( 5) O   1           s(  2.35%)p 9.66( 22.74%)d31.09( 73.19%)
                                                  f 0.73(  1.72%)
                                           -0.0000  0.0091  0.1456 -0.0464 -0.0106
                                           -0.0225 -0.2980  0.0044  0.0433 -0.0627
                                           -0.3620  0.0343 -0.0084  0.0000  0.0000
                                            0.0000  0.0000  0.4278 -0.0066  0.0248
                                            0.0000  0.0000  0.0000  0.0000  0.0000
                                            0.0000  0.5991 -0.0139  0.0337  0.4321
                                           -0.0313  0.0180  0.0000  0.0000  0.0103
                                           -0.0068 -0.0681  0.0377  0.0000  0.0000
                                            0.0000  0.0000  0.0926 -0.0364 -0.0284
                                            0.0162
    28. (0.00615) RY*( 6) O   1           s(  0.00%)p 1.00(  0.92%)d99.99( 97.84%)
                                                  f 1.36(  1.24%)
                                            0.0000  0.0000  0.0000  0.0000  0.0000
                                            0.0000  0.0000  0.0000  0.0000  0.0000
                                            0.0000  0.0000  0.0000  0.0340  0.0857
                                           -0.0064 -0.0249  0.0000  0.0000  0.0000
                                           -0.3488  0.0308  0.0034  0.9223 -0.0641
                                            0.0307  0.0000  0.0000  0.0000  0.0000
                                            0.0000  0.0000  0.0836 -0.0400  0.0000
                                            0.0000  0.0000  0.0000  0.0318 -0.0148
                                            0.0471 -0.0200  0.0000  0.0000  0.0000
                                            0.0000
    29. (0.00567) RY*( 7) O   1           s(  1.00%)p12.41( 12.45%)d84.13( 84.42%)
                                                  f 2.12(  2.13%)
                                           -0.0000  0.0187  0.0944 -0.0197  0.0195
                                            0.0715  0.3398 -0.0008 -0.0492 -0.0018
                                            0.0372  0.0068 -0.0102  0.0000  0.0000
                                            0.0000  0.0000  0.0658 -0.0179 -0.0145
                                            0.0000  0.0000  0.0000  0.0000  0.0000
                                            0.0000 -0.4423  0.0168  0.0063  0.7978
                                           -0.0831  0.0007  0.0000  0.0000  0.0992
                                           -0.0395 -0.0218  0.0099  0.0000  0.0000
                                            0.0000  0.0000 -0.0812  0.0340  0.0359
                                           -0.0157
    30. (0.00314) RY*( 8) O   1           s( 33.87%)p 0.81( 27.31%)d 1.13( 38.35%)
                                                  f 0.01(  0.47%)
                                           -0.0000 -0.0065  0.5552 -0.1718  0.0302
                                            0.0282 -0.0372  0.0285  0.0531  0.0257
                                           -0.4648  0.0975 -0.2026  0.0000  0.0000
                                            0.0000  0.0000  0.2942 -0.0325  0.0377
                                            0.0000  0.0000  0.0000  0.0000  0.0000
                                            0.0000 -0.4402  0.0602 -0.0165 -0.2966
                                            0.0907 -0.0252  0.0000  0.0000  0.0079
                                           -0.0010  0.0335 -0.0217  0.0000  0.0000
                                            0.0000  0.0000  0.0069 -0.0168  0.0495
                                           -0.0156
    31. (0.00248) RY*( 9) O   1           s( 11.91%)p 5.50( 65.54%)d 1.86( 22.12%)
                                                  f 0.04(  0.43%)
                                           -0.0000  0.0015  0.3374 -0.0722 -0.0089
                                            0.0100  0.8002 -0.0378 -0.0316 -0.0107
                                            0.0971  0.0164 -0.0526  0.0000  0.0000
                                            0.0000  0.0000  0.0433 -0.0152 -0.0096
                                            0.0000  0.0000  0.0000  0.0000  0.0000
                                            0.0000  0.4287 -0.0409  0.1055 -0.1435
                                            0.0322 -0.0290  0.0000  0.0000 -0.0225
                                            0.0310 -0.0025  0.0092  0.0000  0.0000
                                            0.0000  0.0000  0.0399 -0.0320 -0.0095
                                            0.0047
    32. (0.00078) RY*(10) O   1           s( 33.16%)p 1.68( 55.62%)d 0.27(  9.01%)
                                                  f 0.07(  2.21%)
                                           -0.0000 -0.0035  0.0332  0.5736  0.0383
                                            0.0112 -0.0149 -0.0673 -0.2514 -0.0079
                                            0.0107  0.6839 -0.1422  0.0000  0.0000
                                            0.0000  0.0000  0.0231 -0.2120 -0.1240
                                            0.0000  0.0000  0.0000  0.0000  0.0000
                                            0.0000  0.0250  0.0261  0.0211 -0.0072
                                            0.1043  0.1288  0.0000  0.0000 -0.0056
                                            0.0053 -0.0063  0.0240  0.0000  0.0000
                                            0.0000  0.0000 -0.1322  0.0479 -0.0407
                                            0.0028
    33. (0.00064) RY*(11) O   1           s(  0.00%)p 1.00( 46.29%)d 0.77( 35.78%)
                                                  f 0.39( 17.93%)
                                            0.0000  0.0000  0.0000  0.0000  0.0000
                                            0.0000  0.0000  0.0000  0.0000  0.0000
                                            0.0000  0.0000  0.0000 -0.0049  0.0305
                                            0.6770 -0.0605  0.0000  0.0000  0.0000
                                            0.0309 -0.1843 -0.0094  0.0224  0.5661
                                            0.0426  0.0000  0.0000  0.0000  0.0000
                                            0.0000  0.0000  0.1871  0.0058  0.0000
                                            0.0000  0.0000  0.0000 -0.0863 -0.0253
                                            0.3660 -0.0474  0.0000  0.0000  0.0000
                                            0.0000
    34. (0.00058) RY*(12) O   1           s(  0.00%)p 1.00( 49.31%)d 0.54( 26.68%)
                                                  f 0.49( 24.00%)
                                            0.0000  0.0000  0.0000  0.0000  0.0000
                                            0.0000  0.0000  0.0000  0.0000  0.0000
                                            0.0000  0.0000  0.0000  0.0012 -0.0187
                                           -0.6688  0.2132  0.0000  0.0000  0.0000
                                           -0.0079 -0.1549 -0.0133  0.0138  0.4923
                                           -0.0085  0.0000  0.0000  0.0000  0.0000
                                            0.0000  0.0000 -0.0343 -0.0097  0.0000
                                            0.0000  0.0000  0.0000  0.1072  0.0255
                                            0.4741 -0.0431  0.0000  0.0000  0.0000
                                            0.0000
    35. (0.00059) RY*(13) O   1           s(  4.88%)p 0.49(  2.38%)d10.46( 51.08%)
                                                  f 8.53( 41.66%)
                                           -0.0000  0.0037  0.0057  0.1904  0.1119
                                            0.0094  0.0184  0.0139  0.0567 -0.0052
                                           -0.0012 -0.1411 -0.0052  0.0000  0.0000
                                            0.0000  0.0000 -0.0576  0.1707 -0.0559
                                            0.0000  0.0000  0.0000  0.0000  0.0000
                                            0.0000  0.0027  0.1445 -0.0375  0.0433
                                            0.6654  0.0909  0.0000  0.0000  0.5134
                                           -0.0485 -0.0651  0.0018  0.0000  0.0000
                                            0.0000  0.0000  0.3796 -0.0342  0.0342
                                            0.0031
    36. (0.00050) RY*(14) O   1           s(  0.00%)p 1.00(  3.05%)d16.49( 50.30%)
                                                  f15.29( 46.65%)
                                            0.0000  0.0000  0.0000  0.0000  0.0000
                                            0.0000  0.0000  0.0000  0.0000  0.0000
                                            0.0000  0.0000  0.0000 -0.0098 -0.0212
                                            0.1602 -0.0656  0.0000  0.0000  0.0000
                                           -0.0263  0.6977 -0.0996 -0.0182  0.0627
                                           -0.0369  0.0000  0.0000  0.0000  0.0000
                                            0.0000  0.0000 -0.4176 -0.0105  0.0000
                                            0.0000  0.0000  0.0000  0.4634  0.0219
                                            0.2767 -0.0118  0.0000  0.0000  0.0000
                                            0.0000
    37. (0.00050) RY*(15) O   1           s(  0.88%)p16.13( 14.23%)d41.37( 36.50%)
                                                  f54.84( 48.39%)
                                            0.0000 -0.0007  0.0507  0.0785  0.0091
                                            0.0011 -0.0073 -0.2676 -0.0230  0.0054
                                           -0.0075 -0.2280  0.1341 -0.0000 -0.0000
                                           -0.0000 -0.0000  0.0406 -0.5895  0.0922
                                           -0.0000 -0.0000 -0.0000 -0.0000 -0.0000
                                           -0.0000 -0.0342  0.0130 -0.0590 -0.0078
                                           -0.0482 -0.0125 -0.0000 -0.0000  0.1582
                                            0.0028  0.3933  0.0173 -0.0000 -0.0000
                                           -0.0000 -0.0000  0.1517 -0.0085 -0.5285
                                           -0.0387
    38. (0.00047) RY*(16) O   1           s(  3.27%)p17.79( 58.14%)d 2.44(  7.96%)
                                                  f 9.37( 30.63%)
                                           -0.0000  0.0061  0.0582  0.1395  0.0990
                                            0.0054 -0.0188  0.7114 -0.1575 -0.0007
                                           -0.0173 -0.2182  0.0472  0.0000  0.0000
                                            0.0000  0.0000  0.0252 -0.2127 -0.0064
                                            0.0000  0.0000  0.0000  0.0000  0.0000
                                            0.0000  0.0808  0.0111  0.1236 -0.0565
                                           -0.0861 -0.0340  0.0000  0.0000  0.3528
                                            0.0359  0.1587  0.0182  0.0000  0.0000
                                            0.0000  0.0000 -0.3708 -0.0321  0.1280
                                            0.0092
    39. (0.00047) RY*(17) O   1           s(  0.00%)p 1.00(  1.48%)d16.19( 23.94%)
                                                  f50.43( 74.58%)
[...]
   152. (0.00045) RY*( 7) H   4           s( 15.26%)p 4.99( 76.11%)d 0.57(  8.63%)
                                           -0.0062 -0.0098  0.3893  0.0300 -0.0450
                                           -0.7872  0.1275 -0.0216  0.3307 -0.1153
                                           -0.0000 -0.0000 -0.0000 -0.2071 -0.1105
                                           -0.0000 -0.0000 -0.0000 -0.0000 -0.0040
                                           -0.0608  0.1588 -0.0476
   153. (0.00032) RY*( 8) H   4           s( 30.79%)p 1.32( 40.72%)d 0.92( 28.48%)
                                           -0.0059 -0.0364  0.5526 -0.0355 -0.0584
                                            0.5028  0.2251  0.0800  0.0198 -0.3059
                                           -0.0000 -0.0000 -0.0000 -0.4427  0.1472
                                           -0.0000 -0.0000 -0.0000 -0.0000  0.1565
                                           -0.1009  0.1553 -0.0919
   154. (0.00031) RY*( 9) H   4           s(  0.00%)p 1.00( 92.30%)d 0.08(  7.70%)
                                            0.0000  0.0000  0.0000  0.0000  0.0000
                                            0.0000  0.0000  0.0000  0.0000  0.0000
                                           -0.1296  0.9518 -0.0155  0.0000  0.0000
                                           -0.0655  0.0825 -0.1181  0.2278  0.0000
                                            0.0000  0.0000  0.0000
   155. (0.00024) RY*(10) H   4           s(  1.96%)p18.12( 35.44%)d32.01( 62.61%)
                                            0.0148  0.0496  0.0594  0.1156 -0.0898
                                           -0.1428  0.1561 -0.0310 -0.3151  0.4487
                                            0.0000  0.0000  0.0000 -0.3676 -0.0129
                                            0.0000  0.0000  0.0000  0.0000  0.5188
                                            0.1080 -0.4365  0.1393
   156. (0.00022) RY*(11) H   4           s(  0.00%)p 1.00(  0.42%)d99.99( 99.58%)
                                            0.0000  0.0000  0.0000  0.0000  0.0000
                                            0.0000  0.0000  0.0000  0.0000  0.0000
                                           -0.0223  0.0576 -0.0207  0.0000  0.0000
                                            0.9832 -0.1430 -0.0861  0.0353  0.0000
                                            0.0000  0.0000  0.0000
   157. (0.00021) RY*(12) H   4           s(  6.51%)p 4.36( 28.40%)d 9.99( 65.09%)
                                            0.0137  0.0146  0.2278  0.1133  0.0628
                                           -0.0232 -0.0619 -0.0450 -0.3969  0.3407
                                            0.0000  0.0000  0.0000  0.2407 -0.0727
                                            0.0000  0.0000  0.0000  0.0000  0.2081
                                            0.0823  0.7325 -0.0318
   158. (0.00016) RY*(13) H   4           s(  8.35%)p 1.78( 14.85%)d 9.20( 76.80%)
                                           -0.0044 -0.0351  0.2805 -0.0594  0.0645
                                           -0.0336 -0.2999  0.0028  0.1414 -0.1823
                                            0.0000  0.0000  0.0000  0.5344  0.2054
                                            0.0000  0.0000  0.0000  0.0000  0.5629
                                           -0.1004 -0.2607 -0.2129
   159. (0.00013) RY*(14) H   4           s(  0.00%)p 1.00( 40.66%)d 1.46( 59.34%)
                                            0.0000  0.0000  0.0000  0.0000  0.0000
                                            0.0000  0.0000  0.0000  0.0000  0.0000
                                            0.0006  0.2260  0.5963  0.0000  0.0000
                                            0.0399 -0.1422  0.4510 -0.6067  0.0000
                                            0.0000  0.0000  0.0000
   160. (0.00011) RY*(15) H   4           s( 35.48%)p 0.53( 18.84%)d 1.29( 45.68%)
                                           -0.0040 -0.0130  0.2116  0.5566  0.0330
                                            0.1612  0.3965  0.0099  0.0607  0.0175
                                           -0.0000 -0.0000 -0.0000  0.3471 -0.5095
                                           -0.0000 -0.0000 -0.0000 -0.0000 -0.1054
                                           -0.1494 -0.2081  0.0036
   161. (0.00010) RY*(16) H   4           s( 36.03%)p 0.50( 18.10%)d 1.27( 45.87%)
   162. (0.00006) RY*(17) H   4           s(  0.00%)p 1.00(  1.60%)d61.69( 98.40%)
   163. (0.00005) RY*(18) H   4           s( 10.65%)p 2.78( 29.57%)d 5.61( 59.78%)
   164. (0.00005) RY*(19) H   4           s(  0.00%)p 1.00( 31.07%)d 2.22( 68.93%)
   165. (0.00006) RY*(20) H   4           s(  3.83%)p 1.69(  6.48%)d23.41( 89.69%)
   166. (0.00003) RY*(21) H   4           s( 45.15%)p 0.27( 12.05%)d 0.95( 42.80%)
   167. (0.00004) RY*(22) H   4           s(  1.28%)p34.22( 43.79%)d42.94( 54.93%)
   168. (0.05825) BD*( 1) O   1 -Cl   2  
                ( 41.43%)   0.6437* O   1 s( 10.02%)p 8.93( 89.46%)d 0.05(  0.51%)
                                                  f 0.00(  0.02%)
                                           -0.0003 -0.3135  0.0412  0.0148  0.0005
                                           -0.9446  0.0287  0.0102  0.0110  0.0180
                                            0.0293  0.0053  0.0001 -0.0000 -0.0000
                                           -0.0000 -0.0000  0.0225  0.0014 -0.0028
                                           -0.0000 -0.0000 -0.0000 -0.0000 -0.0000
                                           -0.0000 -0.0522 -0.0050 -0.0026  0.0422
                                            0.0038 -0.0004 -0.0000 -0.0000  0.0114
                                           -0.0013  0.0003 -0.0002 -0.0000 -0.0000
                                           -0.0000 -0.0000 -0.0055 -0.0006  0.0006
                                           -0.0022
                ( 58.57%)  -0.7653*Cl   2 s(  8.28%)p10.92( 90.50%)d 0.13(  1.11%)
                                                  f 0.01(  0.11%)
                                            0.0000 -0.0005 -0.2821  0.0559  0.0106
                                            0.0019  0.0004  0.9490 -0.0641 -0.0142
                                            0.0048  0.0000  0.0096  0.0018 -0.0024
                                            0.0008 -0.0000 -0.0000 -0.0000 -0.0000
                                           -0.0000 -0.0120  0.0000 -0.0008 -0.0000
                                           -0.0000 -0.0000 -0.0000 -0.0000 -0.0000
                                           -0.0877  0.0105  0.0003  0.0557 -0.0059
                                           -0.0008 -0.0000 -0.0000 -0.0207  0.0034
                                           -0.0005  0.0002 -0.0000 -0.0000 -0.0000
                                           -0.0000  0.0252 -0.0031  0.0012 -0.0002
   169. (0.10732) BD*( 1) O   1 - H   4  
                ( 20.72%)   0.4552* O   1 s( 30.95%)p 2.22( 68.56%)d 0.02(  0.48%)
                                                  f 0.00(  0.01%)
                                            0.0003  0.5562 -0.0060 -0.0079  0.0022
                                           -0.1977  0.0169  0.0027  0.0031 -0.8037
                                            0.0091  0.0070  0.0038 -0.0000 -0.0000
                                           -0.0000 -0.0000 -0.0002 -0.0028 -0.0001
                                           -0.0000 -0.0000 -0.0000 -0.0000 -0.0000
                                           -0.0000 -0.0588 -0.0052 -0.0021 -0.0365
                                           -0.0011  0.0029 -0.0000 -0.0000  0.0015
                                            0.0007  0.0085  0.0005 -0.0000 -0.0000
                                           -0.0000 -0.0000  0.0017  0.0025 -0.0004
                                            0.0025
                ( 79.28%)  -0.8904* H   4 s( 99.84%)p 0.00(  0.16%)d 0.00(  0.00%)
                                            0.9984  0.0411  0.0017 -0.0016  0.0110
                                            0.0081  0.0021 -0.0167  0.0316 -0.0099
                                           -0.0000 -0.0000 -0.0000 -0.0006 -0.0022
                                           -0.0000 -0.0000 -0.0000 -0.0000 -0.0011
                                           -0.0005  0.0006 -0.0033


 NHO Directionality and "Bond Bending" (deviations from line of nuclear centers)

         [Thresholds for printing:  angular deviation  >  1.0 degree]
                                    hybrid p-character > 25.0%
                                    orbital occupancy  >  0.10e

                                Line of Centers        Hybrid 1              Hybrid 2
                                ---------------  -------------------   ------------------
                NBO               Theta   Phi    Theta   Phi    Dev    Theta   Phi    Dev
 ========================================================================================
     1. BD (   1) O   1 -Cl   2    90.0    0.0    90.0  356.6   3.4      --     --    --
    14. LP (   1) O   1             --     --     90.0  112.6   --       --     --    --
    15. LP (   2) O   1             --     --      0.0    0.0   --       --     --    --
    17. LP (   2)Cl   2             --     --      0.0    0.0   --       --     --    --
    18. LP (   3)Cl   2             --     --     90.0   90.3   --       --     --    --
    20. LP (   2)Cl   3             --     --      0.0    0.0   --       --     --    --
    21. LP (   3)Cl   3             --     --     90.0  347.5   --       --     --    --
    22. LP (   4)Cl   3             --     --     90.0   77.6   --       --     --    --


 Natural Bond Orbitals (Summary):

           NBO                  Occupancy  
 -----------------------------------------------
 Molecular unit  1  (HOCl)
     1. BD (   1) O   1 -Cl   2          1.93872
     2. BD (   1) O   1 - H   4          1.96694
     3. CR (   1) O   1                  1.99965
     4. CR (   1)Cl   2                  2.00000
     5. CR (   2)Cl   2                  1.99981
     6. CR (   3)Cl   2                  1.99996
     7. CR (   4)Cl   2                  2.00003
     8. CR (   5)Cl   2                  2.00003
    14. LP (   1) O   1                  1.96647
    15. LP (   2) O   1                  1.95325
    16. LP (   1)Cl   2                  1.97431
    17. LP (   2)Cl   2                  1.95615
    18. LP (   3)Cl   2                  1.95508
    23. RY*(   1) O   1                  0.01931
    24. RY*(   2) O   1                  0.01576
    25. RY*(   3) O   1                  0.00775
    26. RY*(   4) O   1                  0.00697
    27. RY*(   5) O   1                  0.00618
    28. RY*(   6) O   1                  0.00615
    29. RY*(   7) O   1                  0.00567
    30. RY*(   8) O   1                  0.00314
    31. RY*(   9) O   1                  0.00248
    32. RY*(  10) O   1                  0.00078
    33. RY*(  11) O   1                  0.00064
    34. RY*(  12) O   1                  0.00058
    35. RY*(  13) O   1                  0.00059
    36. RY*(  14) O   1                  0.00050
    37. RY*(  15) O   1                  0.00050
    38. RY*(  16) O   1                  0.00047
    39. RY*(  17) O   1                  0.00047
    40. RY*(  18) O   1                  0.00046
    41. RY*(  19) O   1                  0.00044
    42. RY*(  20) O   1                  0.00044
    43. RY*(  21) O   1                  0.00044
    44. RY*(  22) O   1                  0.00041
    45. RY*(  23) O   1                  0.00034
    46. RY*(  24) O   1                  0.00030
    47. RY*(  25) O   1                  0.00024
    48. RY*(  26) O   1                  0.00019
    49. RY*(  27) O   1                  0.00012
    50. RY*(  28) O   1                  0.00012
    51. RY*(  29) O   1                  0.00012
    52. RY*(  30) O   1                  0.00008
    53. RY*(  31) O   1                  0.00008
    54. RY*(  32) O   1                  0.00008
    55. RY*(  33) O   1                  0.00007
    56. RY*(  34) O   1                  0.00008
    57. RY*(  35) O   1                  0.00008
    58. RY*(  36) O   1                  0.00006
    59. RY*(  37) O   1                  0.00005
    60. RY*(  38) O   1                  0.00005
    61. RY*(  39) O   1                  0.00003
    62. RY*(  40) O   1                  0.00003
    63. RY*(  41) O   1                 -0.00001
    64. RY*(   1)Cl   2                  0.02235
    65. RY*(   2)Cl   2                  0.01736
    66. RY*(   3)Cl   2                  0.01674
    67. RY*(   4)Cl   2                  0.01655
    68. RY*(   5)Cl   2                  0.01161
    69. RY*(   6)Cl   2                  0.00930
    70. RY*(   7)Cl   2                  0.00906
    71. RY*(   8)Cl   2                  0.00631
    72. RY*(   9)Cl   2                  0.00167
    73. RY*(  10)Cl   2                  0.00126
    74. RY*(  11)Cl   2                  0.00126
    75. RY*(  12)Cl   2                  0.00119
    76. RY*(  13)Cl   2                  0.00120
    77. RY*(  14)Cl   2                  0.00116
    78. RY*(  15)Cl   2                  0.00110
    79. RY*(  16)Cl   2                  0.00094
    80. RY*(  17)Cl   2                  0.00077
    81. RY*(  18)Cl   2                  0.00076
    82. RY*(  19)Cl   2                  0.00064
    83. RY*(  20)Cl   2                  0.00054
    84. RY*(  21)Cl   2                  0.00043
    85. RY*(  22)Cl   2                  0.00036
    86. RY*(  23)Cl   2                  0.00034
    87. RY*(  24)Cl   2                  0.00030
    88. RY*(  25)Cl   2                  0.00019
    89. RY*(  26)Cl   2                  0.00016
    90. RY*(  27)Cl   2                  0.00014
    91. RY*(  28)Cl   2                  0.00012
    92. RY*(  29)Cl   2                  0.00013
    93. RY*(  30)Cl   2                  0.00012
    94. RY*(  31)Cl   2                  0.00011
    95. RY*(  32)Cl   2                  0.00010
    96. RY*(  33)Cl   2                  0.00010
    97. RY*(  34)Cl   2                  0.00009
    98. RY*(  35)Cl   2                  0.00010
    99. RY*(  36)Cl   2                  0.00007
   100. RY*(  37)Cl   2                  0.00008
   101. RY*(  38)Cl   2                  0.00003
   102. RY*(  39)Cl   2                  0.00003
   103. RY*(  40)Cl   2                  0.00003
   104. RY*(  41)Cl   2                  0.00000
   146. RY*(   1) H   4                  0.01055
   147. RY*(   2) H   4                  0.00529
   148. RY*(   3) H   4                  0.00513
   149. RY*(   4) H   4                  0.00358
   150. RY*(   5) H   4                  0.00062
   151. RY*(   6) H   4                  0.00051
   152. RY*(   7) H   4                  0.00045
   153. RY*(   8) H   4                  0.00032
   154. RY*(   9) H   4                  0.00031
   155. RY*(  10) H   4                  0.00024
   156. RY*(  11) H   4                  0.00022
   157. RY*(  12) H   4                  0.00021
   158. RY*(  13) H   4                  0.00016
   159. RY*(  14) H   4                  0.00013
   160. RY*(  15) H   4                  0.00011
   161. RY*(  16) H   4                  0.00010
   162. RY*(  17) H   4                  0.00006
   163. RY*(  18) H   4                  0.00005
   164. RY*(  19) H   4                  0.00005
   165. RY*(  20) H   4                  0.00006
   166. RY*(  21) H   4                  0.00003
   167. RY*(  22) H   4                  0.00004
   168. BD*(   1) O   1 -Cl   2          0.05825
   169. BD*(   1) O   1 - H   4          0.10732
       -------------------------------
              Total Lewis   25.71041  ( 98.4648%)
        Valence non-Lewis    0.16557  (  0.6341%)
        Rydberg non-Lewis    0.23529  (  0.9011%)
       -------------------------------
            Total unit  1   26.11128  (100.0000%)
           Charge unit  1   -0.11128

 Molecular unit  2  (Cl)
     9. CR (   1)Cl   3                  2.00000
    10. CR (   2)Cl   3                  1.99997
    11. CR (   3)Cl   3                  2.00003
    12. CR (   4)Cl   3                  2.00002
    13. CR (   5)Cl   3                  2.00003
    19. LP (   1)Cl   3                  1.97751
    20. LP (   2)Cl   3                  1.95256
    21. LP (   3)Cl   3                  1.95220
    22. LP (   4)Cl   3                  1.86176
   105. RY*(   1)Cl   3                  0.01841
   106. RY*(   2)Cl   3                  0.01837
   107. RY*(   3)Cl   3                  0.01827
   108. RY*(   4)Cl   3                  0.01827
   109. RY*(   5)Cl   3                  0.01770
   110. RY*(   6)Cl   3                  0.01265
   111. RY*(   7)Cl   3                  0.01256
   112. RY*(   8)Cl   3                  0.01012
   113. RY*(   9)Cl   3                  0.00185
   114. RY*(  10)Cl   3                  0.00129
   115. RY*(  11)Cl   3                  0.00129
   116. RY*(  12)Cl   3                  0.00130
   117. RY*(  13)Cl   3                  0.00128
   118. RY*(  14)Cl   3                  0.00128
   119. RY*(  15)Cl   3                  0.00127
   120. RY*(  16)Cl   3                  0.00124
   121. RY*(  17)Cl   3                  0.00097
   122. RY*(  18)Cl   3                  0.00098
   123. RY*(  19)Cl   3                  0.00072
   124. RY*(  20)Cl   3                  0.00070
   125. RY*(  21)Cl   3                  0.00065
   126. RY*(  22)Cl   3                  0.00053
   127. RY*(  23)Cl   3                  0.00052
   128. RY*(  24)Cl   3                  0.00050
   129. RY*(  25)Cl   3                  0.00020
   130. RY*(  26)Cl   3                  0.00017
   131. RY*(  27)Cl   3                  0.00016
   132. RY*(  28)Cl   3                  0.00014
   133. RY*(  29)Cl   3                  0.00014
   134. RY*(  30)Cl   3                  0.00014
   135. RY*(  31)Cl   3                  0.00014
   136. RY*(  32)Cl   3                  0.00015
   137. RY*(  33)Cl   3                  0.00012
   138. RY*(  34)Cl   3                  0.00009
   139. RY*(  35)Cl   3                  0.00010
   140. RY*(  36)Cl   3                  0.00009
   141. RY*(  37)Cl   3                  0.00010
   142. RY*(  38)Cl   3                  0.00007
   143. RY*(  39)Cl   3                  0.00004
   144. RY*(  40)Cl   3                  0.00003
   145. RY*(  41)Cl   3                  0.00001
       -------------------------------
              Total Lewis   17.74409  ( 99.1915%)
        Valence non-Lewis    0.00000  (  0.0000%)
        Rydberg non-Lewis    0.14464  (  0.8085%)
       -------------------------------
            Total unit  2   17.88872  (100.0000%)
           Charge unit  2   -0.88872
 Leave Link  607 at Fri Nov  5 15:23:37 2021, MaxMem= 16106127360 cpu:              78.3 elap:               2.9
 (Enter /sw/contrib/gaussian/g16/B01/g16/l9999.exe)
 1\1\GINC-N2113\SP\RMP2-FC\Aug-CC-pVTZ\Cl2H1O1(1-)\CGAVINH\05-Nov-2021\
 0\\#p pop=NBO SP NoSymm mp2/aug-cc-pvtz density=current\\title\\-1,1\O
 \X,1,10.\Cl,1,1.69700154,2,90.\Cl,1,2.93100907,2,90.,3,102.48429983,0\
 H,1,0.96862334,2,90.,3,102.48429983,0\\Version=ES64L-G16RevB.01\HF=-99
 4.5248665\MP2=-995.1900277\RMSD=3.496e-09\Dipole=1.3922409,1.765444,0.
 \Quadrupole=6.9373327,-15.2386395,8.3013067,-5.5174563,0.,0.\PG=CS [SG
 (Cl2H1O1)]\\@


 Human beings, who are almost unique in having the
 ability to learn from the experience of others, are
 also remarkable for their apparent disinclination to do so.
                               -- Douglas Adams,
                                Last Chance to See
 Job cpu time:       0 days  0 hours  5 minutes 23.2 seconds.
 Elapsed time:       0 days  0 hours  0 minutes 17.4 seconds.
 File lengths (MBytes):  RWF=     14 Int=      0 D2E=      0 Chk=      8 Scr=      1
 Normal termination of Gaussian 16 at Fri Nov  5 15:23:38 2021.
