 Entering Gaussian System, Link 0=g16
 Input=clhocl_oop_25_sp.gjf
 Output=clhocl_oop_25_sp.log
 Initial command:
 /sw/contrib/gaussian/g16/B01/g16/l1.exe "/scr/Gau-22504.inp" -scrdir="/scr/"
 Entering Link 1 = /sw/contrib/gaussian/g16/B01/g16/l1.exe PID=     22505.
  
 Copyright (c) 1988-2017, Gaussian, Inc.  All Rights Reserved.
  
 This is part of the Gaussian(R) 16 program.  It is based on
 the Gaussian(R) 09 system (copyright 2009, Gaussian, Inc.),
 the Gaussian(R) 03 system (copyright 2003, Gaussian, Inc.),
 the Gaussian(R) 98 system (copyright 1998, Gaussian, Inc.),
 the Gaussian(R) 94 system (copyright 1995, Gaussian, Inc.),
 the Gaussian 92(TM) system (copyright 1992, Gaussian, Inc.),
 the Gaussian 90(TM) system (copyright 1990, Gaussian, Inc.),
 the Gaussian 88(TM) system (copyright 1988, Gaussian, Inc.),
 the Gaussian 86(TM) system (copyright 1986, Carnegie Mellon
 University), and the Gaussian 82(TM) system (copyright 1983,
 Carnegie Mellon University). Gaussian is a federally registered
 trademark of Gaussian, Inc.
  
 This software contains proprietary and confidential information,
 including trade secrets, belonging to Gaussian, Inc.
  
 This software is provided under written license and may be
 used, copied, transmitted, or stored only in accord with that
 written license.
  
 The following legend is applicable only to US Government
 contracts under FAR:
  
                    RESTRICTED RIGHTS LEGEND
  
 Use, reproduction and disclosure by the US Government is
 subject to restrictions as set forth in subparagraphs (a)
 and (c) of the Commercial Computer Software - Restricted
 Rights clause in FAR 52.227-19.
  
 Gaussian, Inc.
 340 Quinnipiac St., Bldg. 40, Wallingford CT 06492
  
  
 ---------------------------------------------------------------
 Warning -- This program may not be used in any manner that
 competes with the business of Gaussian, Inc. or will provide
 assistance to any competitor of Gaussian, Inc.  The licensee
 of this program is prohibited from giving any competitor of
 Gaussian, Inc. access to this program.  By using this program,
 the user acknowledges that Gaussian, Inc. is engaged in the
 business of creating and licensing software in the field of
 computational chemistry and represents and warrants to the
 licensee that it is not a competitor of Gaussian, Inc. and that
 it will not use this program in any manner prohibited above.
 ---------------------------------------------------------------
  

 Cite this work as:
 Gaussian 16, Revision B.01,
 M. J. Frisch, G. W. Trucks, H. B. Schlegel, G. E. Scuseria, 
 M. A. Robb, J. R. Cheeseman, G. Scalmani, V. Barone, 
 G. A. Petersson, H. Nakatsuji, X. Li, M. Caricato, A. V. Marenich, 
 J. Bloino, B. G. Janesko, R. Gomperts, B. Mennucci, H. P. Hratchian, 
 J. V. Ortiz, A. F. Izmaylov, J. L. Sonnenberg, D. Williams-Young, 
 F. Ding, F. Lipparini, F. Egidi, J. Goings, B. Peng, A. Petrone, 
 T. Henderson, D. Ranasinghe, V. G. Zakrzewski, J. Gao, N. Rega, 
 G. Zheng, W. Liang, M. Hada, M. Ehara, K. Toyota, R. Fukuda, 
 J. Hasegawa, M. Ishida, T. Nakajima, Y. Honda, O. Kitao, H. Nakai, 
 T. Vreven, K. Throssell, J. A. Montgomery, Jr., J. E. Peralta, 
 F. Ogliaro, M. J. Bearpark, J. J. Heyd, E. N. Brothers, K. N. Kudin, 
 V. N. Staroverov, T. A. Keith, R. Kobayashi, J. Normand, 
 K. Raghavachari, A. P. Rendell, J. C. Burant, S. S. Iyengar, 
 J. Tomasi, M. Cossi, J. M. Millam, M. Klene, C. Adamo, R. Cammi, 
 J. W. Ochterski, R. L. Martin, K. Morokuma, O. Farkas, 
 J. B. Foresman, and D. J. Fox, Gaussian, Inc., Wallingford CT, 2016.
 
 ******************************************
 Gaussian 16:  ES64L-G16RevB.01 20-Dec-2017
                 5-Nov-2021 
 ******************************************
 %nproc=28
 Will use up to   28 processors via shared memory.
 %mem=120GB
 %chk=/gscratch/ilahie/mccoygrp/coire_hocl/oop_s_rOH_f/clhocl/clhocl_oop_0_sp.chk
 ----------------------------------------------------
 #p pop=NBO SP NoSymm mp2/aug-cc-pvtz density=current
 ----------------------------------------------------
 1/30=1,38=1,172=1/1;
 2/12=2,15=1,17=6,18=5,40=1/2;
 3/5=16,6=1,7=10,11=9,25=1,30=1,71=1/1,2,3;
 4//1;
 5/5=2,38=5/2;
 8/6=4,10=1/1;
 9/15=1,16=-3/6;
 10/5=1,13=10,31=1/2;
 6/7=2,8=2,9=2,10=2,22=-1,40=1/1,7;
 99/5=1,9=1/99;
 Leave Link    1 at Fri Nov  5 15:24:42 2021, MaxMem= 16106127360 cpu:               0.7 elap:               0.0
 (Enter /sw/contrib/gaussian/g16/B01/g16/l101.exe)
 -----
 title
 -----
 Symbolic Z-matrix:
 Charge = -1 Multiplicity = 1
 O
 X                    1     10. 
 Cl                   1    r1       2     90. 
 Cl                   1    r2       2     90.      3    a1       0
 H                    1    r3       2    oop      3    a1       0
       Variables:
  r1                    1.697                    
  r2                    2.93101                  
  r3                    0.96862                  
  a1                  102.4843                   
  OOP                  65.                       
 
 ITRead=  0  0  0  0
 MicOpt= -1 -1 -1 -1
 NAtoms=      4 NQM=        4 NQMF=       0 NMMI=      0 NMMIF=      0
                NMic=       0 NMicF=      0.
                    Isotopes and Nuclear Properties:
 (Nuclear quadrupole moments (NQMom) in fm**2, nuclear magnetic moments (NMagM)
  in nuclear magnetons)

  Atom         1           2           3           4
 IAtWgt=          16          35          35           1
 AtmWgt=  15.9949146  34.9688527  34.9688527   1.0078250
 NucSpn=           0           3           3           1
 AtZEff=  -0.0000000  -0.0000000  -0.0000000  -0.0000000
 NQMom=    0.0000000  -8.1650000  -8.1650000   0.0000000
 NMagM=    0.0000000   0.8218740   0.8218740   2.7928460
 AtZNuc=   8.0000000  17.0000000  17.0000000   1.0000000
 Leave Link  101 at Fri Nov  5 15:24:42 2021, MaxMem= 16106127360 cpu:               2.1 elap:               0.1
 (Enter /sw/contrib/gaussian/g16/B01/g16/l202.exe)
                          Input orientation:                          
 ---------------------------------------------------------------------
 Center     Atomic      Atomic             Coordinates (Angstroms)
 Number     Number       Type             X           Y           Z
 ---------------------------------------------------------------------
      1          8           0        0.000000    0.000000    0.000000
      2         17           0        1.697002    0.000000    0.000000
      3         17           0       -0.633602   -2.861706    0.000000
      4          1           0       -0.189771   -0.857114    0.409358
 ---------------------------------------------------------------------
                    Distance matrix (angstroms):
                    1          2          3          4
     1  O    0.000000
     2  Cl   1.697002   0.000000
     3  Cl   2.931009   3.690674   0.000000
     4  H    0.968623   2.112375   2.093550   0.000000
 Symmetry turned off by external request.
 Stoichiometry    Cl2HO(1-)
 Framework group  C1[X(Cl2HO)]
 Deg. of freedom     6
 Full point group                 C1      NOp   1
 Rotational constants (GHZ):          22.5719066           2.0468202           1.8789258
 Leave Link  202 at Fri Nov  5 15:24:42 2021, MaxMem= 16106127360 cpu:               0.2 elap:               0.0
 (Enter /sw/contrib/gaussian/g16/B01/g16/l301.exe)
 Standard basis: Aug-CC-pVTZ (5D, 7F)
 Ernie: Thresh=  0.10000D-02 Tol=  0.10000D-05 Strict=F.
 Ernie:  29 primitive shells out of 169 were deleted.
   169 basis functions,   327 primitive gaussians,   198 cartesian basis functions
    22 alpha electrons       22 beta electrons
       nuclear repulsion energy       121.3267697640 Hartrees.
 IExCor=    0 DFT=F Ex=HF Corr=None ExCW=0 ScaHFX=  1.000000
 ScaDFX=  1.000000  1.000000  1.000000  1.000000 ScalE2=  1.000000  1.000000
 IRadAn=      5 IRanWt=     -1 IRanGd=            0 ICorTp=0 IEmpDi=  4
 NAtoms=    4 NActive=    4 NUniq=    4 SFac= 1.00D+00 NAtFMM=   60 NAOKFM=F Big=F
 Integral buffers will be    131072 words long.
 Raffenetti 1 integral format.
 Two-electron integral symmetry is turned off.
 Leave Link  301 at Fri Nov  5 15:24:42 2021, MaxMem= 16106127360 cpu:               1.4 elap:               0.1
 (Enter /sw/contrib/gaussian/g16/B01/g16/l302.exe)
 NPDir=0 NMtPBC=     1 NCelOv=     1 NCel=       1 NClECP=     1 NCelD=      1
         NCelK=      1 NCelE2=     1 NClLst=     1 CellRange=     0.0.
 One-electron integrals computed using PRISM.
 NBasis=   169 RedAO= T EigKep=  2.58D-04  NBF=   169
 NBsUse=   169 1.00D-06 EigRej= -1.00D+00 NBFU=   169
 Leave Link  302 at Fri Nov  5 15:24:42 2021, MaxMem= 16106127360 cpu:               7.3 elap:               0.3
 (Enter /sw/contrib/gaussian/g16/B01/g16/l303.exe)
 DipDrv:  MaxL=1.
 Leave Link  303 at Fri Nov  5 15:24:42 2021, MaxMem= 16106127360 cpu:               0.9 elap:               0.1
 (Enter /sw/contrib/gaussian/g16/B01/g16/l401.exe)
 ExpMin= 2.53D-02 ExpMax= 4.56D+05 ExpMxC= 1.44D+03 IAcc=3 IRadAn=         5 AccDes= 0.00D+00
 Harris functional with IExCor=  205 and IRadAn=       5 diagonalized for initial guess.
 HarFok:  IExCor=  205 AccDes= 0.00D+00 IRadAn=         5 IDoV= 1 UseB2=F ITyADJ=14
 ICtDFT=  3500011 ScaDFX=  1.000000  1.000000  1.000000  1.000000
 FoFCou: FMM=F IPFlag=           0 FMFlag=      100000 FMFlg1=           0
         NFxFlg=           0 DoJE=T BraDBF=F KetDBF=T FulRan=T
         wScrn=  0.000000 ICntrl=       500 IOpCl=  0 I1Cent=   200000004 NGrid=           0
         NMat0=    1 NMatS0=      1 NMatT0=    0 NMatD0=    1 NMtDS0=    0 NMtDT0=    0
 Symmetry not used in FoFCou.
 Harris En= -993.817642741448    
 JPrj=0 DoOrth=F DoCkMO=F.
 Leave Link  401 at Fri Nov  5 15:24:43 2021, MaxMem= 16106127360 cpu:               8.9 elap:               0.4
 (Enter /sw/contrib/gaussian/g16/B01/g16/l502.exe)
 Keep R1 ints in memory in canonical form, NReq=117118953.
 FoFCou: FMM=F IPFlag=           0 FMFlag=           0 FMFlg1=           0
         NFxFlg=           0 DoJE=F BraDBF=F KetDBF=F FulRan=T
         wScrn=  0.000000 ICntrl=       600 IOpCl=  0 I1Cent=           0 NGrid=           0
         NMat0=    1 NMatS0=  14365 NMatT0=    0 NMatD0=    1 NMtDS0=    0 NMtDT0=    0
 Symmetry not used in FoFCou.
 Two-electron integral symmetry not used.
 Closed shell SCF:
 Using DIIS extrapolation, IDIIS=  1040.
 NGot= 16106127360 LenX= 16002858349 LenY= 16002818704
 Requested convergence on RMS density matrix=1.00D-08 within 128 cycles.
 Requested convergence on MAX density matrix=1.00D-06.
 Requested convergence on             energy=1.00D-06.
 No special actions if energy rises.

 Cycle   1  Pass 1  IDiag  1:
 E= -994.384859835976    
 DIIS: error= 2.59D-02 at cycle   1 NSaved=   1.
 NSaved= 1 IEnMin= 1 EnMin= -994.384859835976     IErMin= 1 ErrMin= 2.59D-02
 ErrMax= 2.59D-02  0.00D+00 EMaxC= 1.00D-01 BMatC= 4.27D-01 BMatP= 4.27D-01
 IDIUse=3 WtCom= 7.41D-01 WtEn= 2.59D-01
 Coeff-Com:  0.100D+01
 Coeff-En:   0.100D+01
 Coeff:      0.100D+01
 Gap=     0.553 Goal=   None    Shift=    0.000
 GapD=    0.553 DampG=2.000 DampE=0.500 DampFc=1.0000 IDamp=-1.
 RMSDP=2.16D-03 MaxDP=7.10D-02              OVMax= 1.26D-01

 Cycle   2  Pass 1  IDiag  1:
 E= -994.481711073716     Delta-E=       -0.096851237740 Rises=F Damp=F
 DIIS: error= 1.80D-02 at cycle   2 NSaved=   2.
 NSaved= 2 IEnMin= 2 EnMin= -994.481711073716     IErMin= 2 ErrMin= 1.80D-02
 ErrMax= 1.80D-02  0.00D+00 EMaxC= 1.00D-01 BMatC= 5.20D-02 BMatP= 4.27D-01
 IDIUse=3 WtCom= 8.20D-01 WtEn= 1.80D-01
 Coeff-Com:  0.173D+00 0.827D+00
 Coeff-En:   0.000D+00 0.100D+01
 Coeff:      0.142D+00 0.858D+00
 Gap=     0.361 Goal=   None    Shift=    0.000
 RMSDP=1.01D-03 MaxDP=4.06D-02 DE=-9.69D-02 OVMax= 8.17D-02

 Cycle   3  Pass 1  IDiag  1:
 E= -994.508247063745     Delta-E=       -0.026535990029 Rises=F Damp=F
 DIIS: error= 7.94D-03 at cycle   3 NSaved=   3.
 NSaved= 3 IEnMin= 3 EnMin= -994.508247063745     IErMin= 3 ErrMin= 7.94D-03
 ErrMax= 7.94D-03  0.00D+00 EMaxC= 1.00D-01 BMatC= 1.42D-02 BMatP= 5.20D-02
 IDIUse=3 WtCom= 9.21D-01 WtEn= 7.94D-02
 Coeff-Com: -0.153D-01 0.333D+00 0.683D+00
 Coeff-En:   0.000D+00 0.111D+00 0.889D+00
 Coeff:     -0.140D-01 0.315D+00 0.699D+00
 Gap=     0.347 Goal=   None    Shift=    0.000
 RMSDP=3.60D-04 MaxDP=1.46D-02 DE=-2.65D-02 OVMax= 3.70D-02

 Cycle   4  Pass 1  IDiag  1:
 E= -994.517954653737     Delta-E=       -0.009707589992 Rises=F Damp=F
 DIIS: error= 1.23D-03 at cycle   4 NSaved=   4.
 NSaved= 4 IEnMin= 4 EnMin= -994.517954653737     IErMin= 4 ErrMin= 1.23D-03
 ErrMax= 1.23D-03  0.00D+00 EMaxC= 1.00D-01 BMatC= 1.84D-04 BMatP= 1.42D-02
 IDIUse=3 WtCom= 9.88D-01 WtEn= 1.23D-02
 Coeff-Com: -0.423D-02 0.225D-01 0.114D+00 0.868D+00
 Coeff-En:   0.000D+00 0.000D+00 0.000D+00 0.100D+01
 Coeff:     -0.418D-02 0.222D-01 0.113D+00 0.869D+00
 Gap=     0.340 Goal=   None    Shift=    0.000
 RMSDP=5.68D-05 MaxDP=1.41D-03 DE=-9.71D-03 OVMax= 3.11D-03

 Cycle   5  Pass 1  IDiag  1:
 E= -994.518146524075     Delta-E=       -0.000191870339 Rises=F Damp=F
 DIIS: error= 2.45D-04 at cycle   5 NSaved=   5.
 NSaved= 5 IEnMin= 5 EnMin= -994.518146524075     IErMin= 5 ErrMin= 2.45D-04
 ErrMax= 2.45D-04  0.00D+00 EMaxC= 1.00D-01 BMatC= 1.68D-05 BMatP= 1.84D-04
 IDIUse=3 WtCom= 9.98D-01 WtEn= 2.45D-03
 Coeff-Com:  0.102D-02-0.395D-01-0.720D-01 0.491D-02 0.111D+01
 Coeff-En:   0.000D+00 0.000D+00 0.000D+00 0.000D+00 0.100D+01
 Coeff:      0.102D-02-0.394D-01-0.718D-01 0.490D-02 0.111D+01
 Gap=     0.341 Goal=   None    Shift=    0.000
 RMSDP=3.39D-05 MaxDP=1.23D-03 DE=-1.92D-04 OVMax= 3.30D-03

 Cycle   6  Pass 1  IDiag  1:
 E= -994.518189596764     Delta-E=       -0.000043072689 Rises=F Damp=F
 DIIS: error= 1.25D-04 at cycle   6 NSaved=   6.
 NSaved= 6 IEnMin= 6 EnMin= -994.518189596764     IErMin= 6 ErrMin= 1.25D-04
 ErrMax= 1.25D-04  0.00D+00 EMaxC= 1.00D-01 BMatC= 2.23D-06 BMatP= 1.68D-05
 IDIUse=3 WtCom= 9.99D-01 WtEn= 1.25D-03
 Coeff-Com:  0.272D-03 0.850D-02 0.161D-01-0.757D-01-0.413D+00 0.146D+01
 Coeff-En:   0.000D+00 0.000D+00 0.000D+00 0.000D+00 0.000D+00 0.100D+01
 Coeff:      0.272D-03 0.849D-02 0.161D-01-0.756D-01-0.413D+00 0.146D+01
 Gap=     0.342 Goal=   None    Shift=    0.000
 RMSDP=1.74D-05 MaxDP=6.21D-04 DE=-4.31D-05 OVMax= 1.70D-03

 Cycle   7  Pass 1  IDiag  1:
 E= -994.518197499407     Delta-E=       -0.000007902643 Rises=F Damp=F
 DIIS: error= 2.92D-05 at cycle   7 NSaved=   7.
 NSaved= 7 IEnMin= 7 EnMin= -994.518197499407     IErMin= 7 ErrMin= 2.92D-05
 ErrMax= 2.92D-05  0.00D+00 EMaxC= 1.00D-01 BMatC= 1.33D-07 BMatP= 2.23D-06
 IDIUse=1 WtCom= 1.00D+00 WtEn= 0.00D+00
 Coeff-Com: -0.186D-03-0.617D-03-0.521D-03 0.282D-01 0.819D-01-0.587D+00
 Coeff-Com:  0.148D+01
 Coeff:     -0.186D-03-0.617D-03-0.521D-03 0.282D-01 0.819D-01-0.587D+00
 Coeff:      0.148D+01
 Gap=     0.342 Goal=   None    Shift=    0.000
 RMSDP=5.28D-06 MaxDP=1.73D-04 DE=-7.90D-06 OVMax= 5.10D-04

 Cycle   8  Pass 1  IDiag  1:
 E= -994.518198107533     Delta-E=       -0.000000608125 Rises=F Damp=F
 DIIS: error= 6.32D-06 at cycle   8 NSaved=   8.
 NSaved= 8 IEnMin= 8 EnMin= -994.518198107533     IErMin= 8 ErrMin= 6.32D-06
 ErrMax= 6.32D-06  0.00D+00 EMaxC= 1.00D-01 BMatC= 9.57D-09 BMatP= 1.33D-07
 IDIUse=1 WtCom= 1.00D+00 WtEn= 0.00D+00
 Coeff-Com:  0.122D-04-0.741D-03-0.123D-02 0.203D-02 0.217D-01-0.393D-01
 Coeff-Com: -0.159D+00 0.118D+01
 Coeff:      0.122D-04-0.741D-03-0.123D-02 0.203D-02 0.217D-01-0.393D-01
 Coeff:     -0.159D+00 0.118D+01
 Gap=     0.342 Goal=   None    Shift=    0.000
 RMSDP=1.17D-06 MaxDP=2.48D-05 DE=-6.08D-07 OVMax= 1.34D-04

 Cycle   9  Pass 1  IDiag  1:
 E= -994.518198142881     Delta-E=       -0.000000035348 Rises=F Damp=F
 DIIS: error= 3.07D-06 at cycle   9 NSaved=   9.
 NSaved= 9 IEnMin= 9 EnMin= -994.518198142881     IErMin= 9 ErrMin= 3.07D-06
 ErrMax= 3.07D-06  0.00D+00 EMaxC= 1.00D-01 BMatC= 1.39D-09 BMatP= 9.57D-09
 IDIUse=1 WtCom= 1.00D+00 WtEn= 0.00D+00
 Coeff-Com:  0.170D-04 0.236D-03 0.401D-03-0.380D-02-0.159D-01 0.836D-01
 Coeff-Com: -0.149D+00-0.253D+00 0.134D+01
 Coeff:      0.170D-04 0.236D-03 0.401D-03-0.380D-02-0.159D-01 0.836D-01
 Coeff:     -0.149D+00-0.253D+00 0.134D+01
 Gap=     0.342 Goal=   None    Shift=    0.000
 RMSDP=5.76D-07 MaxDP=1.40D-05 DE=-3.53D-08 OVMax= 6.96D-05

 Cycle  10  Pass 1  IDiag  1:
 E= -994.518198149774     Delta-E=       -0.000000006893 Rises=F Damp=F
 DIIS: error= 1.54D-06 at cycle  10 NSaved=  10.
 NSaved=10 IEnMin=10 EnMin= -994.518198149774     IErMin=10 ErrMin= 1.54D-06
 ErrMax= 1.54D-06  0.00D+00 EMaxC= 1.00D-01 BMatC= 2.14D-10 BMatP= 1.39D-09
 IDIUse=1 WtCom= 1.00D+00 WtEn= 0.00D+00
 Coeff-Com: -0.264D-05 0.404D-04 0.151D-04 0.523D-03 0.923D-03-0.123D-01
 Coeff-Com:  0.537D-01-0.144D+00-0.209D+00 0.131D+01
 Coeff:     -0.264D-05 0.404D-04 0.151D-04 0.523D-03 0.923D-03-0.123D-01
 Coeff:      0.537D-01-0.144D+00-0.209D+00 0.131D+01
 Gap=     0.342 Goal=   None    Shift=    0.000
 RMSDP=2.48D-07 MaxDP=6.70D-06 DE=-6.89D-09 OVMax= 3.00D-05

 Cycle  11  Pass 1  IDiag  1:
 E= -994.518198150829     Delta-E=       -0.000000001055 Rises=F Damp=F
 DIIS: error= 4.62D-07 at cycle  11 NSaved=  11.
 NSaved=11 IEnMin=11 EnMin= -994.518198150829     IErMin=11 ErrMin= 4.62D-07
 ErrMax= 4.62D-07  0.00D+00 EMaxC= 1.00D-01 BMatC= 1.76D-11 BMatP= 2.14D-10
 IDIUse=1 WtCom= 1.00D+00 WtEn= 0.00D+00
 Coeff-Com: -0.291D-05-0.213D-04-0.261D-04 0.435D-03 0.149D-02-0.846D-02
 Coeff-Com:  0.130D-01 0.414D-01-0.117D+00-0.230D+00 0.130D+01
 Coeff:     -0.291D-05-0.213D-04-0.261D-04 0.435D-03 0.149D-02-0.846D-02
 Coeff:      0.130D-01 0.414D-01-0.117D+00-0.230D+00 0.130D+01
 Gap=     0.342 Goal=   None    Shift=    0.000
 RMSDP=7.95D-08 MaxDP=2.24D-06 DE=-1.05D-09 OVMax= 9.06D-06

 Cycle  12  Pass 1  IDiag  1:
 E= -994.518198150919     Delta-E=       -0.000000000089 Rises=F Damp=F
 DIIS: error= 8.94D-08 at cycle  12 NSaved=  12.
 NSaved=12 IEnMin=12 EnMin= -994.518198150919     IErMin=12 ErrMin= 8.94D-08
 ErrMax= 8.94D-08  0.00D+00 EMaxC= 1.00D-01 BMatC= 9.21D-13 BMatP= 1.76D-11
 IDIUse=1 WtCom= 1.00D+00 WtEn= 0.00D+00
 Coeff-Com:  0.608D-06-0.129D-05-0.844D-06-0.822D-04-0.211D-03 0.168D-02
 Coeff-Com: -0.464D-02 0.250D-02 0.289D-01-0.463D-01-0.170D+00 0.119D+01
 Coeff:      0.608D-06-0.129D-05-0.844D-06-0.822D-04-0.211D-03 0.168D-02
 Coeff:     -0.464D-02 0.250D-02 0.289D-01-0.463D-01-0.170D+00 0.119D+01
 Gap=     0.342 Goal=   None    Shift=    0.000
 RMSDP=1.43D-08 MaxDP=3.52D-07 DE=-8.94D-11 OVMax= 1.24D-06

 Cycle  13  Pass 1  IDiag  1:
 E= -994.518198150921     Delta-E=       -0.000000000002 Rises=F Damp=F
 DIIS: error= 2.34D-08 at cycle  13 NSaved=  13.
 NSaved=13 IEnMin=13 EnMin= -994.518198150921     IErMin=13 ErrMin= 2.34D-08
 ErrMax= 2.34D-08  0.00D+00 EMaxC= 1.00D-01 BMatC= 1.37D-13 BMatP= 9.21D-13
 IDIUse=1 WtCom= 1.00D+00 WtEn= 0.00D+00
 Coeff-Com:  0.210D-06 0.232D-05 0.230D-05-0.320D-04-0.122D-03 0.626D-03
 Coeff-Com: -0.644D-03-0.492D-02 0.897D-02 0.307D-01-0.130D+00-0.859D-01
 Coeff-Com:  0.118D+01
 Coeff:      0.210D-06 0.232D-05 0.230D-05-0.320D-04-0.122D-03 0.626D-03
 Coeff:     -0.644D-03-0.492D-02 0.897D-02 0.307D-01-0.130D+00-0.859D-01
 Coeff:      0.118D+01
 Gap=     0.342 Goal=   None    Shift=    0.000
 RMSDP=5.20D-09 MaxDP=1.06D-07 DE=-2.27D-12 OVMax= 3.85D-07

 SCF Done:  E(RHF) =  -994.518198151     A.U. after   13 cycles
            NFock= 13  Conv=0.52D-08     -V/T= 2.0001
 KE= 9.943987763906D+02 PE=-2.620345931846D+03 EE= 5.101021875402D+02
 Leave Link  502 at Fri Nov  5 15:24:46 2021, MaxMem= 16106127360 cpu:              27.9 elap:               3.3
 (Enter /sw/contrib/gaussian/g16/B01/g16/l801.exe)
 ExpMin= 2.53D-02 ExpMax= 4.56D+05 ExpMxC= 1.44D+03 IAcc=3 IRadAn=         5 AccDes= 0.00D+00
 HarFok:  IExCor=  205 AccDes= 0.00D+00 IRadAn=         5 IDoV=-2 UseB2=F ITyADJ=14
 ICtDFT= 12500011 ScaDFX=  1.000000  1.000000  1.000000  1.000000
 Largest valence mixing into a core orbital is  4.48D-04
 Largest core mixing into a valence orbital is  1.74D-04
 Range of M.O.s used for correlation:    12   169
 NBasis=   169 NAE=    22 NBE=    22 NFC=    11 NFV=     0
 NROrb=    158 NOA=    11 NOB=    11 NVA=   147 NVB=   147

 **** Warning!!: The largest alpha MO coefficient is  0.12721399D+02

 Leave Link  801 at Fri Nov  5 15:24:46 2021, MaxMem= 16106127360 cpu:               4.5 elap:               0.2
 (Enter /sw/contrib/gaussian/g16/B01/g16/l906.exe)
 Frozen-core derivative calculation, NFC=  11 NFV=   0.
 FulOut=F Deriv=T AODrv=F NAtomX=     4
   MMem=         144  MDisk=          11 MDiskD=          11
  W3Min=      736164 MinDsk=     1250177 NBas6D=         198
 NBas2D=       20187    NTT=       19701    LW2=     3500000
    MDV= 16105751368 MDiskM=      406660 NBas2p=       19980
 Fully in-core method, ICMem=   420417501.
 IMap=   1   2   3   4   5   6   7   8   9  10  11  12  13  14  15  16  17  18  19  20
 IMap=  21  22
 JobTyp=1 Pass  1 fully in-core, NPsUse= 28.
 Compute canonical integrals.
 FoFCou: FMM=F IPFlag=           0 FMFlag=           0 FMFlg1=           0
         NFxFlg=           0 DoJE=F BraDBF=F KetDBF=F FulRan=T
         wScrn=  0.000000 ICntrl=       600 IOpCl=  1 I1Cent=           0 NGrid=           0
         NMat0=    1 NMatS0=  20187 NMatT0=    0 NMatD0=    1 NMtDS0=    0 NMtDT0=    0
 Symmetry not used in FoFCou.
 Spin components of T(2) and E(2):
     alpha-alpha T2 =       0.2906886068D-01 E2=     -0.8359341357D-01
     alpha-beta  T2 =       0.1591925956D+00 E2=     -0.4973709290D+00
     beta-beta   T2 =       0.2906886068D-01 E2=     -0.8359341357D-01
 The integrals were generated   1 times.
 ANorm=    0.1103326931D+01
 E2 =    -0.6645577562D+00 EUMP2 =    -0.99518275590710D+03
 Leave Link  906 at Fri Nov  5 15:24:50 2021, MaxMem= 16106127360 cpu:             117.3 elap:               4.2
 (Enter /sw/contrib/gaussian/g16/B01/g16/l1002.exe)
 Minotr:  Closed shell wavefunction.
          Computing MP2/KS-MP2 derivatives.
          Using Z-Vector for PSCF gradient.
          Skipping F1 and S1 gradient terms here.
          Frozen-core window.
          Direct CPHF calculation.
          Differentiating once with respect to electric field.
                with respect to dipole field.
          Electric field/nuclear overlap derivatives assumed to be zero.
          Requested convergence is 1.0D-10 RMS, and 1.0D-09 maximum.
          NewPWx=F KeepS1=T KeepF1=T KeepIn=T MapXYZ=F SortEE=F KeepMc=T.
 Keep R1 ints in memory in canonical form, NReq=117123109.
 FoFCou: FMM=F IPFlag=           0 FMFlag=           0 FMFlg1=           0
         NFxFlg=           0 DoJE=F BraDBF=F KetDBF=F FulRan=T
         wScrn=  0.000000 ICntrl=       600 IOpCl=  0 I1Cent=           0 NGrid=           0
         NMat0=    1 NMatS0=  14365 NMatT0=    0 NMatD0=    1 NMtDS0=    0 NMtDT0=    0
 Symmetry not used in FoFCou.
 Two-electron integral symmetry not used.
          MDV=   16106127360 using IRadAn=       5.
          Solving linear equations separately, MaxMat=       0.
          There are     1 degrees of freedom in the 1st order CPHF.  IDoFFX=0 NUNeed=     1.
 LinEq1:  Iter=  0 NonCon=     1 RMS=3.05D-03 Max=4.03D-02 NDo=     1
 AX will form     1 AO Fock derivatives at one time.
 LinEq1:  Iter=  1 NonCon=     1 RMS=3.86D-04 Max=4.59D-03 NDo=     1
 LinEq1:  Iter=  2 NonCon=     1 RMS=1.67D-04 Max=2.85D-03 NDo=     1
 LinEq1:  Iter=  3 NonCon=     1 RMS=6.58D-05 Max=1.06D-03 NDo=     1
 LinEq1:  Iter=  4 NonCon=     1 RMS=2.73D-05 Max=5.30D-04 NDo=     1
 LinEq1:  Iter=  5 NonCon=     1 RMS=6.86D-06 Max=1.24D-04 NDo=     1
 LinEq1:  Iter=  6 NonCon=     1 RMS=2.26D-06 Max=4.03D-05 NDo=     1
 LinEq1:  Iter=  7 NonCon=     1 RMS=6.87D-07 Max=1.04D-05 NDo=     1
 LinEq1:  Iter=  8 NonCon=     1 RMS=1.32D-07 Max=1.21D-06 NDo=     1
 LinEq1:  Iter=  9 NonCon=     1 RMS=2.87D-08 Max=3.97D-07 NDo=     1
 LinEq1:  Iter= 10 NonCon=     1 RMS=7.16D-09 Max=7.91D-08 NDo=     1
 LinEq1:  Iter= 11 NonCon=     1 RMS=1.84D-09 Max=3.37D-08 NDo=     1
 LinEq1:  Iter= 12 NonCon=     1 RMS=4.65D-10 Max=8.62D-09 NDo=     1
 LinEq1:  Iter= 13 NonCon=     1 RMS=1.14D-10 Max=1.53D-09 NDo=     1
 LinEq1:  Iter= 14 NonCon=     0 RMS=2.70D-11 Max=3.10D-10 NDo=     1
 Linear equations converged to 1.000D-10 1.000D-09 after    14 iterations.
 End of Minotr F.D. properties file   721 does not exist.
 End of Minotr F.D. properties file   722 does not exist.
 End of Minotr F.D. properties file   788 does not exist.
 Leave Link 1002 at Fri Nov  5 15:24:54 2021, MaxMem= 16106127360 cpu:              27.6 elap:               3.8
 (Enter /sw/contrib/gaussian/g16/B01/g16/l601.exe)
 Copying SCF densities to generalized density rwf, IOpCl= 0 IROHF=0.

 **********************************************************************

            Population analysis using the MP2 Density.

 **********************************************************************

 Alpha  occ. eigenvalues -- -104.73254-104.53639 -20.46500 -10.45199 -10.26103
 Alpha  occ. eigenvalues --   -7.91913  -7.91650  -7.91638  -7.72715  -7.72704
 Alpha  occ. eigenvalues --   -7.72703  -1.23683  -0.90046  -0.77265  -0.54890
 Alpha  occ. eigenvalues --   -0.44376  -0.43444  -0.31127  -0.28458  -0.19079
 Alpha  occ. eigenvalues --   -0.18412  -0.18343
 Alpha virt. eigenvalues --    0.15824   0.18201   0.22480   0.23247   0.26138
 Alpha virt. eigenvalues --    0.27465   0.27932   0.28560   0.30655   0.31522
 Alpha virt. eigenvalues --    0.33886   0.34608   0.40543   0.42459   0.46237
 Alpha virt. eigenvalues --    0.49783   0.52283   0.54105   0.55553   0.57971
 Alpha virt. eigenvalues --    0.58976   0.60536   0.61249   0.63601   0.65781
 Alpha virt. eigenvalues --    0.66957   0.67388   0.71468   0.76900   0.79056
 Alpha virt. eigenvalues --    0.85271   0.85981   0.88984   0.89731   0.90951
 Alpha virt. eigenvalues --    0.91602   0.96418   0.98904   1.00581   1.06837
 Alpha virt. eigenvalues --    1.08041   1.09487   1.09761   1.11387   1.13389
 Alpha virt. eigenvalues --    1.15531   1.18827   1.19357   1.20068   1.20847
 Alpha virt. eigenvalues --    1.21924   1.24550   1.26880   1.29028   1.31847
 Alpha virt. eigenvalues --    1.34905   1.39425   1.42201   1.43200   1.44213
 Alpha virt. eigenvalues --    1.45762   1.48913   1.51348   1.56589   1.62464
 Alpha virt. eigenvalues --    1.63877   1.65291   1.68940   1.71087   1.74431
 Alpha virt. eigenvalues --    1.80092   1.85025   1.85932   1.90232   1.93590
 Alpha virt. eigenvalues --    1.96987   2.19535   2.41264   2.44601   2.51209
 Alpha virt. eigenvalues --    2.51882   2.54576   2.59421   2.64020   2.64867
 Alpha virt. eigenvalues --    2.68452   2.70486   2.71116   2.72549   2.74944
 Alpha virt. eigenvalues --    2.76823   2.79146   2.80978   2.82525   2.89828
 Alpha virt. eigenvalues --    2.92198   2.92634   2.96056   3.03215   3.04442
 Alpha virt. eigenvalues --    3.08789   3.10685   3.17972   3.19793   3.21861
 Alpha virt. eigenvalues --    3.24460   3.29307   3.31866   3.34398   3.34917
 Alpha virt. eigenvalues --    3.37281   3.39255   3.41972   3.49174   3.50976
 Alpha virt. eigenvalues --    3.51620   3.55964   3.58978   3.63314   3.93614
 Alpha virt. eigenvalues --    4.23095   4.36921   4.51761   4.58320   4.60722
 Alpha virt. eigenvalues --    4.75984   4.99420   5.11192   5.43425   5.53517
 Alpha virt. eigenvalues --    5.72896   6.20309   6.44642   6.60504   6.89077
 Alpha virt. eigenvalues --    6.90746   6.92270   6.99614   7.34265   7.40538
 Alpha virt. eigenvalues --    7.41881   7.44923   7.53656   7.76031   7.81093
 Alpha virt. eigenvalues --    8.41893  15.03222
          Condensed to atoms (all electrons):
               1          2          3          4
     1  O    8.547023  -0.103770  -0.078305   0.049900
     2  Cl  -0.103770  17.042714   0.000707   0.002184
     3  Cl  -0.078305   0.000707  17.892798   0.074010
     4  H    0.049900   0.002184   0.074010   0.628012
 Mulliken charges:
               1
     1  O   -0.414849
     2  Cl   0.058165
     3  Cl  -0.889210
     4  H    0.245893
 Sum of Mulliken charges =  -1.00000
 Mulliken charges with hydrogens summed into heavy atoms:
               1
     1  O   -0.168955
     2  Cl   0.058165
     3  Cl  -0.889210
 Electronic spatial extent (au):  <R**2>=            807.5930
 Charge=             -1.0000 electrons
 Dipole moment (field-independent basis, Debye):
    X=              1.6930    Y=             10.4820    Z=              0.3513  Tot=             10.6237
 Quadrupole moment (field-independent basis, Debye-Ang):
   XX=            -38.6262   YY=            -70.0568   ZZ=            -36.4226
   XY=             -7.8084   XZ=             -0.1926   YZ=             -0.2112
 Traceless Quadrupole moment (field-independent basis, Debye-Ang):
   XX=              9.7423   YY=            -21.6883   ZZ=             11.9460
   XY=             -7.8084   XZ=             -0.1926   YZ=             -0.2112
 Octapole moment (field-independent basis, Debye-Ang**2):
  XXX=            -31.7660  YYY=            241.6604  ZZZ=             -1.2883  XYY=              9.5123
  XXY=             52.6056  XXZ=             -0.7927  XZZ=            -12.4147  YZZ=             48.0100
  YYZ=             -1.7613  XYZ=             -0.3088
 Hexadecapole moment (field-independent basis, Debye-Ang**3):
 XXXX=           -301.2615 YYYY=          -1148.2150 ZZZZ=            -50.9963 XXXY=            -96.2671
 XXXZ=             -0.3682 YYYX=           -153.4476 YYYZ=              6.7449 ZZZX=              0.1412
 ZZZY=              1.6399 XXYY=           -214.4021 XXZZ=            -63.5909 YYZZ=           -154.4385
 XXYZ=              0.6888 YYXZ=              1.1685 ZZXY=            -30.8292
 N-N= 1.213267697640D+02 E-N=-2.620403232737D+03  KE= 9.950560478962D+02
 No NMR shielding tensors so no spin-rotation constants.
 Leave Link  601 at Fri Nov  5 15:24:54 2021, MaxMem= 16106127360 cpu:               5.0 elap:               0.2
 (Enter /sw/contrib/gaussian/g16/B01/g16/l607.exe)
 ******************************Gaussian NBO Version 3.1******************************
             N A T U R A L   A T O M I C   O R B I T A L   A N D
          N A T U R A L   B O N D   O R B I T A L   A N A L Y S I S
 ******************************Gaussian NBO Version 3.1******************************
       /RESON  / : Allow strongly delocalized NBO set

 Analyzing the MP2 density

 Job title: title                                                           

 Storage needed:     86521 in NPA,    114817 in NBO (********** available)
 GSVD:  LWork=        1191 too small for GESVD, short by       52514 words or       52514 for optimal perf.


 NATURAL POPULATIONS:  Natural atomic orbital occupancies 
                                                          
   NAO  Atom  No  lang   Type(AO)    Occupancy
 --------------------------------------------
     1    O    1  S      Cor( 1S)     1.99967
     2    O    1  S      Val( 2S)     1.78546
     3    O    1  S      Ryd( 3S)     0.00907
     4    O    1  S      Ryd( 4S)     0.00107
     5    O    1  S      Ryd( 5S)     0.00017
     6    O    1  px     Val( 2p)     1.20338
     7    O    1  px     Ryd( 3p)     0.00641
     8    O    1  px     Ryd( 4p)     0.00061
     9    O    1  px     Ryd( 5p)     0.00033
    10    O    1  py     Val( 2p)     1.73793
    11    O    1  py     Ryd( 3p)     0.01337
    12    O    1  py     Ryd( 4p)     0.00073
    13    O    1  py     Ryd( 5p)     0.00038
    14    O    1  pz     Val( 2p)     1.89145
    15    O    1  pz     Ryd( 3p)     0.01825
    16    O    1  pz     Ryd( 4p)     0.00069
    17    O    1  pz     Ryd( 5p)     0.00022
    18    O    1  dxy    Ryd( 3d)     0.00864
    19    O    1  dxy    Ryd( 4d)     0.00048
    20    O    1  dxy    Ryd( 5d)     0.00013
    21    O    1  dxz    Ryd( 3d)     0.00876
    22    O    1  dxz    Ryd( 4d)     0.00055
    23    O    1  dxz    Ryd( 5d)     0.00009
    24    O    1  dyz    Ryd( 3d)     0.01057
    25    O    1  dyz    Ryd( 4d)     0.00057
    26    O    1  dyz    Ryd( 5d)     0.00023
    27    O    1  dx2y2  Ryd( 3d)     0.01183
    28    O    1  dx2y2  Ryd( 4d)     0.00038
    29    O    1  dx2y2  Ryd( 5d)     0.00022
    30    O    1  dz2    Ryd( 3d)     0.00889
    31    O    1  dz2    Ryd( 4d)     0.00055
    32    O    1  dz2    Ryd( 5d)     0.00019
    33    O    1  f(0)   Ryd( 4f)     0.00064
    34    O    1  f(0)   Ryd( 5f)     0.00011
    35    O    1  f(C1)  Ryd( 4f)     0.00063
    36    O    1  f(C1)  Ryd( 5f)     0.00011
    37    O    1  f(S1)  Ryd( 4f)     0.00060
    38    O    1  f(S1)  Ryd( 5f)     0.00011
    39    O    1  f(C2)  Ryd( 4f)     0.00060
    40    O    1  f(C2)  Ryd( 5f)     0.00013
    41    O    1  f(S2)  Ryd( 4f)     0.00057
    42    O    1  f(S2)  Ryd( 5f)     0.00013
    43    O    1  f(C3)  Ryd( 4f)     0.00058
    44    O    1  f(C3)  Ryd( 5f)     0.00013
    45    O    1  f(S3)  Ryd( 4f)     0.00057
    46    O    1  f(S3)  Ryd( 5f)     0.00014

    47   Cl    2  S      Cor( 1S)     2.00000
    48   Cl    2  S      Cor( 2S)     1.99982
    49   Cl    2  S      Val( 3S)     1.88634
    50   Cl    2  S      Ryd( 4S)     0.00807
    51   Cl    2  S      Ryd( 5S)     0.00054
    52   Cl    2  S      Ryd( 6S)     0.00016
    53   Cl    2  px     Cor( 2p)     1.99997
    54   Cl    2  px     Val( 3p)     0.90757
    55   Cl    2  px     Ryd( 4p)     0.00650
    56   Cl    2  px     Ryd( 5p)     0.00052
    57   Cl    2  px     Ryd( 6p)     0.00020
    58   Cl    2  py     Cor( 2p)     2.00003
    59   Cl    2  py     Val( 3p)     1.95368
    60   Cl    2  py     Ryd( 4p)     0.00986
    61   Cl    2  py     Ryd( 5p)     0.00054
    62   Cl    2  py     Ryd( 6p)     0.00008
    63   Cl    2  pz     Cor( 2p)     2.00003
    64   Cl    2  pz     Val( 3p)     1.95449
    65   Cl    2  pz     Ryd( 4p)     0.01037
    66   Cl    2  pz     Ryd( 5p)     0.00064
    67   Cl    2  pz     Ryd( 6p)     0.00003
    68   Cl    2  dxy    Ryd( 3d)     0.01732
    69   Cl    2  dxy    Ryd( 4d)     0.00087
    70   Cl    2  dxy    Ryd( 5d)     0.00033
    71   Cl    2  dxz    Ryd( 3d)     0.02029
    72   Cl    2  dxz    Ryd( 4d)     0.00103
    73   Cl    2  dxz    Ryd( 5d)     0.00036
    74   Cl    2  dyz    Ryd( 3d)     0.01681
    75   Cl    2  dyz    Ryd( 4d)     0.00071
    76   Cl    2  dyz    Ryd( 5d)     0.00018
    77   Cl    2  dx2y2  Ryd( 3d)     0.01847
    78   Cl    2  dx2y2  Ryd( 4d)     0.00049
    79   Cl    2  dx2y2  Ryd( 5d)     0.00016
    80   Cl    2  dz2    Ryd( 3d)     0.01737
    81   Cl    2  dz2    Ryd( 4d)     0.00062
    82   Cl    2  dz2    Ryd( 5d)     0.00016
    83   Cl    2  f(0)   Ryd( 4f)     0.00130
    84   Cl    2  f(0)   Ryd( 5f)     0.00013
    85   Cl    2  f(C1)  Ryd( 4f)     0.00143
    86   Cl    2  f(C1)  Ryd( 5f)     0.00014
    87   Cl    2  f(S1)  Ryd( 4f)     0.00126
    88   Cl    2  f(S1)  Ryd( 5f)     0.00013
    89   Cl    2  f(C2)  Ryd( 4f)     0.00132
    90   Cl    2  f(C2)  Ryd( 5f)     0.00014
    91   Cl    2  f(S2)  Ryd( 4f)     0.00119
    92   Cl    2  f(S2)  Ryd( 5f)     0.00013
    93   Cl    2  f(C3)  Ryd( 4f)     0.00156
    94   Cl    2  f(C3)  Ryd( 5f)     0.00014
    95   Cl    2  f(S3)  Ryd( 4f)     0.00129
    96   Cl    2  f(S3)  Ryd( 5f)     0.00014

    97   Cl    3  S      Cor( 1S)     2.00000
    98   Cl    3  S      Cor( 2S)     2.00000
    99   Cl    3  S      Val( 3S)     1.97414
   100   Cl    3  S      Ryd( 4S)     0.00231
   101   Cl    3  S      Ryd( 5S)     0.00026
   102   Cl    3  S      Ryd( 6S)     0.00012
   103   Cl    3  px     Cor( 2p)     2.00003
   104   Cl    3  px     Val( 3p)     1.94954
   105   Cl    3  px     Ryd( 4p)     0.01293
   106   Cl    3  px     Ryd( 5p)     0.00057
   107   Cl    3  px     Ryd( 6p)     0.00006
   108   Cl    3  py     Cor( 2p)     2.00002
   109   Cl    3  py     Val( 3p)     1.90113
   110   Cl    3  py     Ryd( 4p)     0.01125
   111   Cl    3  py     Ryd( 5p)     0.00054
   112   Cl    3  py     Ryd( 6p)     0.00007
   113   Cl    3  pz     Cor( 2p)     2.00003
   114   Cl    3  pz     Val( 3p)     1.94717
   115   Cl    3  pz     Ryd( 4p)     0.01295
   116   Cl    3  pz     Ryd( 5p)     0.00057
   117   Cl    3  pz     Ryd( 6p)     0.00004
   118   Cl    3  dxy    Ryd( 3d)     0.01856
   119   Cl    3  dxy    Ryd( 4d)     0.00079
   120   Cl    3  dxy    Ryd( 5d)     0.00011
   121   Cl    3  dxz    Ryd( 3d)     0.01834
   122   Cl    3  dxz    Ryd( 4d)     0.00097
   123   Cl    3  dxz    Ryd( 5d)     0.00012
   124   Cl    3  dyz    Ryd( 3d)     0.01866
   125   Cl    3  dyz    Ryd( 4d)     0.00081
   126   Cl    3  dyz    Ryd( 5d)     0.00012
   127   Cl    3  dx2y2  Ryd( 3d)     0.01833
   128   Cl    3  dx2y2  Ryd( 4d)     0.00088
   129   Cl    3  dx2y2  Ryd( 5d)     0.00014
   130   Cl    3  dz2    Ryd( 3d)     0.01831
   131   Cl    3  dz2    Ryd( 4d)     0.00094
   132   Cl    3  dz2    Ryd( 5d)     0.00011
   133   Cl    3  f(0)   Ryd( 4f)     0.00129
   134   Cl    3  f(0)   Ryd( 5f)     0.00015
   135   Cl    3  f(C1)  Ryd( 4f)     0.00129
   136   Cl    3  f(C1)  Ryd( 5f)     0.00015
   137   Cl    3  f(S1)  Ryd( 4f)     0.00129
   138   Cl    3  f(S1)  Ryd( 5f)     0.00016
   139   Cl    3  f(C2)  Ryd( 4f)     0.00129
   140   Cl    3  f(C2)  Ryd( 5f)     0.00016
   141   Cl    3  f(S2)  Ryd( 4f)     0.00130
   142   Cl    3  f(S2)  Ryd( 5f)     0.00015
   143   Cl    3  f(C3)  Ryd( 4f)     0.00128
   144   Cl    3  f(C3)  Ryd( 5f)     0.00016
   145   Cl    3  f(S3)  Ryd( 4f)     0.00128
   146   Cl    3  f(S3)  Ryd( 5f)     0.00017

   147    H    4  S      Val( 1S)     0.48244
   148    H    4  S      Ryd( 2S)     0.00752
   149    H    4  S      Ryd( 3S)     0.00025
   150    H    4  S      Ryd( 4S)     0.00013
   151    H    4  px     Ryd( 2p)     0.00335
   152    H    4  px     Ryd( 3p)     0.00047
   153    H    4  px     Ryd( 4p)     0.00010
   154    H    4  py     Ryd( 2p)     0.00574
   155    H    4  py     Ryd( 3p)     0.00079
   156    H    4  py     Ryd( 4p)     0.00033
   157    H    4  pz     Ryd( 2p)     0.00423
   158    H    4  pz     Ryd( 3p)     0.00047
   159    H    4  pz     Ryd( 4p)     0.00021
   160    H    4  dxy    Ryd( 3d)     0.00024
   161    H    4  dxy    Ryd( 4d)     0.00010
   162    H    4  dxz    Ryd( 3d)     0.00020
   163    H    4  dxz    Ryd( 4d)     0.00007
   164    H    4  dyz    Ryd( 3d)     0.00032
   165    H    4  dyz    Ryd( 4d)     0.00010
   166    H    4  dx2y2  Ryd( 3d)     0.00024
   167    H    4  dx2y2  Ryd( 4d)     0.00011
   168    H    4  dz2    Ryd( 3d)     0.00025
   169    H    4  dz2    Ryd( 4d)     0.00010


 Summary of Natural Population Analysis:                  
                                                          
                                       Natural Population 
                Natural  -----------------------------------------------
    Atom  No    Charge         Core      Valence    Rydberg      Total
 -----------------------------------------------------------------------
      O    1   -0.72631      1.99967     6.61821    0.10842     8.72631
     Cl    2    0.15511      9.99984     6.70208    0.14297    16.84489
     Cl    3   -0.92103     10.00007     7.77198    0.14898    17.92103
      H    4    0.49223      0.00000     0.48244    0.02533     0.50777
 =======================================================================
   * Total *   -1.00000     21.99959    21.57472    0.42569    44.00000

                                 Natural Population      
 --------------------------------------------------------
   Core                      21.99959 ( 99.9981% of  22)
   Valence                   21.57472 ( 98.0669% of  22)
   Natural Minimal Basis     43.57431 ( 99.0325% of  44)
   Natural Rydberg Basis      0.42569 (  0.9675% of  44)
 --------------------------------------------------------

    Atom  No          Natural Electron Configuration
 ----------------------------------------------------------------------------
      O    1      [core]2S( 1.79)2p( 4.83)3S( 0.01)3p( 0.04)3d( 0.05)
     Cl    2      [core]3S( 1.89)3p( 4.82)4S( 0.01)3d( 0.09)4p( 0.03)4f( 0.01)
     Cl    3      [core]3S( 1.97)3p( 5.80)3d( 0.09)4p( 0.04)4f( 0.01)
      H    4            1S( 0.48)2S( 0.01)2p( 0.01)


 NATURAL BOND ORBITAL ANALYSIS:

                       Occupancies       Lewis Structure    Low   High
           Occ.    -------------------  -----------------   occ   occ
  Cycle   Thresh.   Lewis   Non-Lewis     CR  BD  3C  LP    (L)   (NL)   Dev
 =============================================================================
   1(1)    1.90    43.48477   0.51523     11   2   0   9     1      0    0.09
   2(2)    1.90    43.48477   0.51523     11   2   0   9     1      0    0.09
   3(1)    1.80    43.48477   0.51523     11   2   0   9     0      0    0.09
 -----------------------------------------------------------------------------

 Structure accepted: No low occupancy Lewis orbitals

 --------------------------------------------------------
   Core                     21.99959 ( 99.998% of  22)
   Valence Lewis            21.48518 ( 97.660% of  22)
  ==================       ============================
   Total Lewis              43.48477 ( 98.829% of  44)
  -----------------------------------------------------
   Valence non-Lewis         0.13605 (  0.309% of  44)
   Rydberg non-Lewis         0.37917 (  0.862% of  44)
  ==================       ============================
   Total non-Lewis           0.51523 (  1.171% of  44)
 --------------------------------------------------------


       (Occupancy)   Bond orbital/ Coefficients/ Hybrids
 ---------------------------------------------------------------------------------
     1. (1.93885) BD ( 1) O   1 -Cl   2  
                ( 58.72%)   0.7663* O   1 s(  9.86%)p 9.09( 89.61%)d 0.05(  0.52%)
                                                  f 0.00(  0.02%)
                                            0.0003  0.3110 -0.0406 -0.0138 -0.0010
                                            0.9454 -0.0256 -0.0098 -0.0101 -0.0071
                                           -0.0263 -0.0048  0.0000  0.0202  0.0132
                                            0.0024 -0.0003 -0.0194 -0.0010  0.0025
                                            0.0131  0.0018 -0.0002 -0.0096 -0.0011
                                            0.0011  0.0544  0.0050  0.0019 -0.0393
                                           -0.0036 -0.0001 -0.0000  0.0000 -0.0096
                                            0.0007 -0.0002 -0.0002  0.0004 -0.0010
                                           -0.0051  0.0014  0.0069  0.0002 -0.0005
                                            0.0019
                ( 41.28%)   0.6425*Cl   2 s(  8.25%)p10.98( 90.53%)d 0.14(  1.12%)
                                                  f 0.01(  0.11%)
                                           -0.0000  0.0005  0.2812 -0.0572 -0.0105
                                           -0.0021 -0.0004 -0.9491  0.0649  0.0140
                                           -0.0045 -0.0000 -0.0073 -0.0017  0.0018
                                           -0.0006  0.0000  0.0039  0.0001 -0.0016
                                            0.0007  0.0092 -0.0004  0.0006 -0.0088
                                           -0.0012 -0.0005 -0.0039  0.0000  0.0009
                                            0.0889 -0.0107 -0.0004 -0.0542  0.0058
                                            0.0004 -0.0006  0.0001  0.0203 -0.0030
                                            0.0002 -0.0002  0.0005  0.0000  0.0013
                                           -0.0010 -0.0255  0.0033 -0.0009  0.0003
     2. (1.96608) BD ( 1) O   1 - H   4  
                ( 78.55%)   0.8863* O   1 s( 28.34%)p 2.51( 71.14%)d 0.02(  0.51%)
                                                  f 0.00(  0.01%)
                                           -0.0003 -0.5323  0.0065  0.0078 -0.0022
                                            0.1867 -0.0179 -0.0029 -0.0025  0.7283
                                           -0.0103 -0.0068 -0.0028 -0.3815  0.0033
                                            0.0037  0.0034  0.0030  0.0029  0.0002
                                           -0.0013 -0.0016 -0.0005  0.0518  0.0034
                                           -0.0005  0.0464  0.0041  0.0022  0.0138
                                           -0.0004 -0.0022  0.0076 -0.0000 -0.0008
                                           -0.0000 -0.0019  0.0003  0.0043  0.0015
                                           -0.0016 -0.0015 -0.0008 -0.0020  0.0016
                                           -0.0023
                ( 21.45%)   0.4631* H   4 s( 99.82%)p 0.00(  0.18%)d 0.00(  0.00%)
                                           -0.9986 -0.0320 -0.0012  0.0003 -0.0118
                                           -0.0074  0.0022  0.0085 -0.0283 -0.0081
                                           -0.0211  0.0141  0.0022  0.0006  0.0021
                                           -0.0013 -0.0012 -0.0001 -0.0003  0.0009
                                           -0.0005  0.0014  0.0019
     3. (1.99967) CR ( 1) O   1           s(100.00%)p 0.00(  0.00%)
                                            1.0000 -0.0004  0.0000  0.0000 -0.0000
                                           -0.0002  0.0000  0.0000  0.0000  0.0001
                                            0.0000 -0.0000 -0.0000 -0.0000 -0.0000
                                            0.0000  0.0000  0.0000  0.0000 -0.0000
                                           -0.0000 -0.0000 -0.0000  0.0000  0.0000
                                           -0.0000 -0.0000 -0.0000  0.0000  0.0000
                                            0.0000 -0.0000  0.0000  0.0000  0.0000
                                           -0.0000 -0.0000  0.0000  0.0000  0.0000
                                            0.0000 -0.0000 -0.0000 -0.0000 -0.0000
                                           -0.0000
     4. (2.00000) CR ( 1)Cl   2           s(100.00%)
                                            1.0000  0.0000  0.0000 -0.0000 -0.0000
                                           -0.0000 -0.0000 -0.0000  0.0000  0.0000
                                           -0.0000 -0.0000 -0.0000 -0.0000  0.0000
                                           -0.0000 -0.0000  0.0000  0.0000 -0.0000
                                            0.0000  0.0000 -0.0000  0.0000 -0.0000
                                           -0.0000 -0.0000 -0.0000  0.0000  0.0000
                                            0.0000 -0.0000 -0.0000 -0.0000  0.0000
                                            0.0000 -0.0000  0.0000  0.0000 -0.0000
                                            0.0000 -0.0000  0.0000  0.0000  0.0000
                                           -0.0000 -0.0000  0.0000 -0.0000  0.0000
     5. (1.99982) CR ( 2)Cl   2           s(100.00%)p 0.00(  0.00%)
                                            0.0000  1.0000 -0.0004  0.0000  0.0000
                                            0.0000  0.0000  0.0004 -0.0000 -0.0000
                                            0.0000  0.0000  0.0000  0.0000 -0.0000
                                            0.0000 -0.0000 -0.0000 -0.0000  0.0000
                                           -0.0000 -0.0000  0.0000 -0.0000  0.0000
                                            0.0000  0.0000  0.0000  0.0000 -0.0000
                                           -0.0000  0.0000  0.0000  0.0000 -0.0000
                                           -0.0000  0.0000 -0.0000 -0.0000  0.0000
                                           -0.0000  0.0000 -0.0000 -0.0000 -0.0000
                                            0.0000  0.0000 -0.0000  0.0000 -0.0000
     6. (1.99997) CR ( 3)Cl   2           s(  0.00%)p 1.00(100.00%)
                                           -0.0000  0.0000  0.0001 -0.0000 -0.0000
                                           -0.0000  1.0000 -0.0004  0.0000  0.0000
                                           -0.0000  0.0000 -0.0000 -0.0000  0.0000
                                           -0.0000  0.0000  0.0000  0.0000 -0.0000
                                            0.0000  0.0000 -0.0000  0.0000 -0.0000
                                           -0.0000 -0.0000 -0.0000  0.0000  0.0000
                                            0.0000 -0.0000 -0.0000 -0.0000  0.0000
                                            0.0000 -0.0000  0.0000  0.0000 -0.0000
                                            0.0000 -0.0000  0.0000  0.0000  0.0000
                                           -0.0000 -0.0000  0.0000 -0.0000  0.0000
     7. (2.00003) CR ( 4)Cl   2           s(  0.00%)p 1.00(100.00%)
                                           -0.0000  0.0000  0.0000  0.0000  0.0000
                                           -0.0000  0.0000 -0.0000  0.0000  0.0000
                                           -0.0000  1.0000  0.0002  0.0000  0.0000
                                           -0.0000  0.0000 -0.0000 -0.0000  0.0000
                                           -0.0000  0.0000  0.0000  0.0000  0.0000
                                            0.0000  0.0000  0.0000  0.0000 -0.0000
                                           -0.0000 -0.0000 -0.0000 -0.0000 -0.0000
                                           -0.0000  0.0000 -0.0000  0.0000  0.0000
                                           -0.0000 -0.0000  0.0000 -0.0000 -0.0000
                                            0.0000 -0.0000  0.0000  0.0000 -0.0000
     8. (2.00003) CR ( 5)Cl   2           s(  0.00%)p 1.00(100.00%)
                                           -0.0000 -0.0000 -0.0000  0.0000  0.0000
                                           -0.0000  0.0000  0.0000 -0.0000  0.0000
                                            0.0000  0.0000 -0.0000 -0.0000  0.0000
                                           -0.0000  1.0000  0.0002  0.0000  0.0000
                                           -0.0000  0.0000  0.0000  0.0000  0.0000
                                            0.0000  0.0000  0.0000  0.0000  0.0000
                                           -0.0000  0.0000  0.0000  0.0000  0.0000
                                            0.0000 -0.0000  0.0000 -0.0000  0.0000
                                           -0.0000  0.0000  0.0000 -0.0000  0.0000
                                           -0.0000  0.0000  0.0000 -0.0000 -0.0000
     9. (2.00000) CR ( 1)Cl   3           s(100.00%)p 0.00(  0.00%)
                                            1.0000 -0.0000  0.0000  0.0000 -0.0000
                                            0.0000  0.0000  0.0000 -0.0000 -0.0000
                                            0.0000  0.0000  0.0001 -0.0000 -0.0000
                                            0.0000  0.0000  0.0000  0.0000 -0.0000
                                            0.0000  0.0000  0.0000  0.0000  0.0000
                                            0.0000  0.0000  0.0000  0.0000  0.0000
                                           -0.0000 -0.0000  0.0000 -0.0000 -0.0000
                                           -0.0000 -0.0000 -0.0000 -0.0000 -0.0000
                                           -0.0000 -0.0000 -0.0000 -0.0000  0.0000
                                            0.0000 -0.0000 -0.0000 -0.0000 -0.0000
    10. (2.00000) CR ( 2)Cl   3           s(100.00%)
                                           -0.0000  1.0000  0.0000  0.0000 -0.0000
                                            0.0000  0.0000  0.0000 -0.0000 -0.0000
                                            0.0000  0.0000  0.0000 -0.0000 -0.0000
                                            0.0000  0.0000  0.0000  0.0000 -0.0000
                                            0.0000  0.0000  0.0000  0.0000  0.0000
                                            0.0000  0.0000  0.0000  0.0000  0.0000
                                           -0.0000 -0.0000  0.0000 -0.0000 -0.0000
                                           -0.0000 -0.0000 -0.0000 -0.0000 -0.0000
                                           -0.0000 -0.0000 -0.0000 -0.0000  0.0000
                                            0.0000 -0.0000 -0.0000 -0.0000 -0.0000
    11. (2.00003) CR ( 3)Cl   3           s(  0.00%)p 1.00(100.00%)
                                            0.0000  0.0000 -0.0000  0.0000  0.0000
                                            0.0000  1.0000  0.0000  0.0000  0.0000
                                           -0.0000 -0.0000 -0.0000  0.0000  0.0000
                                           -0.0000 -0.0000 -0.0000 -0.0000  0.0000
                                           -0.0000  0.0000  0.0000 -0.0000  0.0000
                                            0.0000  0.0000 -0.0000 -0.0000 -0.0000
                                            0.0000  0.0000 -0.0000  0.0000  0.0000
                                            0.0000  0.0000  0.0000 -0.0000 -0.0000
                                            0.0000  0.0000  0.0000  0.0000  0.0000
                                            0.0000 -0.0000 -0.0000  0.0000  0.0000
    12. (2.00002) CR ( 4)Cl   3           s(  0.00%)p 1.00(100.00%)
                                            0.0000  0.0000 -0.0000 -0.0000  0.0000
                                           -0.0000 -0.0000 -0.0000  0.0000  0.0000
                                           -0.0000  1.0000 -0.0001  0.0000  0.0000
                                           -0.0000 -0.0000 -0.0000 -0.0000  0.0000
                                           -0.0000 -0.0000 -0.0000 -0.0000 -0.0000
                                           -0.0000 -0.0000 -0.0000 -0.0000 -0.0000
                                            0.0000  0.0000 -0.0000  0.0000  0.0000
                                            0.0000  0.0000  0.0000  0.0000  0.0000
                                            0.0000  0.0000  0.0000  0.0000 -0.0000
                                           -0.0000  0.0000  0.0000  0.0000  0.0000
    13. (2.00003) CR ( 5)Cl   3           s(  0.00%)p 1.00(100.00%)
                                            0.0000  0.0000 -0.0000 -0.0000  0.0000
                                           -0.0000 -0.0000 -0.0000  0.0000  0.0000
                                           -0.0000 -0.0000 -0.0001  0.0000  0.0000
                                           -0.0000  1.0000  0.0000 -0.0000  0.0000
                                           -0.0000 -0.0000 -0.0000 -0.0000 -0.0000
                                           -0.0000 -0.0000 -0.0000 -0.0000 -0.0000
                                            0.0000  0.0000 -0.0000  0.0000  0.0000
                                            0.0000  0.0000  0.0000  0.0000  0.0000
                                            0.0000  0.0000  0.0000  0.0000 -0.0000
                                           -0.0000  0.0000  0.0000  0.0000  0.0000
    14. (1.96773) LP ( 1) O   1           s( 61.91%)p 0.61( 37.99%)d 0.00(  0.09%)
                                                  f 0.00(  0.00%)
                                            0.0002  0.7867  0.0117  0.0076 -0.0012
                                           -0.2481 -0.0036 -0.0042 -0.0021  0.4905
                                            0.0074  0.0053  0.0020 -0.2786 -0.0039
                                           -0.0025 -0.0004  0.0197  0.0017 -0.0031
                                           -0.0122 -0.0018  0.0008  0.0155  0.0006
                                           -0.0012  0.0111 -0.0002 -0.0036  0.0036
                                            0.0001  0.0010  0.0029 -0.0003 -0.0006
                                            0.0008 -0.0008  0.0002 -0.0003  0.0006
                                            0.0019 -0.0008  0.0029 -0.0018  0.0034
                                           -0.0014
    15. (1.95344) LP ( 2) O   1           s(  0.02%)p99.99( 99.77%)d 9.75(  0.19%)
                                                  f 0.72(  0.01%)
                                           -0.0000  0.0108  0.0083  0.0035 -0.0004
                                           -0.0182 -0.0013 -0.0002 -0.0010  0.4728
                                            0.0089  0.0026  0.0023  0.8794  0.0183
                                            0.0060  0.0062  0.0144  0.0022 -0.0007
                                            0.0270  0.0046 -0.0004 -0.0116  0.0037
                                            0.0081  0.0106 -0.0025 -0.0053  0.0239
                                           -0.0007 -0.0057 -0.0055  0.0006 -0.0007
                                           -0.0004 -0.0070 -0.0001  0.0065 -0.0016
                                            0.0003  0.0008 -0.0004 -0.0007  0.0034
                                           -0.0017
    16. (1.97443) LP ( 1)Cl   2           s( 91.97%)p 0.09(  8.01%)d 0.00(  0.02%)
                                                  f 0.00(  0.00%)
                                            0.0000  0.0003  0.9590  0.0067  0.0012
                                            0.0002  0.0000  0.2819 -0.0058 -0.0028
                                            0.0011  0.0000 -0.0165  0.0018  0.0003
                                           -0.0004  0.0000  0.0168  0.0005  0.0001
                                            0.0001  0.0002 -0.0003 -0.0004  0.0003
                                            0.0003  0.0004 -0.0006 -0.0002  0.0001
                                           -0.0113  0.0006 -0.0001  0.0076  0.0006
                                            0.0004 -0.0002  0.0001 -0.0021 -0.0003
                                           -0.0000  0.0001  0.0001  0.0000  0.0004
                                           -0.0003  0.0031  0.0001 -0.0005  0.0003
    17. (1.95618) LP ( 2)Cl   2           s(  0.01%)p99.99( 99.93%)d 4.10(  0.05%)
                                                  f 0.68(  0.01%)
                                            0.0000  0.0000  0.0096 -0.0046 -0.0020
                                            0.0012 -0.0000  0.0023  0.0002 -0.0005
                                            0.0004  0.0001 -0.3565 -0.0046 -0.0016
                                            0.0001  0.0002 -0.9338 -0.0143 -0.0045
                                            0.0020 -0.0036 -0.0066 -0.0032 -0.0067
                                           -0.0163 -0.0081 -0.0046 -0.0043 -0.0013
                                            0.0014  0.0009  0.0008 -0.0004  0.0001
                                           -0.0000  0.0045 -0.0003  0.0006 -0.0004
                                            0.0015 -0.0006 -0.0067  0.0014 -0.0004
                                            0.0002  0.0005 -0.0005 -0.0029  0.0006
    18. (1.95515) LP ( 3)Cl   2           s(  0.06%)p99.99( 99.89%)d 0.69(  0.04%)
                                                  f 0.15(  0.01%)
                                            0.0000 -0.0000  0.0230  0.0063  0.0039
                                           -0.0016  0.0000 -0.0029 -0.0003 -0.0002
                                           -0.0008 -0.0002  0.9337  0.0120  0.0016
                                           -0.0001  0.0001 -0.3563 -0.0057 -0.0009
                                            0.0003 -0.0008  0.0140  0.0075  0.0015
                                           -0.0047 -0.0028  0.0000 -0.0008 -0.0006
                                           -0.0083 -0.0053 -0.0031 -0.0018 -0.0033
                                           -0.0005  0.0024 -0.0005  0.0005  0.0000
                                           -0.0015 -0.0004 -0.0021  0.0001 -0.0007
                                            0.0004 -0.0011  0.0001  0.0084 -0.0015
    19. (1.97865) LP ( 1)Cl   3           s( 94.96%)p 0.05(  5.04%)d 0.00(  0.00%)
                                                  f 0.00(  0.00%)
                                            0.0000  0.0000  0.9745 -0.0002  0.0003
                                           -0.0002  0.0000 -0.0505  0.0002 -0.0002
                                           -0.0000  0.0000 -0.2088  0.0013 -0.0006
                                            0.0004  0.0000 -0.0651  0.0004 -0.0001
                                            0.0001  0.0004  0.0001 -0.0001 -0.0001
                                            0.0000 -0.0001 -0.0002  0.0002 -0.0002
                                           -0.0007 -0.0004  0.0002 -0.0005 -0.0002
                                            0.0002 -0.0002 -0.0001 -0.0001 -0.0000
                                           -0.0003 -0.0001 -0.0002 -0.0002  0.0001
                                            0.0000 -0.0003 -0.0002 -0.0003 -0.0002
    20. (1.95220) LP ( 2)Cl   3           s(  0.00%)p 1.00( 99.99%)d 0.00(  0.01%)
                                                  f 0.00(  0.00%)
                                            0.0000  0.0000  0.0034  0.0010 -0.0009
                                            0.0013 -0.0000  0.7735  0.0012  0.0008
                                           -0.0002 -0.0000  0.0262 -0.0003 -0.0003
                                            0.0001  0.0000 -0.6331 -0.0004 -0.0007
                                            0.0005  0.0072  0.0016 -0.0003  0.0016
                                            0.0010  0.0006 -0.0045 -0.0006  0.0005
                                            0.0010  0.0001  0.0000 -0.0034 -0.0012
                                           -0.0004  0.0006  0.0003 -0.0007 -0.0004
                                           -0.0014 -0.0008  0.0011  0.0006  0.0006
                                            0.0004 -0.0018 -0.0010  0.0008  0.0006
    21. (1.95201) LP ( 3)Cl   3           s(  0.00%)p 1.00( 99.99%)d 0.00(  0.01%)
                                                  f 0.00(  0.00%)
                                           -0.0000 -0.0000  0.0041 -0.0006  0.0008
                                           -0.0009 -0.0000  0.6003  0.0010  0.0007
                                           -0.0002  0.0000 -0.3502  0.0001 -0.0000
                                           -0.0001 -0.0000  0.7190  0.0005  0.0008
                                           -0.0004  0.0050  0.0011 -0.0000  0.0032
                                            0.0011  0.0004  0.0041  0.0006 -0.0006
                                            0.0037  0.0003 -0.0009  0.0038  0.0015
                                            0.0005 -0.0007 -0.0004  0.0000  0.0000
                                            0.0017  0.0010 -0.0006 -0.0003  0.0013
                                            0.0009 -0.0010 -0.0007  0.0013  0.0007
    22. (1.89048) LP ( 4)Cl   3           s(  5.03%)p18.86( 94.92%)d 0.01(  0.04%)
                                                  f 0.00(  0.00%)
                                           -0.0002 -0.0000  0.2243  0.0008 -0.0012
                                            0.0010  0.0000  0.1965 -0.0004 -0.0002
                                            0.0004  0.0001  0.9125 -0.0024 -0.0023
                                            0.0007  0.0000  0.2791  0.0015 -0.0006
                                            0.0006  0.0064  0.0018  0.0004  0.0025
                                            0.0007  0.0002  0.0118  0.0032  0.0008
                                           -0.0135 -0.0029  0.0003 -0.0073 -0.0018
                                           -0.0002 -0.0020 -0.0010 -0.0005 -0.0004
                                           -0.0018 -0.0012 -0.0024 -0.0012  0.0011
                                            0.0006 -0.0021 -0.0012 -0.0025 -0.0011
    23. (0.01935) RY*( 1) O   1           s(  0.16%)p99.99( 98.35%)d 8.67(  1.43%)
                                                  f 0.33(  0.06%)
                                            0.0000 -0.0004  0.0404  0.0035  0.0015
                                            0.0029 -0.0179  0.0001 -0.0034 -0.0117
                                            0.4642 -0.0181 -0.0080 -0.0227  0.8748
                                           -0.0358 -0.0076  0.0424  0.0118  0.0028
                                            0.0787  0.0250  0.0095 -0.0308  0.0035
                                            0.0126  0.0253 -0.0023 -0.0070  0.0597
                                            0.0034 -0.0064 -0.0087  0.0074  0.0013
                                            0.0001 -0.0048  0.0053  0.0114 -0.0099
                                           -0.0023  0.0012  0.0025 -0.0009  0.0087
                                           -0.0071
    24. (0.01550) RY*( 2) O   1           s( 28.92%)p 2.36( 68.40%)d 0.08(  2.42%)
                                                  f 0.01(  0.26%)
                                           -0.0000  0.0009  0.5356 -0.0488 -0.0037
                                            0.0399 -0.3538 -0.0034  0.0240 -0.0147
                                            0.6445 -0.0035 -0.0380  0.0048 -0.3729
                                            0.0067  0.0213  0.1190  0.0206  0.0053
                                           -0.0784 -0.0164 -0.0082  0.0451 -0.0001
                                           -0.0095  0.0110  0.0053  0.0028  0.0287
                                            0.0028 -0.0030 -0.0023 -0.0010 -0.0118
                                            0.0050 -0.0081  0.0059 -0.0194  0.0089
                                            0.0158 -0.0086  0.0291 -0.0130  0.0199
                                           -0.0102
    25. (0.00773) RY*( 3) O   1           s( 14.85%)p 0.48(  7.06%)d 5.16( 76.64%)
                                                  f 0.10(  1.45%)
                                           -0.0000  0.0150  0.3809 -0.0552  0.0118
                                           -0.0191 -0.1457  0.0057  0.0256 -0.0074
                                           -0.1915  0.0188 -0.0646 -0.0004  0.0829
                                           -0.0087  0.0101 -0.8010 -0.0062 -0.0187
                                            0.2051  0.0081  0.0080  0.0330 -0.0033
                                            0.0047  0.1705  0.0087  0.0258  0.2263
                                           -0.0073  0.0049 -0.0040  0.0022 -0.0120
                                            0.0094 -0.0060  0.0067  0.0186 -0.0071
                                           -0.0414  0.0176 -0.0368  0.0107 -0.0930
                                            0.0406
    26. (0.00699) RY*( 4) O   1           s(  0.53%)p 0.73(  0.38%)d99.99( 97.39%)
                                                  f 3.21(  1.70%)
                                           -0.0000  0.0044  0.0722 -0.0072 -0.0018
                                           -0.0039 -0.0052  0.0029  0.0057 -0.0061
                                           -0.0195 -0.0051 -0.0034 -0.0155 -0.0547
                                           -0.0079  0.0037  0.1712 -0.0162  0.0009
                                            0.8930 -0.0365  0.0120  0.2489 -0.0146
                                            0.0039 -0.1726  0.0112  0.0007 -0.2304
                                            0.0118 -0.0074 -0.0587  0.0260  0.0148
                                           -0.0062  0.0308 -0.0135  0.0876 -0.0380
                                           -0.0231  0.0094 -0.0073  0.0001  0.0368
                                           -0.0170
    27. (0.00628) RY*( 5) O   1           s(  0.48%)p14.30(  6.92%)d99.99( 91.09%)
                                                  f 3.10(  1.50%)
                                           -0.0000  0.0031  0.0656 -0.0227 -0.0034
                                           -0.0106 -0.1453  0.0023  0.0248 -0.0402
                                           -0.2120  0.0177 -0.0117 -0.0170  0.0017
                                           -0.0037  0.0088  0.4351 -0.0183  0.0123
                                            0.2209 -0.0263 -0.0064 -0.2321  0.0190
                                           -0.0031  0.5233 -0.0235  0.0217  0.5835
                                           -0.0398  0.0198 -0.0019 -0.0005  0.0219
                                           -0.0108 -0.0804  0.0400  0.0340 -0.0175
                                            0.0034 -0.0015  0.0647 -0.0253 -0.0038
                                            0.0035
    28. (0.00602) RY*( 6) O   1           s(  1.57%)p12.73( 20.05%)d48.79( 76.81%)
                                                  f 0.99(  1.57%)
                                           -0.0000  0.0105  0.1195 -0.0336 -0.0146
                                           -0.0219 -0.2930  0.0033  0.0368 -0.0475
                                           -0.2759  0.0195  0.0075  0.0388  0.1783
                                           -0.0163 -0.0200  0.1774 -0.0022  0.0140
                                           -0.2455  0.0177 -0.0032  0.7756 -0.0525
                                            0.0263  0.2308  0.0044  0.0123 -0.1315
                                            0.0090 -0.0004  0.0606 -0.0311 -0.0263
                                            0.0089  0.0333 -0.0141  0.0461 -0.0229
                                            0.0528 -0.0219  0.0500 -0.0189 -0.0122
                                            0.0055
    29. (0.00567) RY*( 7) O   1           s(  1.03%)p11.53( 11.90%)d82.30( 84.95%)
                                                  f 2.05(  2.12%)
                                           -0.0000  0.0190  0.0965 -0.0202  0.0156
                                            0.0708  0.3321 -0.0030 -0.0482 -0.0047
                                            0.0243  0.0044 -0.0053 -0.0027 -0.0265
                                           -0.0012  0.0036  0.0574 -0.0164 -0.0120
                                           -0.0475  0.0097  0.0072  0.3687 -0.0536
                                            0.0006 -0.5081  0.0318  0.0083  0.6639
                                           -0.0672 -0.0029  0.0248 -0.0111  0.0909
                                           -0.0352 -0.0149  0.0073 -0.0085  0.0040
                                            0.0248 -0.0095 -0.0867  0.0350  0.0311
                                           -0.0131
    30. (0.00287) RY*( 8) O   1           s( 29.60%)p 1.01( 29.81%)d 1.35( 40.04%)
                                                  f 0.02(  0.55%)
                                            0.0000 -0.0056  0.5215 -0.1533  0.0207
                                            0.0264 -0.1350  0.0298  0.0505  0.0217
                                           -0.4354  0.0738 -0.1782 -0.0107  0.2119
                                           -0.0515  0.0283  0.2462 -0.0433  0.0288
                                           -0.1161  0.0241 -0.0076 -0.3245  0.0779
                                           -0.0296 -0.4178  0.0684 -0.0271 -0.1505
                                            0.0901 -0.0015 -0.0229  0.0248 -0.0004
                                            0.0041 -0.0178  0.0121 -0.0396  0.0283
                                            0.0083 -0.0125 -0.0134 -0.0083  0.0310
                                           -0.0109
    31. (0.00251) RY*( 9) O   1           s( 17.98%)p 3.41( 61.25%)d 1.13( 20.23%)
                                                  f 0.03(  0.54%)
                                           -0.0000  0.0002  0.4122 -0.0990 -0.0079
                                            0.0107  0.7761 -0.0320 -0.0116 -0.0083
                                            0.0367  0.0187 -0.0810  0.0045 -0.0177
                                           -0.0057  0.0114  0.0737 -0.0235 -0.0038
                                           -0.0398  0.0097  0.0008  0.0620 -0.0033
                                            0.0076  0.3703 -0.0257  0.0961 -0.1993
                                            0.0560 -0.0292 -0.0026 -0.0019 -0.0318
                                            0.0340 -0.0121  0.0114 -0.0012 -0.0006
                                            0.0135 -0.0032  0.0385 -0.0345 -0.0058
                                            0.0033
    32. (0.00077) RY*(10) O   1           s( 41.59%)p 1.06( 43.98%)d 0.25( 10.59%)
                                                  f 0.09(  3.83%)
                                           -0.0000 -0.0026  0.0457  0.6426  0.0297
                                            0.0117 -0.0092 -0.0985 -0.2456 -0.0087
                                            0.0101  0.5199 -0.1613  0.0017 -0.0095
                                           -0.2479  0.1077  0.0188 -0.1898 -0.0962
                                           -0.0031  0.0215  0.0156  0.0192 -0.0535
                                            0.0741  0.0238  0.0298 -0.0204 -0.0115
                                            0.1847  0.1213 -0.0203 -0.0160  0.0041
                                            0.0038 -0.1191  0.0488 -0.0245  0.0049
                                           -0.0468  0.0145 -0.1116  0.0355 -0.0656
                                            0.0053
    33. (0.00064) RY*(11) O   1           s(  0.24%)p99.99( 30.76%)d99.99( 48.74%)
                                                  f86.22( 20.26%)
                                           -0.0000 -0.0007  0.0366  0.0261 -0.0181
                                            0.0015  0.0012  0.0046 -0.0571 -0.0034
                                           -0.0026  0.3130  0.0310 -0.0034  0.0351
                                            0.4517  0.0109  0.0167 -0.1749 -0.0206
                                            0.0195 -0.1680 -0.0113  0.0115  0.3925
                                            0.0152 -0.0107 -0.2636 -0.0302 -0.0233
                                           -0.4481 -0.0338  0.1165  0.0107 -0.2847
                                            0.0394  0.0992 -0.0082 -0.1005 -0.0099
                                            0.1965 -0.0259 -0.2106  0.0266 -0.0391
                                           -0.0195
    34. (0.00061) RY*(12) O   1           s(  2.54%)p23.90( 60.60%)d 9.94( 25.21%)
                                                  f 4.60( 11.66%)
                                           -0.0000  0.0015  0.0569  0.1487 -0.0028
                                            0.0067  0.0185 -0.0109  0.0122 -0.0029
                                           -0.0298 -0.3652  0.1812  0.0019 -0.0119
                                           -0.6147  0.2455 -0.0205 -0.0550 -0.0303
                                           -0.0136 -0.1031 -0.0193  0.0111  0.4136
                                            0.0065 -0.0114 -0.2108 -0.0398  0.0005
                                           -0.1359  0.0269 -0.0505 -0.0133 -0.0806
                                            0.0105  0.0111 -0.0031  0.1098  0.0242
                                            0.2957 -0.0388 -0.0397 -0.0008  0.0622
                                            0.0081
    35. (0.00058) RY*(13) O   1           s(  3.46%)p 3.11( 10.76%)d13.10( 45.35%)
                                                  f11.67( 40.43%)
                                           -0.0000  0.0037 -0.0048  0.1560  0.1013
                                            0.0087  0.0161  0.0263  0.0581 -0.0056
                                            0.0055 -0.0160 -0.0214 -0.0003  0.0037
                                            0.3129 -0.0671 -0.0489  0.1701 -0.0441
                                            0.0340 -0.0617  0.0341  0.0332  0.4126
                                            0.0366 -0.0054  0.0346 -0.0504  0.0321
                                            0.4830  0.0577  0.1040  0.0056  0.3440
                                           -0.0261 -0.0414  0.0009 -0.0576 -0.0080
                                            0.4483 -0.0321  0.2587 -0.0187  0.0028
                                           -0.0007
    36. (0.00050) RY*(14) O   1           s(  0.22%)p34.19(  7.50%)d99.99( 42.71%)
                                                  f99.99( 49.58%)
                                            0.0000 -0.0007  0.0354  0.0275 -0.0135
                                            0.0002 -0.0006 -0.1748 -0.0117  0.0055
                                           -0.0006 -0.1626  0.1272  0.0060  0.0223
                                            0.0042  0.0328  0.0186 -0.5341  0.0643
                                           -0.0077 -0.3650  0.0296 -0.0036 -0.0208
                                           -0.0121 -0.0276  0.0078 -0.0391 -0.0084
                                           -0.0068 -0.0111  0.0942  0.0008  0.2779
                                           -0.0027  0.2573  0.0047 -0.2477 -0.0072
                                           -0.2175  0.0002  0.2901 -0.0042 -0.3867
                                           -0.0305
    37. (0.00050) RY*(15) O   1           s(  0.17%)p55.78(  9.53%)d99.99( 40.45%)
                                                  f99.99( 49.85%)
                                            0.0000 -0.0016  0.0195  0.0358  0.0068
                                            0.0002 -0.0038 -0.2671 -0.0058  0.0012
                                            0.0039  0.0376  0.0517 -0.0065 -0.0128
                                            0.1356 -0.0345  0.0080 -0.1724  0.0247
                                           -0.0375  0.5669 -0.1025 -0.0140  0.1213
                                           -0.0554 -0.0166 -0.0213 -0.0141  0.0052
                                           -0.1453  0.0280 -0.4660 -0.0299  0.1648
                                            0.0122  0.2204  0.0171  0.3722  0.0228
                                            0.0747 -0.0080  0.1525  0.0029 -0.1895
                                           -0.0218
    38. (0.00047) RY*(16) O   1           s(  2.38%)p23.68( 56.34%)d 3.57(  8.50%)
                                                  f13.78( 32.78%)
                                           -0.0000  0.0052  0.0633  0.1249  0.0645
                                            0.0060 -0.0121  0.7129 -0.1760 -0.0010
                                           -0.0123 -0.0945  0.0713 -0.0001  0.0084
                                            0.0956  0.0253  0.0021 -0.1977 -0.0359
                                           -0.0350  0.0685 -0.0375 -0.0051  0.0205
                                           -0.0036  0.0689 -0.0493  0.1041 -0.0571
                                           -0.1224 -0.0233 -0.0982 -0.0086  0.4651
                                            0.0443  0.0640  0.0050  0.0412  0.0074
                                           -0.1249 -0.0083 -0.1962 -0.0231  0.1977
                                            0.0137
    39. (0.00048) RY*(17) O   1           s(  0.41%)p25.25( 10.34%)d50.97( 20.87%)
                                                  f99.99( 68.38%)
                                            0.0000  0.0020 -0.0083  0.0198  0.0602
                                           -0.0007 -0.0183  0.1256 -0.0276  0.0043
                                            0.0070 -0.2552 -0.0283 -0.0013 -0.0072
                                            0.0558 -0.1319  0.0393 -0.2442  0.0685
                                            0.0261  0.0499  0.0380 -0.0236 -0.2842
                                            0.0554  0.0306  0.1745  0.0133 -0.0005
                                            0.1415 -0.0476 -0.2105 -0.0210 -0.2004
                                           -0.0031 -0.0757 -0.0033 -0.1843 -0.0300
                                            0.5169  0.0284 -0.3956 -0.0219 -0.3642
                                           -0.0257
    40. (0.00046) RY*(18) O   1           s(  8.41%)p 5.09( 42.79%)d 0.92(  7.72%)
                                                  f 4.88( 41.08%)
                                           -0.0000  0.0022  0.0887  0.2420  0.1330
                                           -0.0058 -0.0261 -0.3575 -0.0736 -0.0107
[...]
                                           -0.0585  0.1167 -0.0530
   152. (0.00040) RY*( 7) H   4           s(  1.98%)p26.81( 53.12%)d22.65( 44.89%)
                                           -0.0006 -0.0475 -0.0477  0.1236 -0.0240
                                           -0.4726  0.0011 -0.0640  0.0150 -0.2400
                                            0.1476 -0.2351 -0.4104  0.0413 -0.1224
                                            0.0104  0.0046 -0.5972 -0.0305  0.1938
                                            0.1045  0.1073  0.1205
   153. (0.00030) RY*( 8) H   4           s(  2.58%)p24.72( 63.66%)d13.11( 33.77%)
                                            0.0030 -0.0351  0.1505  0.0433 -0.0340
                                            0.4116 -0.0427  0.0008  0.0363  0.2580
                                           -0.0646  0.4827 -0.3989 -0.2674  0.1622
                                           -0.2366 -0.0540 -0.4086 -0.0448  0.0799
                                           -0.0397 -0.0088 -0.0629
   154. (0.00026) RY*( 9) H   4           s( 30.76%)p 0.87( 26.67%)d 1.38( 42.57%)
                                            0.0043 -0.0302  0.5512  0.0530 -0.0374
                                            0.2264 -0.1697  0.0644 -0.2787 -0.1622
                                            0.0335 -0.2661 -0.0722 -0.2196  0.0349
                                            0.2602 -0.1130  0.1922 -0.1336  0.4644
                                            0.0713  0.1279  0.0621
   155. (0.00024) RY*(10) H   4           s(  0.61%)p31.05( 18.97%)d99.99( 80.42%)
                                            0.0050  0.0138  0.0239  0.0730  0.0959
                                            0.0095  0.1802 -0.0456 -0.0723  0.1192
                                           -0.0417  0.3511 -0.0368  0.5654  0.0758
                                            0.6270 -0.0540 -0.1040 -0.0030  0.1887
                                           -0.0801  0.0730 -0.1567
   156. (0.00020) RY*(11) H   4           s(  6.55%)p10.10( 66.18%)d 4.16( 27.27%)
                                           -0.0210 -0.0809  0.2306 -0.0732  0.0619
                                            0.2238  0.0492  0.0882  0.3818  0.3747
                                            0.0232 -0.5072 -0.2318  0.2343  0.0180
                                            0.0933 -0.0804 -0.0575 -0.1657 -0.3705
                                           -0.0455  0.1721  0.0503
   157. (0.00018) RY*(12) H   4           s(  0.40%)p50.51( 20.32%)d99.99( 79.28%)
                                            0.0099 -0.0065 -0.0287  0.0553  0.0594
                                            0.0248  0.1099  0.0088 -0.2608 -0.1797
                                            0.0858  0.1752 -0.2203  0.1475 -0.0256
                                           -0.2565  0.0534  0.2531 -0.0014 -0.1937
                                            0.0010  0.7744  0.0224
   158. (0.00014) RY*(13) H   4           s(  8.01%)p 3.82( 30.55%)d 7.68( 61.45%)
                                           -0.0056 -0.0153  0.1605  0.2324 -0.0006
                                            0.0427 -0.1700 -0.0447  0.0775  0.1581
                                            0.0070 -0.1545  0.4667  0.0165 -0.0685
                                           -0.1349  0.1639 -0.3164  0.4069  0.1555
                                           -0.2435  0.3337 -0.3223
   159. (0.00011) RY*(14) H   4           s( 23.60%)p 0.11(  2.63%)d 3.13( 73.76%)
                                            0.0009 -0.0086  0.3608  0.3252  0.0488
                                           -0.0250  0.1231  0.0081  0.0081 -0.0441
                                           -0.0280  0.0145 -0.0715  0.5143 -0.0897
                                           -0.5245  0.1045  0.1531 -0.0674  0.1611
                                            0.0489 -0.3495 -0.0240
   160. (0.00011) RY*(15) H   4           s( 31.94%)p 0.37( 11.68%)d 1.77( 56.38%)
                                            0.0033  0.0385  0.1812  0.5339  0.0083
                                            0.1478 -0.1524 -0.0113 -0.1152 -0.2128
                                           -0.0400  0.1023  0.0303 -0.0625 -0.1607
                                            0.2546 -0.0122 -0.1140  0.2324 -0.5490
                                            0.1921 -0.1274  0.2182
   161. (0.00010) RY*(16) H   4           s(  3.98%)p10.91( 43.47%)d13.19( 52.54%)
   162. (0.00006) RY*(17) H   4           s(  0.01%)p99.99(  2.72%)d99.99( 97.27%)
   163. (0.00006) RY*(18) H   4           s( 50.41%)p 0.43( 21.58%)d 0.56( 28.01%)
   164. (0.00006) RY*(19) H   4           s(  0.67%)p14.67(  9.82%)d99.99( 89.51%)
   165. (0.00005) RY*(20) H   4           s(  0.46%)p45.86( 21.07%)d99.99( 78.47%)
   166. (0.00004) RY*(21) H   4           s( 10.57%)p 2.09( 22.14%)d 6.37( 67.29%)
   167. (0.00004) RY*(22) H   4           s(  6.93%)p 6.19( 42.90%)d 7.24( 50.17%)
   168. (0.05847) BD*( 1) O   1 -Cl   2  
                ( 41.28%)   0.6425* O   1 s(  9.86%)p 9.09( 89.61%)d 0.05(  0.52%)
                                                  f 0.00(  0.02%)
                                           -0.0003 -0.3110  0.0406  0.0138  0.0010
                                           -0.9454  0.0256  0.0098  0.0101  0.0071
                                            0.0263  0.0048 -0.0000 -0.0202 -0.0132
                                           -0.0024  0.0003  0.0194  0.0010 -0.0025
                                           -0.0131 -0.0018  0.0002  0.0096  0.0011
                                           -0.0011 -0.0544 -0.0050 -0.0019  0.0393
                                            0.0036  0.0001  0.0000 -0.0000  0.0096
                                           -0.0007  0.0002  0.0002 -0.0004  0.0010
                                            0.0051 -0.0014 -0.0069 -0.0002  0.0005
                                           -0.0019
                ( 58.72%)  -0.7663*Cl   2 s(  8.25%)p10.98( 90.53%)d 0.14(  1.12%)
                                                  f 0.01(  0.11%)
                                            0.0000 -0.0005 -0.2812  0.0572  0.0105
                                            0.0021  0.0004  0.9491 -0.0649 -0.0140
                                            0.0045  0.0000  0.0073  0.0017 -0.0018
                                            0.0006 -0.0000 -0.0039 -0.0001  0.0016
                                           -0.0007 -0.0092  0.0004 -0.0006  0.0088
                                            0.0012  0.0005  0.0039 -0.0000 -0.0009
                                           -0.0889  0.0107  0.0004  0.0542 -0.0058
                                           -0.0004  0.0006 -0.0001 -0.0203  0.0030
                                           -0.0002  0.0002 -0.0005 -0.0000 -0.0013
                                            0.0010  0.0255 -0.0033  0.0009 -0.0003
   169. (0.07758) BD*( 1) O   1 - H   4  
                ( 21.45%)   0.4631* O   1 s( 28.34%)p 2.51( 71.14%)d 0.02(  0.51%)
                                                  f 0.00(  0.01%)
                                            0.0003  0.5323 -0.0065 -0.0078  0.0022
                                           -0.1867  0.0179  0.0029  0.0025 -0.7283
                                            0.0103  0.0068  0.0028  0.3815 -0.0033
                                           -0.0037 -0.0034 -0.0030 -0.0029 -0.0002
                                            0.0013  0.0016  0.0005 -0.0518 -0.0034
                                            0.0005 -0.0464 -0.0041 -0.0022 -0.0138
                                            0.0004  0.0022 -0.0076  0.0000  0.0008
                                            0.0000  0.0019 -0.0003 -0.0043 -0.0015
                                            0.0016  0.0015  0.0008  0.0020 -0.0016
                                            0.0023
                ( 78.55%)  -0.8863* H   4 s( 99.82%)p 0.00(  0.18%)d 0.00(  0.00%)
                                            0.9986  0.0320  0.0012 -0.0003  0.0118
                                            0.0074 -0.0022 -0.0085  0.0283  0.0081
                                            0.0211 -0.0141 -0.0022 -0.0006 -0.0021
                                            0.0013  0.0012  0.0001  0.0003 -0.0009
                                            0.0005 -0.0014 -0.0019


 NHO Directionality and "Bond Bending" (deviations from line of nuclear centers)

         [Thresholds for printing:  angular deviation  >  1.0 degree]
                                    hybrid p-character > 25.0%
                                    orbital occupancy  >  0.10e

                                Line of Centers        Hybrid 1              Hybrid 2
                                ---------------  -------------------   ------------------
                NBO               Theta   Phi    Theta   Phi    Dev    Theta   Phi    Dev
 ========================================================================================
     1. BD (   1) O   1 -Cl   2    90.0    0.0    87.7  357.6   3.3      --     --    --
     2. BD (   1) O   1 - H   4    65.0  257.5    63.0  257.0   2.1      --     --    --
    14. LP (   1) O   1             --     --    116.7  117.1   --       --     --    --
    15. LP (   2) O   1             --     --     28.2   92.4   --       --     --    --
    17. LP (   2)Cl   2             --     --    159.1  270.4   --       --     --    --
    18. LP (   3)Cl   2             --     --    111.0   90.3   --       --     --    --
    20. LP (   2)Cl   3             --     --    129.2    1.9   --       --     --    --
    21. LP (   3)Cl   3             --     --     44.0  329.8   --       --     --    --
    22. LP (   4)Cl   3             --     --     73.2   77.8   --       --     --    --


 Natural Bond Orbitals (Summary):

           NBO                  Occupancy  
 -----------------------------------------------
 Molecular unit  1  (HOCl)
     1. BD (   1) O   1 -Cl   2          1.93885
     2. BD (   1) O   1 - H   4          1.96608
     3. CR (   1) O   1                  1.99967
     4. CR (   1)Cl   2                  2.00000
     5. CR (   2)Cl   2                  1.99982
     6. CR (   3)Cl   2                  1.99997
     7. CR (   4)Cl   2                  2.00003
     8. CR (   5)Cl   2                  2.00003
    14. LP (   1) O   1                  1.96773
    15. LP (   2) O   1                  1.95344
    16. LP (   1)Cl   2                  1.97443
    17. LP (   2)Cl   2                  1.95618
    18. LP (   3)Cl   2                  1.95515
    23. RY*(   1) O   1                  0.01935
    24. RY*(   2) O   1                  0.01550
    25. RY*(   3) O   1                  0.00773
    26. RY*(   4) O   1                  0.00699
    27. RY*(   5) O   1                  0.00628
    28. RY*(   6) O   1                  0.00602
    29. RY*(   7) O   1                  0.00567
    30. RY*(   8) O   1                  0.00287
    31. RY*(   9) O   1                  0.00251
    32. RY*(  10) O   1                  0.00077
    33. RY*(  11) O   1                  0.00064
    34. RY*(  12) O   1                  0.00061
    35. RY*(  13) O   1                  0.00058
    36. RY*(  14) O   1                  0.00050
    37. RY*(  15) O   1                  0.00050
    38. RY*(  16) O   1                  0.00047
    39. RY*(  17) O   1                  0.00048
    40. RY*(  18) O   1                  0.00046
    41. RY*(  19) O   1                  0.00044
    42. RY*(  20) O   1                  0.00044
    43. RY*(  21) O   1                  0.00044
    44. RY*(  22) O   1                  0.00041
    45. RY*(  23) O   1                  0.00034
    46. RY*(  24) O   1                  0.00029
    47. RY*(  25) O   1                  0.00024
    48. RY*(  26) O   1                  0.00021
    49. RY*(  27) O   1                  0.00014
    50. RY*(  28) O   1                  0.00013
    51. RY*(  29) O   1                  0.00012
    52. RY*(  30) O   1                  0.00009
    53. RY*(  31) O   1                  0.00009
    54. RY*(  32) O   1                  0.00007
    55. RY*(  33) O   1                  0.00008
    56. RY*(  34) O   1                  0.00008
    57. RY*(  35) O   1                  0.00008
    58. RY*(  36) O   1                  0.00008
    59. RY*(  37) O   1                  0.00005
    60. RY*(  38) O   1                  0.00004
    61. RY*(  39) O   1                  0.00005
    62. RY*(  40) O   1                  0.00003
    63. RY*(  41) O   1                  0.00002
    64. RY*(   1)Cl   2                  0.02225
    65. RY*(   2)Cl   2                  0.01735
    66. RY*(   3)Cl   2                  0.01679
    67. RY*(   4)Cl   2                  0.01641
    68. RY*(   5)Cl   2                  0.01163
    69. RY*(   6)Cl   2                  0.00925
    70. RY*(   7)Cl   2                  0.00904
    71. RY*(   8)Cl   2                  0.00630
    72. RY*(   9)Cl   2                  0.00169
    73. RY*(  10)Cl   2                  0.00126
    74. RY*(  11)Cl   2                  0.00126
    75. RY*(  12)Cl   2                  0.00119
    76. RY*(  13)Cl   2                  0.00119
    77. RY*(  14)Cl   2                  0.00116
    78. RY*(  15)Cl   2                  0.00110
    79. RY*(  16)Cl   2                  0.00094
    80. RY*(  17)Cl   2                  0.00077
    81. RY*(  18)Cl   2                  0.00075
    82. RY*(  19)Cl   2                  0.00063
    83. RY*(  20)Cl   2                  0.00054
    84. RY*(  21)Cl   2                  0.00042
    85. RY*(  22)Cl   2                  0.00038
    86. RY*(  23)Cl   2                  0.00033
    87. RY*(  24)Cl   2                  0.00030
    88. RY*(  25)Cl   2                  0.00019
    89. RY*(  26)Cl   2                  0.00016
    90. RY*(  27)Cl   2                  0.00014
    91. RY*(  28)Cl   2                  0.00013
    92. RY*(  29)Cl   2                  0.00013
    93. RY*(  30)Cl   2                  0.00011
    94. RY*(  31)Cl   2                  0.00011
    95. RY*(  32)Cl   2                  0.00010
    96. RY*(  33)Cl   2                  0.00010
    97. RY*(  34)Cl   2                  0.00009
    98. RY*(  35)Cl   2                  0.00010
    99. RY*(  36)Cl   2                  0.00009
   100. RY*(  37)Cl   2                  0.00006
   101. RY*(  38)Cl   2                  0.00004
   102. RY*(  39)Cl   2                  0.00003
   103. RY*(  40)Cl   2                  0.00003
   104. RY*(  41)Cl   2                  0.00000
   146. RY*(   1) H   4                  0.00949
   147. RY*(   2) H   4                  0.00532
   148. RY*(   3) H   4                  0.00398
   149. RY*(   4) H   4                  0.00300
   150. RY*(   5) H   4                  0.00054
   151. RY*(   6) H   4                  0.00047
   152. RY*(   7) H   4                  0.00040
   153. RY*(   8) H   4                  0.00030
   154. RY*(   9) H   4                  0.00026
   155. RY*(  10) H   4                  0.00024
   156. RY*(  11) H   4                  0.00020
   157. RY*(  12) H   4                  0.00018
   158. RY*(  13) H   4                  0.00014
   159. RY*(  14) H   4                  0.00011
   160. RY*(  15) H   4                  0.00011
   161. RY*(  16) H   4                  0.00010
   162. RY*(  17) H   4                  0.00006
   163. RY*(  18) H   4                  0.00006
   164. RY*(  19) H   4                  0.00006
   165. RY*(  20) H   4                  0.00005
   166. RY*(  21) H   4                  0.00004
   167. RY*(  22) H   4                  0.00004
   168. BD*(   1) O   1 -Cl   2          0.05847
   169. BD*(   1) O   1 - H   4          0.07758
       -------------------------------
              Total Lewis   25.71136  ( 98.5904%)
        Valence non-Lewis    0.13605  (  0.5217%)
        Rydberg non-Lewis    0.23155  (  0.8879%)
       -------------------------------
            Total unit  1   26.07897  (100.0000%)
           Charge unit  1   -0.07897

 Molecular unit  2  (Cl)
     9. CR (   1)Cl   3                  2.00000
    10. CR (   2)Cl   3                  2.00000
    11. CR (   3)Cl   3                  2.00003
    12. CR (   4)Cl   3                  2.00002
    13. CR (   5)Cl   3                  2.00003
    19. LP (   1)Cl   3                  1.97865
    20. LP (   2)Cl   3                  1.95220
    21. LP (   3)Cl   3                  1.95201
    22. LP (   4)Cl   3                  1.89048
   105. RY*(   1)Cl   3                  0.01848
   106. RY*(   2)Cl   3                  0.01845
   107. RY*(   3)Cl   3                  0.01831
   108. RY*(   4)Cl   3                  0.01831
   109. RY*(   5)Cl   3                  0.01790
   110. RY*(   6)Cl   3                  0.01305
   111. RY*(   7)Cl   3                  0.01301
   112. RY*(   8)Cl   3                  0.01088
   113. RY*(   9)Cl   3                  0.00247
   114. RY*(  10)Cl   3                  0.00130
   115. RY*(  11)Cl   3                  0.00131
   116. RY*(  12)Cl   3                  0.00129
   117. RY*(  13)Cl   3                  0.00129
   118. RY*(  14)Cl   3                  0.00127
   119. RY*(  15)Cl   3                  0.00127
   120. RY*(  16)Cl   3                  0.00127
   121. RY*(  17)Cl   3                  0.00099
   122. RY*(  18)Cl   3                  0.00099
   123. RY*(  19)Cl   3                  0.00076
   124. RY*(  20)Cl   3                  0.00076
   125. RY*(  21)Cl   3                  0.00071
   126. RY*(  22)Cl   3                  0.00054
   127. RY*(  23)Cl   3                  0.00054
   128. RY*(  24)Cl   3                  0.00052
   129. RY*(  25)Cl   3                  0.00022
   130. RY*(  26)Cl   3                  0.00017
   131. RY*(  27)Cl   3                  0.00015
   132. RY*(  28)Cl   3                  0.00015
   133. RY*(  29)Cl   3                  0.00014
   134. RY*(  30)Cl   3                  0.00015
   135. RY*(  31)Cl   3                  0.00015
   136. RY*(  32)Cl   3                  0.00014
   137. RY*(  33)Cl   3                  0.00012
   138. RY*(  34)Cl   3                  0.00011
   139. RY*(  35)Cl   3                  0.00010
   140. RY*(  36)Cl   3                  0.00010
   141. RY*(  37)Cl   3                  0.00008
   142. RY*(  38)Cl   3                  0.00007
   143. RY*(  39)Cl   3                  0.00004
   144. RY*(  40)Cl   3                  0.00003
   145. RY*(  41)Cl   3                  0.00003
       -------------------------------
              Total Lewis   17.77341  ( 99.1763%)
        Valence non-Lewis    0.00000  (  0.0000%)
        Rydberg non-Lewis    0.14762  (  0.8237%)
       -------------------------------
            Total unit  2   17.92103  (100.0000%)
           Charge unit  2   -0.92103
 Leave Link  607 at Fri Nov  5 15:24:57 2021, MaxMem= 16106127360 cpu:              70.7 elap:               2.5
 (Enter /sw/contrib/gaussian/g16/B01/g16/l9999.exe)
 1\1\GINC-N2113\SP\RMP2-FC\Aug-CC-pVTZ\Cl2H1O1(1-)\CGAVINH\05-Nov-2021\
 0\\#p pop=NBO SP NoSymm mp2/aug-cc-pvtz density=current\\title\\-1,1\O
 \X,1,10.\Cl,1,1.69700154,2,90.\Cl,1,2.93100907,2,90.,3,102.48429983,0\
 H,1,0.96862334,2,65.,3,102.48429983,0\\Version=ES64L-G16RevB.01\HF=-99
 4.5181982\MP2=-995.1827559\RMSD=5.204e-09\Dipole=1.4522131,1.9482949,0
 .1561864\Quadrupole=7.2431954,-16.124732,8.8815366,-5.8053336,-0.14315
 95,-0.1570548\PG=C01 [X(Cl2H1O1)]\\@


 THE GREAT THING ABOUT BEING IMPERFECT IS THE JOY IT BRINGS OTHERS.
   -- SIGN OUTSIDE LAKE AGASSIZ JR. HIGH SCHOOL, FARGO, N.D.
 Job cpu time:       0 days  0 hours  4 minutes 35.8 seconds.
 Elapsed time:       0 days  0 hours  0 minutes 15.4 seconds.
 File lengths (MBytes):  RWF=     14 Int=      0 D2E=      0 Chk=      8 Scr=      1
 Normal termination of Gaussian 16 at Fri Nov  5 15:24:57 2021.
