 Entering Gaussian System, Link 0=g16
 Input=clhocl_rOCl_opt.gjf
 Output=clhocl_rOCl_opt.log
 Initial command:
 /sw/contrib/gaussian/g16/B01/g16/l1.exe "/scr/Gau-22522.inp" -scrdir="/scr/"
 Entering Link 1 = /sw/contrib/gaussian/g16/B01/g16/l1.exe PID=     22523.
  
 Copyright (c) 1988-2017, Gaussian, Inc.  All Rights Reserved.
  
 This is part of the Gaussian(R) 16 program.  It is based on
 the Gaussian(R) 09 system (copyright 2009, Gaussian, Inc.),
 the Gaussian(R) 03 system (copyright 2003, Gaussian, Inc.),
 the Gaussian(R) 98 system (copyright 1998, Gaussian, Inc.),
 the Gaussian(R) 94 system (copyright 1995, Gaussian, Inc.),
 the Gaussian 92(TM) system (copyright 1992, Gaussian, Inc.),
 the Gaussian 90(TM) system (copyright 1990, Gaussian, Inc.),
 the Gaussian 88(TM) system (copyright 1988, Gaussian, Inc.),
 the Gaussian 86(TM) system (copyright 1986, Carnegie Mellon
 University), and the Gaussian 82(TM) system (copyright 1983,
 Carnegie Mellon University). Gaussian is a federally registered
 trademark of Gaussian, Inc.
  
 This software contains proprietary and confidential information,
 including trade secrets, belonging to Gaussian, Inc.
  
 This software is provided under written license and may be
 used, copied, transmitted, or stored only in accord with that
 written license.
  
 The following legend is applicable only to US Government
 contracts under FAR:
  
                    RESTRICTED RIGHTS LEGEND
  
 Use, reproduction and disclosure by the US Government is
 subject to restrictions as set forth in subparagraphs (a)
 and (c) of the Commercial Computer Software - Restricted
 Rights clause in FAR 52.227-19.
  
 Gaussian, Inc.
 340 Quinnipiac St., Bldg. 40, Wallingford CT 06492
  
  
 ---------------------------------------------------------------
 Warning -- This program may not be used in any manner that
 competes with the business of Gaussian, Inc. or will provide
 assistance to any competitor of Gaussian, Inc.  The licensee
 of this program is prohibited from giving any competitor of
 Gaussian, Inc. access to this program.  By using this program,
 the user acknowledges that Gaussian, Inc. is engaged in the
 business of creating and licensing software in the field of
 computational chemistry and represents and warrants to the
 licensee that it is not a competitor of Gaussian, Inc. and that
 it will not use this program in any manner prohibited above.
 ---------------------------------------------------------------
  

 Cite this work as:
 Gaussian 16, Revision B.01,
 M. J. Frisch, G. W. Trucks, H. B. Schlegel, G. E. Scuseria, 
 M. A. Robb, J. R. Cheeseman, G. Scalmani, V. Barone, 
 G. A. Petersson, H. Nakatsuji, X. Li, M. Caricato, A. V. Marenich, 
 J. Bloino, B. G. Janesko, R. Gomperts, B. Mennucci, H. P. Hratchian, 
 J. V. Ortiz, A. F. Izmaylov, J. L. Sonnenberg, D. Williams-Young, 
 F. Ding, F. Lipparini, F. Egidi, J. Goings, B. Peng, A. Petrone, 
 T. Henderson, D. Ranasinghe, V. G. Zakrzewski, J. Gao, N. Rega, 
 G. Zheng, W. Liang, M. Hada, M. Ehara, K. Toyota, R. Fukuda, 
 J. Hasegawa, M. Ishida, T. Nakajima, Y. Honda, O. Kitao, H. Nakai, 
 T. Vreven, K. Throssell, J. A. Montgomery, Jr., J. E. Peralta, 
 F. Ogliaro, M. J. Bearpark, J. J. Heyd, E. N. Brothers, K. N. Kudin, 
 V. N. Staroverov, T. A. Keith, R. Kobayashi, J. Normand, 
 K. Raghavachari, A. P. Rendell, J. C. Burant, S. S. Iyengar, 
 J. Tomasi, M. Cossi, J. M. Millam, M. Klene, C. Adamo, R. Cammi, 
 J. W. Ochterski, R. L. Martin, K. Morokuma, O. Farkas, 
 J. B. Foresman, and D. J. Fox, Gaussian, Inc., Wallingford CT, 2016.
 
 ******************************************
 Gaussian 16:  ES64L-G16RevB.01 20-Dec-2017
                 4-Nov-2021 
 ******************************************
 %nproc=28
 Will use up to   28 processors via shared memory.
 %mem=120GB
 %chk=/gscratch/ilahie/mccoygrp/coire_hocl/oop_s_rOH_f/clhocl/clhocl_rOCl_opt.chk
 -------------------------------------------------
 #p opt=(z-matrix) mp2/aug-cc-pvtz density=current
 -------------------------------------------------
 1/10=7,18=40,38=1/1,3;
 2/12=2,17=6,18=5,29=3,40=1/2;
 3/5=16,6=1,7=10,11=9,25=1,30=1,71=1/1,2,3;
 4//1;
 5/5=2,38=5/2;
 8/6=4,10=1/1;
 9/15=2,16=-3/6;
 10/5=1/2;
 6/7=2,8=2,9=2,10=2,22=-1/1;
 7/12=2,29=1/1,2,3,16;
 1/10=7,18=40/3(2);
 2/29=3/2;
 99//99;
 2/29=3/2;
 3/5=16,6=1,7=10,11=9,25=1,30=1,71=1/1,2,3;
 4/5=5,16=3,69=1/1;
 5/5=2,38=5/2;
 8/6=4,10=1/1;
 9/15=2,16=-3/6;
 10/5=1/2;
 7/12=2/1,2,3,16;
 1/18=40/3(-8);
 2/29=3/2;
 6/7=2,8=2,9=2,10=2,22=-1/1;
 99/9=10/99;
 Leave Link    1 at Thu Nov  4 23:34:38 2021, MaxMem= 16106127360 cpu:               4.2 elap:               0.2
 (Enter /sw/contrib/gaussian/g16/B01/g16/l101.exe)
 -----
 title
 -----
 Symbolic Z-matrix:
 Charge = -1 Multiplicity = 1
 O
 X                    1     10. 
 Cl                   1    r1       2     90. 
 Cl                   1    r2       2     90.      3    a1       0
 H                    1    r3       2    oop      3    a1       0
       Variables:
  r1                    1.697   -1        0.     
  r2                    2.90468                  
  r3                    0.96862 -1        0.     
  a1                  102.4843  -1        0.     
  OOP                  90.      -1        0.     
 
 ITRead=  0  0  0  0
 MicOpt= -1 -1 -1 -1
 NAtoms=      4 NQM=        4 NQMF=       0 NMMI=      0 NMMIF=      0
                NMic=       0 NMicF=      0.
                    Isotopes and Nuclear Properties:
 (Nuclear quadrupole moments (NQMom) in fm**2, nuclear magnetic moments (NMagM)
  in nuclear magnetons)

  Atom         1           2           3           4
 IAtWgt=          16          35          35           1
 AtmWgt=  15.9949146  34.9688527  34.9688527   1.0078250
 NucSpn=           0           3           3           1
 AtZEff=  -0.0000000  -0.0000000  -0.0000000  -0.0000000
 NQMom=    0.0000000  -8.1650000  -8.1650000   0.0000000
 NMagM=    0.0000000   0.8218740   0.8218740   2.7928460
 AtZNuc=   8.0000000  17.0000000  17.0000000   1.0000000
 Leave Link  101 at Thu Nov  4 23:34:38 2021, MaxMem= 16106127360 cpu:               2.5 elap:               0.1
 (Enter /sw/contrib/gaussian/g16/B01/g16/l103.exe)

 GradGradGradGradGradGradGradGradGradGradGradGradGradGradGradGradGradGrad
 Berny optimization.
 Initialization pass.
                       ----------------------------
                       !    Initial Parameters    !
                       ! (Angstroms and Degrees)  !
 ----------------------                            ----------------------
 !      Name          Value   Derivative information (Atomic Units)     !
 ------------------------------------------------------------------------
 !       r1          1.697    Frozen                                    !
 !       r2          2.9047   estimate D2E/DX2                          !
 !       r3          0.9686   Frozen                                    !
 !       a1        102.4843   Frozen                                    !
 !       OOP        90.0      Frozen                                    !
 ------------------------------------------------------------------------
 Trust Radius=3.00D-01 FncErr=1.00D-07 GrdErr=1.00D-07 EigMax=2.50D+02 EigMin=1.00D-04
 Number of steps in this run=     20 maximum allowed number of steps=    100.
 GradGradGradGradGradGradGradGradGradGradGradGradGradGradGradGradGradGrad

 Leave Link  103 at Thu Nov  4 23:34:38 2021, MaxMem= 16106127360 cpu:               0.7 elap:               0.1
 (Enter /sw/contrib/gaussian/g16/B01/g16/l202.exe)
 ---------------------------------------------------------------------------------------------------
                            Z-MATRIX (ANGSTROMS AND DEGREES)
   CD    Cent   Atom    N1       Length/X        N2       Alpha/Y        N3        Beta/Z          J
 ---------------------------------------------------------------------------------------------------
      1      1  O 
      2         X        1  10.000000(     1)
      3      2  Cl       1   1.697002(     2)      2   90.000(     5)
      4      3  Cl       1   2.904676(     3)      2   90.000(     6)      3  102.484(     8)      0
      5      4  H        1   0.968623(     4)      2   90.000(     7)      3  102.484(     9)      0
 ---------------------------------------------------------------------------------------------------
                         Z-Matrix orientation:                         
 ---------------------------------------------------------------------
 Center     Atomic      Atomic             Coordinates (Angstroms)
 Number     Number       Type             X           Y           Z
 ---------------------------------------------------------------------
      1          8           0        0.000000    0.000000    0.000000
      2         -1           0        0.000000    0.000000   10.000000
      3         17           0        1.697002    0.000000    0.000000
      4         17           0       -0.627910   -2.835996    0.000000
      5          1           0       -0.209389   -0.945721    0.000000
 ---------------------------------------------------------------------
                    Distance matrix (angstroms):
                    1          2          3          4          5
     1  O    0.000000
     2  X   10.000000   0.000000
     3  Cl   1.697002  10.142969   0.000000
     4  Cl   2.904676  10.413316   3.667163   0.000000
     5  H    0.968623  10.046802   2.128077   1.936053   0.000000
 Stoichiometry    Cl2HO(1-)
 Framework group  CS[SG(Cl2HO)]
 Deg. of freedom     5
 Full point group                 CS      NOp   2
 Largest Abelian subgroup         CS      NOp   2
 Largest concise Abelian subgroup C1      NOp   1
                         Standard orientation:                         
 ---------------------------------------------------------------------
 Center     Atomic      Atomic             Coordinates (Angstroms)
 Number     Number       Type             X           Y           Z
 ---------------------------------------------------------------------
      1          8           0       -0.964947    0.741848   -0.000000
      2         17           0       -1.474612   -0.876811   -0.000000
      3         17           0        1.928705    0.489027    0.000000
      4          1           0        0.000000    0.657540    0.000000
 ---------------------------------------------------------------------
 Rotational constants (GHZ):          22.8935185           2.0762590           1.9036163
 Leave Link  202 at Thu Nov  4 23:34:38 2021, MaxMem= 16106127360 cpu:               0.6 elap:               0.0
 (Enter /sw/contrib/gaussian/g16/B01/g16/l301.exe)
 Standard basis: Aug-CC-pVTZ (5D, 7F)
 Ernie: Thresh=  0.10000D-02 Tol=  0.10000D-05 Strict=F.
 Ernie:  29 primitive shells out of 169 were deleted.
 There are   135 symmetry adapted cartesian basis functions of A'  symmetry.
 There are    63 symmetry adapted cartesian basis functions of A"  symmetry.
 There are   112 symmetry adapted basis functions of A'  symmetry.
 There are    57 symmetry adapted basis functions of A"  symmetry.
   169 basis functions,   327 primitive gaussians,   198 cartesian basis functions
    22 alpha electrons       22 beta electrons
       nuclear repulsion energy       122.1331729494 Hartrees.
 IExCor=    0 DFT=F Ex=HF Corr=None ExCW=0 ScaHFX=  1.000000
 ScaDFX=  1.000000  1.000000  1.000000  1.000000 ScalE2=  1.000000  1.000000
 IRadAn=      5 IRanWt=     -1 IRanGd=            0 ICorTp=0 IEmpDi=  4
 NAtoms=    4 NActive=    4 NUniq=    4 SFac= 1.00D+00 NAtFMM=   60 NAOKFM=F Big=F
 Integral buffers will be    131072 words long.
 Raffenetti 1 integral format.
 Two-electron integral symmetry is turned on.
 Leave Link  301 at Thu Nov  4 23:34:38 2021, MaxMem= 16106127360 cpu:               2.1 elap:               0.1
 (Enter /sw/contrib/gaussian/g16/B01/g16/l302.exe)
 NPDir=0 NMtPBC=     1 NCelOv=     1 NCel=       1 NClECP=     1 NCelD=      1
         NCelK=      1 NCelE2=     1 NClLst=     1 CellRange=     0.0.
 One-electron integrals computed using PRISM.
 One-electron integral symmetry used in STVInt
 NBasis=   169 RedAO= T EigKep=  2.19D-04  NBF=   112    57
 NBsUse=   169 1.00D-06 EigRej= -1.00D+00 NBFU=   112    57
 Leave Link  302 at Thu Nov  4 23:34:38 2021, MaxMem= 16106127360 cpu:               6.6 elap:               0.3
 (Enter /sw/contrib/gaussian/g16/B01/g16/l303.exe)
 DipDrv:  MaxL=1.
 Leave Link  303 at Thu Nov  4 23:34:38 2021, MaxMem= 16106127360 cpu:               0.8 elap:               0.1
 (Enter /sw/contrib/gaussian/g16/B01/g16/l401.exe)
 ExpMin= 2.53D-02 ExpMax= 4.56D+05 ExpMxC= 1.44D+03 IAcc=3 IRadAn=         5 AccDes= 0.00D+00
 Harris functional with IExCor=  205 and IRadAn=       5 diagonalized for initial guess.
 HarFok:  IExCor=  205 AccDes= 0.00D+00 IRadAn=         5 IDoV= 1 UseB2=F ITyADJ=14
 ICtDFT=  3500011 ScaDFX=  1.000000  1.000000  1.000000  1.000000
 FoFCou: FMM=F IPFlag=           0 FMFlag=      100000 FMFlg1=           0
         NFxFlg=           0 DoJE=T BraDBF=F KetDBF=T FulRan=T
         wScrn=  0.000000 ICntrl=       500 IOpCl=  0 I1Cent=   200000004 NGrid=           0
         NMat0=    1 NMatS0=      1 NMatT0=    0 NMatD0=    1 NMtDS0=    0 NMtDT0=    0
 Petite list used in FoFCou.
 Harris En= -993.822857604653    
 JPrj=0 DoOrth=F DoCkMO=F.
 Initial guess orbital symmetries:
       Occupied  (A') (A') (A') (A') (A') (A') (A') (A") (A') (A')
                 (A") (A') (A') (A') (A') (A') (A") (A') (A') (A")
                 (A') (A")
       Virtual   (A') (A') (A') (A') (A") (A') (A') (A") (A') (A')
                 (A") (A') (A') (A") (A') (A') (A') (A") (A') (A")
                 (A') (A") (A') (A') (A') (A") (A') (A') (A') (A")
                 (A') (A") (A') (A") (A') (A') (A") (A') (A") (A')
                 (A") (A') (A') (A') (A") (A') (A') (A") (A') (A')
                 (A") (A') (A') (A") (A") (A') (A") (A') (A') (A")
                 (A') (A") (A') (A') (A') (A') (A') (A") (A") (A')
                 (A") (A') (A') (A") (A') (A') (A') (A") (A') (A')
                 (A") (A') (A") (A') (A") (A') (A') (A") (A') (A')
                 (A") (A") (A') (A") (A') (A') (A') (A") (A') (A")
                 (A") (A') (A') (A') (A") (A') (A") (A') (A") (A')
                 (A') (A') (A") (A") (A') (A') (A") (A') (A') (A')
                 (A') (A") (A") (A") (A') (A') (A') (A') (A') (A")
                 (A') (A') (A') (A') (A") (A') (A") (A') (A") (A')
                 (A") (A') (A") (A') (A') (A') (A')
 The electronic state of the initial guess is 1-A'.
 Leave Link  401 at Thu Nov  4 23:34:39 2021, MaxMem= 16106127360 cpu:               7.2 elap:               0.3
 (Enter /sw/contrib/gaussian/g16/B01/g16/l502.exe)
 Keep R1 ints in memory in symmetry-blocked form, NReq=155449223.
 FoFCou: FMM=F IPFlag=           0 FMFlag=           0 FMFlg1=           0
         NFxFlg=           0 DoJE=F BraDBF=F KetDBF=F FulRan=T
         wScrn=  0.000000 ICntrl=       600 IOpCl=  0 I1Cent=           0 NGrid=           0
         NMat0=    1 NMatS0=  14365 NMatT0=    0 NMatD0=    1 NMtDS0=    0 NMtDT0=    0
 Petite list used in FoFCou.
 Closed shell SCF:
 Using DIIS extrapolation, IDIIS=  1040.
 NGot= 16106127360 LenX= 16053777278 LenY= 16053737633
 Requested convergence on RMS density matrix=1.00D-08 within 128 cycles.
 Requested convergence on MAX density matrix=1.00D-06.
 Requested convergence on             energy=1.00D-06.
 No special actions if energy rises.

 Cycle   1  Pass 1  IDiag  1:
 E= -994.390978817487    
 DIIS: error= 3.59D-02 at cycle   1 NSaved=   1.
 NSaved= 1 IEnMin= 1 EnMin= -994.390978817487     IErMin= 1 ErrMin= 3.59D-02
 ErrMax= 3.59D-02  0.00D+00 EMaxC= 1.00D-01 BMatC= 4.31D-01 BMatP= 4.31D-01
 IDIUse=3 WtCom= 6.41D-01 WtEn= 3.59D-01
 Coeff-Com:  0.100D+01
 Coeff-En:   0.100D+01
 Coeff:      0.100D+01
 Gap=     0.557 Goal=   None    Shift=    0.000
 GapD=    0.557 DampG=2.000 DampE=0.500 DampFc=1.0000 IDamp=-1.
 RMSDP=2.21D-03 MaxDP=7.12D-02              OVMax= 1.28D-01

 Cycle   2  Pass 1  IDiag  1:
 E= -994.486453254701     Delta-E=       -0.095474437214 Rises=F Damp=F
 DIIS: error= 1.97D-02 at cycle   2 NSaved=   2.
 NSaved= 2 IEnMin= 2 EnMin= -994.486453254701     IErMin= 2 ErrMin= 1.97D-02
 ErrMax= 1.97D-02  0.00D+00 EMaxC= 1.00D-01 BMatC= 5.42D-02 BMatP= 4.31D-01
 IDIUse=3 WtCom= 8.03D-01 WtEn= 1.97D-01
 Coeff-Com:  0.178D+00 0.822D+00
 Coeff-En:   0.000D+00 0.100D+01
 Coeff:      0.143D+00 0.857D+00
 Gap=     0.366 Goal=   None    Shift=    0.000
 RMSDP=1.02D-03 MaxDP=4.04D-02 DE=-9.55D-02 OVMax= 8.43D-02

 Cycle   3  Pass 1  IDiag  1:
 E= -994.513876331369     Delta-E=       -0.027423076669 Rises=F Damp=F
 DIIS: error= 8.85D-03 at cycle   3 NSaved=   3.
 NSaved= 3 IEnMin= 3 EnMin= -994.513876331369     IErMin= 3 ErrMin= 8.85D-03
 ErrMax= 8.85D-03  0.00D+00 EMaxC= 1.00D-01 BMatC= 1.51D-02 BMatP= 5.42D-02
 IDIUse=3 WtCom= 9.12D-01 WtEn= 8.85D-02
 Coeff-Com: -0.158D-01 0.335D+00 0.681D+00
 Coeff-En:   0.000D+00 0.119D+00 0.881D+00
 Coeff:     -0.144D-01 0.316D+00 0.699D+00
 Gap=     0.357 Goal=   None    Shift=    0.000
 RMSDP=3.71D-04 MaxDP=1.42D-02 DE=-2.74D-02 OVMax= 3.83D-02

 Cycle   4  Pass 1  IDiag  1:
 E= -994.524204033894     Delta-E=       -0.010327702524 Rises=F Damp=F
 DIIS: error= 1.30D-03 at cycle   4 NSaved=   4.
 NSaved= 4 IEnMin= 4 EnMin= -994.524204033894     IErMin= 4 ErrMin= 1.30D-03
 ErrMax= 1.30D-03  0.00D+00 EMaxC= 1.00D-01 BMatC= 1.87D-04 BMatP= 1.51D-02
 IDIUse=3 WtCom= 9.87D-01 WtEn= 1.30D-02
 Coeff-Com: -0.399D-02 0.148D-01 0.101D+00 0.888D+00
 Coeff-En:   0.000D+00 0.000D+00 0.000D+00 0.100D+01
 Coeff:     -0.394D-02 0.146D-01 0.996D-01 0.890D+00
 Gap=     0.350 Goal=   None    Shift=    0.000
 RMSDP=5.85D-05 MaxDP=1.48D-03 DE=-1.03D-02 OVMax= 3.19D-03

 Cycle   5  Pass 1  IDiag  1:
 E= -994.524404783967     Delta-E=       -0.000200750073 Rises=F Damp=F
 DIIS: error= 2.97D-04 at cycle   5 NSaved=   5.
 NSaved= 5 IEnMin= 5 EnMin= -994.524404783967     IErMin= 5 ErrMin= 2.97D-04
 ErrMax= 2.97D-04  0.00D+00 EMaxC= 1.00D-01 BMatC= 1.75D-05 BMatP= 1.87D-04
 IDIUse=3 WtCom= 9.97D-01 WtEn= 2.97D-03
 Coeff-Com:  0.109D-02-0.399D-01-0.711D-01 0.178D-01 0.109D+01
 Coeff-En:   0.000D+00 0.000D+00 0.000D+00 0.000D+00 0.100D+01
 Coeff:      0.109D-02-0.397D-01-0.709D-01 0.177D-01 0.109D+01
 Gap=     0.352 Goal=   None    Shift=    0.000
 RMSDP=3.39D-05 MaxDP=1.20D-03 DE=-2.01D-04 OVMax= 3.33D-03

 Cycle   6  Pass 1  IDiag  1:
 E= -994.524449547179     Delta-E=       -0.000044763212 Rises=F Damp=F
 DIIS: error= 1.34D-04 at cycle   6 NSaved=   6.
 NSaved= 6 IEnMin= 6 EnMin= -994.524449547179     IErMin= 6 ErrMin= 1.34D-04
 ErrMax= 1.34D-04  0.00D+00 EMaxC= 1.00D-01 BMatC= 2.38D-06 BMatP= 1.75D-05
 IDIUse=3 WtCom= 9.99D-01 WtEn= 1.34D-03
 Coeff-Com:  0.233D-03 0.925D-02 0.168D-01-0.829D-01-0.420D+00 0.148D+01
 Coeff-En:   0.000D+00 0.000D+00 0.000D+00 0.000D+00 0.000D+00 0.100D+01
 Coeff:      0.232D-03 0.924D-02 0.168D-01-0.828D-01-0.419D+00 0.148D+01
 Gap=     0.352 Goal=   None    Shift=    0.000
 RMSDP=1.80D-05 MaxDP=6.50D-04 DE=-4.48D-05 OVMax= 1.79D-03

 Cycle   7  Pass 1  IDiag  1:
 E= -994.524458176455     Delta-E=       -0.000008629275 Rises=F Damp=F
 DIIS: error= 4.43D-05 at cycle   7 NSaved=   7.
 NSaved= 7 IEnMin= 7 EnMin= -994.524458176455     IErMin= 7 ErrMin= 4.43D-05
 ErrMax= 4.43D-05  0.00D+00 EMaxC= 1.00D-01 BMatC= 1.44D-07 BMatP= 2.38D-06
 IDIUse=1 WtCom= 1.00D+00 WtEn= 0.00D+00
 Coeff-Com: -0.169D-03-0.104D-02-0.118D-02 0.315D-01 0.903D-01-0.611D+00
 Coeff-Com:  0.149D+01
 Coeff:     -0.169D-03-0.104D-02-0.118D-02 0.315D-01 0.903D-01-0.611D+00
 Coeff:      0.149D+01
 Gap=     0.352 Goal=   None    Shift=    0.000
 RMSDP=5.52D-06 MaxDP=2.00D-04 DE=-8.63D-06 OVMax= 5.34D-04

 Cycle   8  Pass 1  IDiag  1:
 E= -994.524458846701     Delta-E=       -0.000000670246 Rises=F Damp=F
 DIIS: error= 8.55D-06 at cycle   8 NSaved=   8.
 NSaved= 8 IEnMin= 8 EnMin= -994.524458846701     IErMin= 8 ErrMin= 8.55D-06
 ErrMax= 8.55D-06  0.00D+00 EMaxC= 1.00D-01 BMatC= 1.03D-08 BMatP= 1.44D-07
 IDIUse=1 WtCom= 1.00D+00 WtEn= 0.00D+00
 Coeff-Com:  0.173D-04-0.581D-03-0.891D-03-0.103D-03 0.114D-01 0.117D-01
 Coeff-Com: -0.266D+00 0.124D+01
 Coeff:      0.173D-04-0.581D-03-0.891D-03-0.103D-03 0.114D-01 0.117D-01
 Coeff:     -0.266D+00 0.124D+01
 Gap=     0.352 Goal=   None    Shift=    0.000
 RMSDP=1.29D-06 MaxDP=2.95D-05 DE=-6.70D-07 OVMax= 1.51D-04

 Cycle   9  Pass 1  IDiag  1:
 E= -994.524458887715     Delta-E=       -0.000000041014 Rises=F Damp=F
 DIIS: error= 3.88D-06 at cycle   9 NSaved=   9.
 NSaved= 9 IEnMin= 9 EnMin= -994.524458887715     IErMin= 9 ErrMin= 3.88D-06
 ErrMax= 3.88D-06  0.00D+00 EMaxC= 1.00D-01 BMatC= 1.43D-09 BMatP= 1.03D-08
 IDIUse=1 WtCom= 1.00D+00 WtEn= 0.00D+00
 Coeff-Com:  0.153D-04 0.260D-03 0.375D-03-0.362D-02-0.139D-01 0.704D-01
 Coeff-Com: -0.101D+00-0.363D+00 0.141D+01
 Coeff:      0.153D-04 0.260D-03 0.375D-03-0.362D-02-0.139D-01 0.704D-01
 Coeff:     -0.101D+00-0.363D+00 0.141D+01
 Gap=     0.352 Goal=   None    Shift=    0.000
 RMSDP=6.24D-07 MaxDP=1.46D-05 DE=-4.10D-08 OVMax= 7.53D-05

 Cycle  10  Pass 1  IDiag  1:
 E= -994.524458895352     Delta-E=       -0.000000007636 Rises=F Damp=F
 DIIS: error= 1.72D-06 at cycle  10 NSaved=  10.
 NSaved=10 IEnMin=10 EnMin= -994.524458895352     IErMin=10 ErrMin= 1.72D-06
 ErrMax= 1.72D-06  0.00D+00 EMaxC= 1.00D-01 BMatC= 2.09D-10 BMatP= 1.43D-09
 IDIUse=1 WtCom= 1.00D+00 WtEn= 0.00D+00
 Coeff-Com: -0.380D-05 0.232D-04-0.778D-05 0.826D-03 0.172D-02-0.168D-01
 Coeff-Com:  0.605D-01-0.142D+00-0.189D+00 0.128D+01
 Coeff:     -0.380D-05 0.232D-04-0.778D-05 0.826D-03 0.172D-02-0.168D-01
 Coeff:      0.605D-01-0.142D+00-0.189D+00 0.128D+01
 Gap=     0.352 Goal=   None    Shift=    0.000
 RMSDP=2.42D-07 MaxDP=5.92D-06 DE=-7.64D-09 OVMax= 2.86D-05

 Cycle  11  Pass 1  IDiag  1:
 E= -994.524458896338     Delta-E=       -0.000000000986 Rises=F Damp=F
 DIIS: error= 4.97D-07 at cycle  11 NSaved=  11.
 NSaved=11 IEnMin=11 EnMin= -994.524458896338     IErMin=11 ErrMin= 4.97D-07
 ErrMax= 4.97D-07  0.00D+00 EMaxC= 1.00D-01 BMatC= 1.44D-11 BMatP= 2.09D-10
 IDIUse=1 WtCom= 1.00D+00 WtEn= 0.00D+00
 Coeff-Com: -0.259D-05-0.210D-04-0.200D-04 0.402D-03 0.122D-02-0.697D-02
 Coeff-Com:  0.941D-02 0.458D-01-0.130D+00-0.163D+00 0.124D+01
 Coeff:     -0.259D-05-0.210D-04-0.200D-04 0.402D-03 0.122D-02-0.697D-02
 Coeff:      0.941D-02 0.458D-01-0.130D+00-0.163D+00 0.124D+01
 Gap=     0.352 Goal=   None    Shift=    0.000
 RMSDP=6.88D-08 MaxDP=1.76D-06 DE=-9.86D-10 OVMax= 7.57D-06

 Cycle  12  Pass 1  IDiag  1:
 E= -994.524458896412     Delta-E=       -0.000000000074 Rises=F Damp=F
 DIIS: error= 9.57D-08 at cycle  12 NSaved=  12.
 NSaved=12 IEnMin=12 EnMin= -994.524458896412     IErMin=12 ErrMin= 9.57D-08
 ErrMax= 9.57D-08  0.00D+00 EMaxC= 1.00D-01 BMatC= 6.85D-13 BMatP= 1.44D-11
 IDIUse=1 WtCom= 1.00D+00 WtEn= 0.00D+00
 Coeff-Com:  0.754D-06 0.631D-06 0.888D-07-0.110D-03-0.266D-03 0.196D-02
 Coeff-Com: -0.458D-02-0.127D-02 0.340D-01-0.436D-01-0.200D+00 0.121D+01
 Coeff:      0.754D-06 0.631D-06 0.888D-07-0.110D-03-0.266D-03 0.196D-02
 Coeff:     -0.458D-02-0.127D-02 0.340D-01-0.436D-01-0.200D+00 0.121D+01
 Gap=     0.352 Goal=   None    Shift=    0.000
 RMSDP=1.28D-08 MaxDP=2.94D-07 DE=-7.41D-11 OVMax= 1.07D-06

 Cycle  13  Pass 1  IDiag  1:
 E= -994.524458896413     Delta-E=       -0.000000000001 Rises=F Damp=F
 DIIS: error= 2.20D-08 at cycle  13 NSaved=  13.
 NSaved=13 IEnMin=13 EnMin= -994.524458896413     IErMin=13 ErrMin= 2.20D-08
 ErrMax= 2.20D-08  0.00D+00 EMaxC= 1.00D-01 BMatC= 6.48D-14 BMatP= 6.85D-13
 IDIUse=1 WtCom= 1.00D+00 WtEn= 0.00D+00
 Coeff-Com:  0.136D-06 0.177D-05 0.158D-05-0.231D-04-0.810D-04 0.427D-03
 Coeff-Com: -0.442D-03-0.372D-02 0.943D-02 0.136D-01-0.956D-01-0.399D-01
 Coeff-Com:  0.112D+01
 Coeff:      0.136D-06 0.177D-05 0.158D-05-0.231D-04-0.810D-04 0.427D-03
 Coeff:     -0.442D-03-0.372D-02 0.943D-02 0.136D-01-0.956D-01-0.399D-01
 Coeff:      0.112D+01
 Gap=     0.352 Goal=   None    Shift=    0.000
 RMSDP=3.31D-09 MaxDP=8.57D-08 DE=-6.82D-13 OVMax= 3.08D-07

 SCF Done:  E(RHF) =  -994.524458896     A.U. after   13 cycles
            NFock= 13  Conv=0.33D-08     -V/T= 2.0001
 KE= 9.944271723431D+02 PE=-2.622006451608D+03 EE= 5.109216474191D+02
 Leave Link  502 at Thu Nov  4 23:34:41 2021, MaxMem= 16106127360 cpu:              34.0 elap:               1.9
 (Enter /sw/contrib/gaussian/g16/B01/g16/l801.exe)
 ExpMin= 2.53D-02 ExpMax= 4.56D+05 ExpMxC= 1.44D+03 IAcc=3 IRadAn=         5 AccDes= 0.00D+00
 HarFok:  IExCor=  205 AccDes= 0.00D+00 IRadAn=         5 IDoV=-2 UseB2=F ITyADJ=14
 ICtDFT= 12500011 ScaDFX=  1.000000  1.000000  1.000000  1.000000
 Largest valence mixing into a core orbital is  4.48D-04
 Largest core mixing into a valence orbital is  1.73D-04
 Range of M.O.s used for correlation:    12   169
 NBasis=   169 NAE=    22 NBE=    22 NFC=    11 NFV=     0
 NROrb=    158 NOA=    11 NOB=    11 NVA=   147 NVB=   147

 **** Warning!!: The largest alpha MO coefficient is  0.21426482D+02

 Leave Link  801 at Thu Nov  4 23:34:41 2021, MaxMem= 16106127360 cpu:               3.0 elap:               0.2
 (Enter /sw/contrib/gaussian/g16/B01/g16/l906.exe)
 Frozen-core derivative calculation, NFC=  11 NFV=   0.
 FulOut=F Deriv=T AODrv=T NAtomX=     4
   MMem=         143  MDisk=          11 MDiskD=          11
  W3Min=      736164 MinDsk=     1250177 NBas6D=         198
 NBas2D=       20187    NTT=       19701    LW2=     3500000
    MDV= 16105706241 MDiskM=      406659 NBas2p=       20117
 Fully direct method using O(ONN) memory.
 IMap=   1   2   3   4   5   6   7   8   9  10  11  12  13  14  15  16  17  18  19  20
 IMap=  21  22
 JobTyp=1 Pass  1:  I=  12 to  22 NPSUse= 28 ParTrn=T ParDer=T DoDerP=T.
 Spin components of T(2) and E(2):
     alpha-alpha T2 =       0.2910807048D-01 E2=     -0.8387595213D-01
     alpha-beta  T2 =       0.1588680470D+00 E2=     -0.4977774108D+00
     beta-beta   T2 =       0.2910807048D-01 E2=     -0.8387595213D-01
 The integrals were generated   1 times.
 ANorm=    0.1103215386D+01
 E2 =    -0.6655293150D+00 EUMP2 =    -0.99518998821144D+03
 Leave Link  906 at Thu Nov  4 23:34:51 2021, MaxMem= 16106127360 cpu:             286.7 elap:              10.4
 (Enter /sw/contrib/gaussian/g16/B01/g16/l1002.exe)
 Minotr:  Closed shell wavefunction.
          Computing MP2/KS-MP2 derivatives.
          Using Z-Vector for PSCF gradient.
          Skipping F1 and S1 gradient terms here.
          IDoAtm=1111
          Frozen-core window.
          Direct CPHF calculation.
          Differentiating once with respect to electric field.
                with respect to dipole field.
          Differentiating once with respect to nuclear coordinates.
          Using symmetry in CPHF.
          Requested convergence is 1.0D-10 RMS, and 1.0D-09 maximum.
          NewPWx=F KeepS1=T KeepF1=T KeepIn=T MapXYZ=F SortEE=F KeepMc=T.
 Keep R1 ints in memory in symmetry-blocked form, NReq=155450263.
 FoFCou: FMM=F IPFlag=           0 FMFlag=           0 FMFlg1=           0
         NFxFlg=           0 DoJE=F BraDBF=F KetDBF=F FulRan=T
         wScrn=  0.000000 ICntrl=       600 IOpCl=  0 I1Cent=           0 NGrid=           0
         NMat0=    1 NMatS0=  14365 NMatT0=    0 NMatD0=    1 NMtDS0=    0 NMtDT0=    0
 Petite list used in FoFCou.
          MDV=   16106127360 using IRadAn=       5.
          Solving linear equations separately, MaxMat=       0.
          There are     1 degrees of freedom in the 1st order CPHF.  IDoFFX=0 NUNeed=     1.
 LinEq1:  Iter=  0 NonCon=     1 RMS=3.04D-03 Max=4.76D-02 NDo=     1
 AX will form     1 AO Fock derivatives at one time.
 LinEq1:  Iter=  1 NonCon=     1 RMS=3.83D-04 Max=5.24D-03 NDo=     1
 LinEq1:  Iter=  2 NonCon=     1 RMS=1.69D-04 Max=3.84D-03 NDo=     1
 LinEq1:  Iter=  3 NonCon=     1 RMS=6.53D-05 Max=1.13D-03 NDo=     1
 LinEq1:  Iter=  4 NonCon=     1 RMS=2.65D-05 Max=6.79D-04 NDo=     1
 LinEq1:  Iter=  5 NonCon=     1 RMS=5.72D-06 Max=7.31D-05 NDo=     1
 LinEq1:  Iter=  6 NonCon=     1 RMS=1.50D-06 Max=1.66D-05 NDo=     1
 LinEq1:  Iter=  7 NonCon=     1 RMS=3.05D-07 Max=3.43D-06 NDo=     1
 LinEq1:  Iter=  8 NonCon=     1 RMS=5.21D-08 Max=7.84D-07 NDo=     1
 LinEq1:  Iter=  9 NonCon=     1 RMS=1.22D-08 Max=1.74D-07 NDo=     1
 LinEq1:  Iter= 10 NonCon=     1 RMS=3.74D-09 Max=7.11D-08 NDo=     1
 LinEq1:  Iter= 11 NonCon=     1 RMS=1.26D-09 Max=3.05D-08 NDo=     1
 LinEq1:  Iter= 12 NonCon=     1 RMS=2.51D-10 Max=3.70D-09 NDo=     1
 LinEq1:  Iter= 13 NonCon=     0 RMS=5.32D-11 Max=6.65D-10 NDo=     1
 Linear equations converged to 1.000D-10 1.000D-09 after    13 iterations.
 End of Minotr F.D. properties file   721 does not exist.
 End of Minotr F.D. properties file   722 does not exist.
 End of Minotr F.D. properties file   788 does not exist.
 Leave Link 1002 at Thu Nov  4 23:34:53 2021, MaxMem= 16106127360 cpu:              33.4 elap:               2.0
 (Enter /sw/contrib/gaussian/g16/B01/g16/l601.exe)
 Copying SCF densities to generalized density rwf, IOpCl= 0 IROHF=0.

 **********************************************************************

            Population analysis using the MP2 Density.

 **********************************************************************

 Orbital symmetries:
       Occupied  (A') (A') (A') (A') (A') (A') (A') (A") (A') (A")
                 (A') (A') (A') (A') (A') (A") (A') (A') (A") (A')
                 (A") (A')
       Virtual   (A') (A') (A') (A") (A') (A') (A") (A') (A') (A")
                 (A') (A') (A') (A') (A") (A') (A') (A") (A") (A')
                 (A') (A") (A') (A') (A') (A") (A') (A') (A") (A')
                 (A') (A") (A') (A') (A") (A') (A") (A') (A') (A")
                 (A') (A") (A') (A') (A') (A") (A') (A') (A") (A")
                 (A') (A') (A') (A") (A") (A') (A') (A") (A') (A")
                 (A') (A") (A') (A') (A') (A") (A') (A") (A') (A")
                 (A') (A') (A') (A") (A') (A') (A') (A") (A') (A')
                 (A") (A') (A") (A') (A") (A') (A') (A") (A') (A')
                 (A") (A') (A") (A') (A") (A') (A") (A') (A') (A")
                 (A") (A') (A') (A") (A') (A') (A") (A') (A') (A")
                 (A") (A') (A') (A") (A') (A') (A") (A') (A') (A')
                 (A') (A") (A") (A') (A") (A') (A') (A') (A') (A")
                 (A') (A') (A') (A') (A") (A') (A") (A') (A") (A")
                 (A') (A') (A") (A') (A') (A') (A')
 The electronic state is 1-A'.
 Alpha  occ. eigenvalues -- -104.72763-104.54363 -20.45482 -10.44703 -10.26852
 Alpha  occ. eigenvalues --   -7.91416  -7.91156  -7.91147  -7.73466  -7.73453
 Alpha  occ. eigenvalues --   -7.73452  -1.22880  -0.89581  -0.78299  -0.54315
 Alpha  occ. eigenvalues --   -0.43670  -0.42785  -0.30663  -0.27889  -0.20067
 Alpha  occ. eigenvalues --   -0.19201  -0.19197
 Alpha virt. eigenvalues --    0.16050   0.18444   0.22556   0.23470   0.25931
 Alpha virt. eigenvalues --    0.27406   0.27630   0.28844   0.30874   0.32397
 Alpha virt. eigenvalues --    0.33575   0.34976   0.38853   0.44744   0.46226
 Alpha virt. eigenvalues --    0.51738   0.52502   0.53849   0.56572   0.57170
 Alpha virt. eigenvalues --    0.59343   0.60137   0.60154   0.65308   0.66005
 Alpha virt. eigenvalues --    0.68398   0.68512   0.74939   0.78347   0.79499
 Alpha virt. eigenvalues --    0.83213   0.88338   0.88476   0.89981   0.90531
 Alpha virt. eigenvalues --    0.92453   0.96422   1.00211   1.05409   1.05665
 Alpha virt. eigenvalues --    1.07494   1.08645   1.09452   1.10125   1.14396
 Alpha virt. eigenvalues --    1.14554   1.16840   1.18805   1.19019   1.20910
 Alpha virt. eigenvalues --    1.22354   1.24819   1.29177   1.31880   1.32580
 Alpha virt. eigenvalues --    1.37522   1.40732   1.42932   1.43367   1.47771
 Alpha virt. eigenvalues --    1.47853   1.49979   1.54890   1.61344   1.65027
 Alpha virt. eigenvalues --    1.67142   1.69544   1.72114   1.73775   1.80815
 Alpha virt. eigenvalues --    1.81891   1.83024   1.84905   1.91457   1.95110
 Alpha virt. eigenvalues --    2.00268   2.28221   2.38832   2.51098   2.53509
 Alpha virt. eigenvalues --    2.53987   2.57750   2.59934   2.62908   2.68905
 Alpha virt. eigenvalues --    2.69135   2.70348   2.72271   2.74589   2.76060
 Alpha virt. eigenvalues --    2.76806   2.78652   2.80426   2.82670   2.89966
 Alpha virt. eigenvalues --    2.92676   2.99294   2.99578   3.05961   3.08679
 Alpha virt. eigenvalues --    3.11784   3.15793   3.18898   3.22206   3.22544
 Alpha virt. eigenvalues --    3.26889   3.30506   3.31618   3.33848   3.34322
 Alpha virt. eigenvalues --    3.40209   3.41486   3.43271   3.48525   3.52052
 Alpha virt. eigenvalues --    3.53268   3.54858   3.59451   3.70634   3.98307
 Alpha virt. eigenvalues --    4.28471   4.35534   4.48986   4.59761   4.61800
 Alpha virt. eigenvalues --    4.81197   5.02066   5.20976   5.52128   5.53432
 Alpha virt. eigenvalues --    5.75664   6.28147   6.54802   6.67428   6.87068
 Alpha virt. eigenvalues --    6.91436   6.91936   7.01759   7.34108   7.38896
 Alpha virt. eigenvalues --    7.43095   7.46704   7.55139   7.83417   7.85242
 Alpha virt. eigenvalues --    8.45475  15.56581
          Condensed to atoms (all electrons):
               1          2          3          4
     1  O    8.610846  -0.104756  -0.089779   0.048212
     2  Cl  -0.104756  17.057856   0.001011  -0.000955
     3  Cl  -0.089779   0.001011  17.884554   0.063900
     4  H    0.048212  -0.000955   0.063900   0.611478
 Mulliken charges:
               1
     1  O   -0.464523
     2  Cl   0.046845
     3  Cl  -0.859687
     4  H    0.277365
 Sum of Mulliken charges =  -1.00000
 Mulliken charges with hydrogens summed into heavy atoms:
               1
     1  O   -0.187158
     2  Cl   0.046845
     3  Cl  -0.859687
 Electronic spatial extent (au):  <R**2>=            558.5356
 Charge=             -1.0000 electrons
 Dipole moment (field-independent basis, Debye):
    X=             -5.2333    Y=             -2.0213    Z=             -0.0000  Tot=              5.6101
 Quadrupole moment (field-independent basis, Debye-Ang):
   XX=            -54.6122   YY=            -37.3448   ZZ=            -36.6835
   XY=             -2.9874   XZ=             -0.0000   YZ=              0.0000
 Traceless Quadrupole moment (field-independent basis, Debye-Ang):
   XX=            -11.7320   YY=              5.5354   ZZ=              6.1967
   XY=             -2.9874   XZ=             -0.0000   YZ=              0.0000
 Octapole moment (field-independent basis, Debye-Ang**2):
  XXX=            -42.3197  YYY=             -6.6205  ZZZ=             -0.0000  XYY=             -8.4894
  XXY=             -9.6059  XXZ=             -0.0000  XZZ=             -5.9157  YZZ=             -0.9418
  YYZ=             -0.0000  XYZ=             -0.0000
 Hexadecapole moment (field-independent basis, Debye-Ang**3):
 XXXX=           -682.3014 YYYY=           -146.9445 ZZZZ=            -49.8826 XXXY=           -100.0617
 XXXZ=             -0.0000 YYYX=            -80.2469 YYYZ=             -0.0000 ZZZX=             -0.0000
 ZZZY=             -0.0000 XXYY=           -132.4555 XXZZ=           -113.9633 YYZZ=            -35.1984
 XXYZ=             -0.0000 YYXZ=             -0.0000 ZZXY=            -29.3767
 N-N= 1.221331729494D+02 E-N=-2.622062243333D+03  KE= 9.950792851044D+02
 Symmetry A'   KE= 8.990752469832D+02
 Symmetry A"   KE= 9.600403812124D+01
 No NMR shielding tensors so no spin-rotation constants.
 Leave Link  601 at Thu Nov  4 23:34:54 2021, MaxMem= 16106127360 cpu:               6.3 elap:               0.3
 (Enter /sw/contrib/gaussian/g16/B01/g16/l701.exe)
 ... and contract with generalized density number  2.
 Compute integral first derivatives.
 Leave Link  701 at Thu Nov  4 23:34:54 2021, MaxMem= 16106127360 cpu:               5.2 elap:               0.2
 (Enter /sw/contrib/gaussian/g16/B01/g16/l702.exe)
 L702 exits ... SP integral derivatives will be done elsewhere.
 Leave Link  702 at Thu Nov  4 23:34:54 2021, MaxMem= 16106127360 cpu:               0.5 elap:               0.0
 (Enter /sw/contrib/gaussian/g16/B01/g16/l703.exe)
 Integral derivatives from FoFJK, PRISM(SPDF).
 Compute integral first derivatives, UseDBF=F ICtDFT=           0.
 Calling FoFJK, ICntrl=  10002127 FMM=F ISym2X=1 I1Cent= 0 IOpClX= 0 NMat=1 NMatS=1 NMatT=0.
 FoFJK:  IHMeth= 1 ICntrl=10002127 DoSepK=F KAlg= 0 I1Cent=           0 FoldK=F
 IRaf=         0 NMat=       1 IRICut=       1 DoRegI=T DoRafI=F ISym2E= 1 IDoP0=0 IntGTp=1.
 FoFCou: FMM=F IPFlag=           0 FMFlag=      100000 FMFlg1=         800
         NFxFlg=           0 DoJE=F BraDBF=F KetDBF=F FulRan=T
         wScrn=  0.000000 ICntrl=  10002127 IOpCl=  0 I1Cent=           0 NGrid=           0
         NMat0=    1 NMatS0=      1 NMatT0=    0 NMatD0=    1 NMtDS0=    0 NMtDT0=    0
 Petite list used in FoFCou.
 Leave Link  703 at Thu Nov  4 23:34:56 2021, MaxMem= 16106127360 cpu:              42.0 elap:               1.5
 (Enter /sw/contrib/gaussian/g16/B01/g16/l716.exe)
 Dipole        =-2.05895823D+00-7.95243264D-01-3.58742436D-32
 ***** Axes restored to original set *****
 -------------------------------------------------------------------
 Center     Atomic                   Forces (Hartrees/Bohr)
 Number     Number              X              Y              Z
 -------------------------------------------------------------------
      1        8           0.015295833    0.039184383    0.000000000
      2       17          -0.006497584    0.000781611   -0.000000000
      3       17          -0.001043026   -0.001427440   -0.000000000
      4        1          -0.007755223   -0.038538555   -0.000000000
 -------------------------------------------------------------------
 Cartesian Forces:  Max     0.039184383 RMS     0.016734936
 -----------------------------------------------------------------------------------------------
                       Internal Coordinate Forces (Hartree/Bohr or radian)
  Cent   Atom   N1       Length/X         N2         Alpha/Y        N3         Beta/Z          J
 -----------------------------------------------------------------------------------------------
      1  O 
         X        1   0.000000(     1)
      2  Cl       1  -0.006498(     2)      2  -0.000000(     5)
      3  Cl       1   0.001619(     3)      2   0.000000(     6)      3   0.003896(     8)     0
      4  H        1   0.039304(     4)      2   0.000000(     7)      3  -0.001389(     9)     0
 -----------------------------------------------------------------------------------------------
 Internal  Forces:  Max     0.039303784 RMS     0.013361378
 Force constants in Cartesian coordinates: 
                1             2             3             4             5 
      1  0.462566D+00
      2  0.623281D-01  0.599397D+00
      3  0.000000D+00  0.000000D+00  0.213774D-01
      4 -0.362536D+00  0.000000D+00  0.000000D+00  0.362536D+00
      5  0.404796D-01 -0.488302D-01  0.000000D+00  0.000000D+00  0.398677D-01
      6  0.000000D+00  0.000000D+00  0.000000D+00  0.000000D+00  0.000000D+00
      7  0.910570D-03  0.751549D-02  0.000000D+00  0.000000D+00 -0.138666D-01
      8 -0.635111D-02 -0.294386D-01  0.000000D+00  0.000000D+00  0.307017D-02
      9  0.000000D+00  0.000000D+00  0.106953D-01  0.000000D+00  0.000000D+00
     10 -0.100940D+00 -0.698435D-01  0.000000D+00  0.000000D+00 -0.266129D-01
     11 -0.964565D-01 -0.521128D+00  0.000000D+00  0.000000D+00  0.589230D-02
     12  0.000000D+00  0.000000D+00 -0.320726D-01  0.000000D+00  0.000000D+00
                6             7             8             9            10 
      6  0.100000D+01
      7  0.000000D+00  0.142699D-01
      8  0.000000D+00  0.299005D-02  0.271126D-01
      9  0.000000D+00  0.000000D+00  0.000000D+00  0.535093D-02
     10  0.000000D+00 -0.151805D-01  0.336107D-02  0.000000D+00  0.116121D+00
     11  0.000000D+00  0.336107D-02 -0.744164D-03  0.000000D+00  0.930954D-01
     12  0.000000D+00  0.000000D+00  0.000000D+00 -0.160462D-01  0.000000D+00
               11            12 
     11  0.515980D+00
     12  0.000000D+00  0.481188D-01
 Force constants in internal coordinates: 
                1             2             3             4             5 
      1  0.000000D+00
      2  0.000000D+00  0.362536D+00
      3  0.000000D+00  0.000000D+00  0.277747D-01
      4  0.000000D+00  0.000000D+00  0.000000D+00  0.536592D+00
      5  0.000000D+00  0.000000D+00  0.000000D+00  0.000000D+00  0.102840D+02
      6  0.000000D+00  0.000000D+00  0.000000D+00  0.000000D+00  0.000000D+00
      7  0.000000D+00  0.000000D+00  0.000000D+00  0.000000D+00  0.000000D+00
      8  0.000000D+00  0.000000D+00  0.000000D+00  0.000000D+00  0.000000D+00
      9  0.000000D+00  0.000000D+00  0.000000D+00  0.000000D+00  0.000000D+00
                6             7             8             9 
      6  0.161221D+00
      7 -0.161221D+00  0.161221D+00
      8  0.000000D+00  0.000000D+00  0.410000D+00
      9  0.000000D+00  0.000000D+00 -0.160000D+00  0.320000D+00
 Leave Link  716 at Thu Nov  4 23:34:56 2021, MaxMem= 16106127360 cpu:               0.8 elap:               0.1
 (Enter /sw/contrib/gaussian/g16/B01/g16/l103.exe)

 GradGradGradGradGradGradGradGradGradGradGradGradGradGradGradGradGradGrad
 Berny optimization.
 Search for a local minimum.
 Step number   1 out of a maximum of   20
 All quantities printed in internal units (Hartrees-Bohrs-Radians)
 Second derivative matrix not updated -- first step.
 The second derivative matrix:
                          r1        r2        r3        a1        OOP
           r1           0.36254
           r2           0.00000   0.02777
           r3           0.00000   0.00000   0.53659
           a1          -0.00000   0.00000   0.00000   0.41000
           OOP         -0.00000   0.00000   0.00000   0.00000   0.16122
 ITU=  0
     Eigenvalues ---    0.027771000.000001000.000001000.000001000.00000
 RFO step:  Lambda=-9.40715193D-05 EMin= 2.77746501D-02
 Linear search not attempted -- first point.
 Variable       Old X    -DE/DX   Delta X   Delta X   Delta X     New X
                                 (Linear)    (Quad)   (Total)
    r1        3.20687  -0.00650   0.00000   0.00000   0.00000   3.20687
    r2        5.48904   0.00162   0.00000   0.05810   0.05810   5.54714
    r3        1.83043   0.03930   0.00000   0.00000   0.00000   1.83043
    a1        1.78869   0.00251   0.00000   0.00000   0.00000   1.78869
   OOP        1.57080   0.00000   0.00000   0.00000   0.00000   1.57080
         Item               Value     Threshold  Converged?
 Maximum Force            0.001619     0.000450     NO 
 RMS     Force            0.001619     0.000300     NO 
 Maximum Displacement     0.058100     0.001800     NO 
 RMS     Displacement     0.025983     0.001200     NO 
 Predicted change in Energy=-4.719507D-05
 Lowest energy point so far.  Saving SCF results.
 GradGradGradGradGradGradGradGradGradGradGradGradGradGradGradGradGradGrad

 Leave Link  103 at Thu Nov  4 23:34:56 2021, MaxMem= 16106127360 cpu:               2.0 elap:               0.1
 (Enter /sw/contrib/gaussian/g16/B01/g16/l202.exe)
 ---------------------------------------------------------------------------------------------------
                            Z-MATRIX (ANGSTROMS AND DEGREES)
   CD    Cent   Atom    N1       Length/X        N2       Alpha/Y        N3        Beta/Z          J
 ---------------------------------------------------------------------------------------------------
      1      1  O 
      2         X        1  10.000000(     1)
      3      2  Cl       1   1.697002(     2)      2   90.000(     5)
      4      3  Cl       1   2.935421(     3)      2   90.000(     6)      3  102.484(     8)      0
      5      4  H        1   0.968623(     4)      2   90.000(     7)      3  102.484(     9)      0
 ---------------------------------------------------------------------------------------------------
                         Z-Matrix orientation:                         
 ---------------------------------------------------------------------
 Center     Atomic      Atomic             Coordinates (Angstroms)
 Number     Number       Type             X           Y           Z
 ---------------------------------------------------------------------
      1          8           0        0.000000    0.000000    0.000000
      2         -1           0        0.000000    0.000000   10.000000
      3         17           0        1.697002    0.000000    0.000000
      4         17           0       -0.634556   -2.866014    0.000000
      5          1           0       -0.209389   -0.945721    0.000000
 ---------------------------------------------------------------------
                    Distance matrix (angstroms):
                    1          2          3          4          5
     1  O    0.000000
     2  X   10.000000   0.000000
     3  Cl   1.697002  10.142969   0.000000
     4  Cl   2.935421  10.421933   3.694617   0.000000
     5  H    0.968623  10.046802   2.128077   1.966798   0.000000
 Stoichiometry    Cl2HO(1-)
 Framework group  CS[SG(Cl2HO)]
 Deg. of freedom     5
 Full point group                 CS      NOp   2
 RotChk:  IX=0 Diff= 2.60D-02
 Largest Abelian subgroup         CS      NOp   2
 Largest concise Abelian subgroup C1      NOp   1
                         Standard orientation:                         
 ---------------------------------------------------------------------
 Center     Atomic      Atomic             Coordinates (Angstroms)
 Number     Number       Type             X           Y           Z
 ---------------------------------------------------------------------
      1          8           0       -0.963234    0.760741    0.000000
      2         17           0       -1.502569   -0.848275    0.000000
      3         17           0        1.955856    0.451532   -0.000000
      4          1           0       -0.000000    0.658709   -0.000000
 ---------------------------------------------------------------------
 Rotational constants (GHZ):          22.7733769           2.0432688           1.8750371
 Leave Link  202 at Thu Nov  4 23:34:56 2021, MaxMem= 16106127360 cpu:               0.6 elap:               0.0
 (Enter /sw/contrib/gaussian/g16/B01/g16/l301.exe)
 Standard basis: Aug-CC-pVTZ (5D, 7F)
 Ernie: Thresh=  0.10000D-02 Tol=  0.10000D-05 Strict=F.
 Ernie:  29 primitive shells out of 169 were deleted.
 There are   135 symmetry adapted cartesian basis functions of A'  symmetry.
 There are    63 symmetry adapted cartesian basis functions of A"  symmetry.
 There are   112 symmetry adapted basis functions of A'  symmetry.
 There are    57 symmetry adapted basis functions of A"  symmetry.
   169 basis functions,   327 primitive gaussians,   198 cartesian basis functions
    22 alpha electrons       22 beta electrons
       nuclear repulsion energy       121.4911434847 Hartrees.
 IExCor=    0 DFT=F Ex=HF Corr=None ExCW=0 ScaHFX=  1.000000
 ScaDFX=  1.000000  1.000000  1.000000  1.000000 ScalE2=  1.000000  1.000000
 IRadAn=      5 IRanWt=     -1 IRanGd=            0 ICorTp=0 IEmpDi=  4
 NAtoms=    4 NActive=    4 NUniq=    4 SFac= 1.00D+00 NAtFMM=   60 NAOKFM=F Big=F
 Integral buffers will be    131072 words long.
 Raffenetti 1 integral format.
 Two-electron integral symmetry is turned on.
 Leave Link  301 at Thu Nov  4 23:34:56 2021, MaxMem= 16106127360 cpu:               1.1 elap:               0.1
 (Enter /sw/contrib/gaussian/g16/B01/g16/l302.exe)
 NPDir=0 NMtPBC=     1 NCelOv=     1 NCel=       1 NClECP=     1 NCelD=      1
         NCelK=      1 NCelE2=     1 NClLst=     1 CellRange=     0.0.
 One-electron integrals computed using PRISM.
 One-electron integral symmetry used in STVInt
 NBasis=   169 RedAO= T EigKep=  2.21D-04  NBF=   112    57
 NBsUse=   169 1.00D-06 EigRej= -1.00D+00 NBFU=   112    57
 Leave Link  302 at Thu Nov  4 23:34:56 2021, MaxMem= 16106127360 cpu:               3.9 elap:               0.2
 (Enter /sw/contrib/gaussian/g16/B01/g16/l303.exe)
 DipDrv:  MaxL=1.
 Leave Link  303 at Thu Nov  4 23:34:56 2021, MaxMem= 16106127360 cpu:               1.4 elap:               0.1
 (Enter /sw/contrib/gaussian/g16/B01/g16/l401.exe)
 Initial guess from the checkpoint file:  "/gscratch/ilahie/mccoygrp/coire_hocl/oop_s_rOH_f/clhocl/clhocl_rOCl_opt.chk"
 B after Tr=    -0.000000   -0.000000   -0.000000
         Rot=    0.999945   -0.000000    0.000000    0.010502 Ang=   1.20 deg.
 Guess basis will be translated and rotated to current coordinates.
 JPrj=2 DoOrth=T DoCkMO=T.
 Initial guess orbital symmetries:
       Occupied  (A') (A') (A') (A') (A') (A') (A') (A") (A') (A")
                 (A') (A') (A') (A') (A') (A") (A') (A') (A") (A')
                 (A") (A')
       Virtual   (A') (A') (A') (A") (A') (A') (A") (A') (A') (A")
                 (A') (A') (A') (A') (A") (A') (A') (A") (A") (A')
                 (A') (A") (A') (A') (A') (A") (A') (A') (A") (A')
                 (A') (A") (A') (A') (A") (A') (A") (A') (A') (A")
                 (A') (A") (A') (A') (A') (A") (A') (A') (A") (A")
                 (A') (A') (A') (A") (A") (A') (A') (A") (A') (A")
                 (A') (A") (A') (A') (A') (A") (A') (A") (A') (A")
                 (A') (A') (A') (A") (A') (A') (A') (A") (A') (A')
                 (A") (A') (A") (A') (A") (A') (A') (A") (A') (A')
                 (A") (A') (A") (A') (A") (A') (A") (A') (A') (A")
                 (A") (A') (A') (A") (A') (A') (A") (A') (A') (A")
                 (A") (A') (A') (A") (A') (A') (A") (A') (A') (A')
                 (A') (A") (A") (A') (A") (A') (A') (A') (A') (A")
                 (A') (A') (A') (A') (A") (A') (A") (A') (A") (A")
                 (A') (A') (A") (A') (A') (A') (A')
 The electronic state of the initial guess is 1-A'.
 Generating alternative initial guess.
 ExpMin= 2.53D-02 ExpMax= 4.56D+05 ExpMxC= 1.44D+03 IAcc=3 IRadAn=         5 AccDes= 0.00D+00
 Harris functional with IExCor=  205 and IRadAn=       5 diagonalized for initial guess.
 HarFok:  IExCor=  205 AccDes= 0.00D+00 IRadAn=         5 IDoV= 1 UseB2=F ITyADJ=14
 ICtDFT=  3500011 ScaDFX=  1.000000  1.000000  1.000000  1.000000
 FoFCou: FMM=F IPFlag=           0 FMFlag=      100000 FMFlg1=           0
         NFxFlg=           0 DoJE=T BraDBF=F KetDBF=T FulRan=T
         wScrn=  0.000000 ICntrl=       500 IOpCl=  0 I1Cent=   200000004 NGrid=           0
         NMat0=    1 NMatS0=      1 NMatT0=    0 NMatD0=    1 NMtDS0=    0 NMtDT0=    0
 Petite list used in FoFCou.
 Harris En= -993.822583689796    
 Leave Link  401 at Thu Nov  4 23:34:57 2021, MaxMem= 16106127360 cpu:              14.6 elap:               0.6
 (Enter /sw/contrib/gaussian/g16/B01/g16/l502.exe)
 Keep R1 ints in memory in symmetry-blocked form, NReq=155449223.
 FoFCou: FMM=F IPFlag=           0 FMFlag=           0 FMFlg1=           0
         NFxFlg=           0 DoJE=F BraDBF=F KetDBF=F FulRan=T
         wScrn=  0.000000 ICntrl=       600 IOpCl=  0 I1Cent=           0 NGrid=           0
         NMat0=    1 NMatS0=  14365 NMatT0=    0 NMatD0=    1 NMtDS0=    0 NMtDT0=    0
 Petite list used in FoFCou.
 Closed shell SCF:
 Using DIIS extrapolation, IDIIS=  1040.
 NGot= 16106127360 LenX= 16053777278 LenY= 16053737633
 Requested convergence on RMS density matrix=1.00D-08 within 128 cycles.
 Requested convergence on MAX density matrix=1.00D-06.
 Requested convergence on             energy=1.00D-06.
 No special actions if energy rises.

 Cycle   1  Pass 1  IDiag  1:
 E= -994.524887790612    
 DIIS: error= 4.31D-04 at cycle   1 NSaved=   1.
 NSaved= 1 IEnMin= 1 EnMin= -994.524887790612     IErMin= 1 ErrMin= 4.31D-04
 ErrMax= 4.31D-04  0.00D+00 EMaxC= 1.00D-01 BMatC= 2.92D-05 BMatP= 2.92D-05
 IDIUse=3 WtCom= 9.96D-01 WtEn= 4.31D-03
 Coeff-Com:  0.100D+01
 Coeff-En:   0.100D+01
 Coeff:      0.100D+01
 Gap=     0.352 Goal=   None    Shift=    0.000
 RMSDP=5.93D-05 MaxDP=2.69D-03              OVMax= 2.41D-03

 Cycle   2  Pass 1  IDiag  1:
 E= -994.524922141792     Delta-E=       -0.000034351180 Rises=F Damp=F
 DIIS: error= 1.04D-04 at cycle   2 NSaved=   2.
 NSaved= 2 IEnMin= 2 EnMin= -994.524922141792     IErMin= 2 ErrMin= 1.04D-04
 ErrMax= 1.04D-04  0.00D+00 EMaxC= 1.00D-01 BMatC= 1.93D-06 BMatP= 2.92D-05
 IDIUse=3 WtCom= 9.99D-01 WtEn= 1.04D-03
 Coeff-Com: -0.613D-01 0.106D+01
 Coeff-En:   0.000D+00 0.100D+01
 Coeff:     -0.612D-01 0.106D+01
 Gap=     0.352 Goal=   None    Shift=    0.000
 RMSDP=1.06D-05 MaxDP=5.29D-04 DE=-3.44D-05 OVMax= 7.78D-04

 Cycle   3  Pass 1  IDiag  1:
 E= -994.524924873895     Delta-E=       -0.000002732103 Rises=F Damp=F
 DIIS: error= 5.18D-05 at cycle   3 NSaved=   3.
 NSaved= 3 IEnMin= 3 EnMin= -994.524924873895     IErMin= 3 ErrMin= 5.18D-05
 ErrMax= 5.18D-05  0.00D+00 EMaxC= 1.00D-01 BMatC= 5.45D-07 BMatP= 1.93D-06
 IDIUse=1 WtCom= 1.00D+00 WtEn= 0.00D+00
 Coeff-Com: -0.713D-01 0.330D+00 0.742D+00
 Coeff:     -0.713D-01 0.330D+00 0.742D+00
 Gap=     0.351 Goal=   None    Shift=    0.000
 RMSDP=3.25D-06 MaxDP=1.11D-04 DE=-2.73D-06 OVMax= 2.57D-04

 Cycle   4  Pass 1  IDiag  1:
 E= -994.524925457009     Delta-E=       -0.000000583115 Rises=F Damp=F
 DIIS: error= 1.79D-05 at cycle   4 NSaved=   4.
 NSaved= 4 IEnMin= 4 EnMin= -994.524925457009     IErMin= 4 ErrMin= 1.79D-05
 ErrMax= 1.79D-05  0.00D+00 EMaxC= 1.00D-01 BMatC= 5.40D-08 BMatP= 5.45D-07
 IDIUse=1 WtCom= 1.00D+00 WtEn= 0.00D+00
 Coeff-Com:  0.536D-02-0.122D+00 0.553D-01 0.106D+01
 Coeff:      0.536D-02-0.122D+00 0.553D-01 0.106D+01
 Gap=     0.351 Goal=   None    Shift=    0.000
 RMSDP=2.10D-06 MaxDP=5.86D-05 DE=-5.83D-07 OVMax= 1.55D-04

 Cycle   5  Pass 1  IDiag  1:
 E= -994.524925572679     Delta-E=       -0.000000115670 Rises=F Damp=F
 DIIS: error= 5.82D-06 at cycle   5 NSaved=   5.
 NSaved= 5 IEnMin= 5 EnMin= -994.524925572679     IErMin= 5 ErrMin= 5.82D-06
 ErrMax= 5.82D-06  0.00D+00 EMaxC= 1.00D-01 BMatC= 4.81D-09 BMatP= 5.40D-08
 IDIUse=1 WtCom= 1.00D+00 WtEn= 0.00D+00
 Coeff-Com:  0.778D-02-0.362D-01-0.829D-01-0.587D-01 0.117D+01
 Coeff:      0.778D-02-0.362D-01-0.829D-01-0.587D-01 0.117D+01
 Gap=     0.351 Goal=   None    Shift=    0.000
 RMSDP=8.84D-07 MaxDP=3.07D-05 DE=-1.16D-07 OVMax= 7.17D-05

 Cycle   6  Pass 1  IDiag  1:
 E= -994.524925589161     Delta-E=       -0.000000016481 Rises=F Damp=F
 DIIS: error= 1.24D-06 at cycle   6 NSaved=   6.
 NSaved= 6 IEnMin= 6 EnMin= -994.524925589161     IErMin= 6 ErrMin= 1.24D-06
 ErrMax= 1.24D-06  0.00D+00 EMaxC= 1.00D-01 BMatC= 4.14D-10 BMatP= 4.81D-09
 IDIUse=1 WtCom= 1.00D+00 WtEn= 0.00D+00
 Coeff-Com: -0.125D-02 0.159D-01 0.636D-02-0.109D+00-0.792D-01 0.117D+01
 Coeff:     -0.125D-02 0.159D-01 0.636D-02-0.109D+00-0.792D-01 0.117D+01
 Gap=     0.351 Goal=   None    Shift=    0.000
 RMSDP=2.45D-07 MaxDP=6.33D-06 DE=-1.65D-08 OVMax= 1.72D-05

 Cycle   7  Pass 1  IDiag  1:
 E= -994.524925590447     Delta-E=       -0.000000001286 Rises=F Damp=F
 DIIS: error= 4.54D-07 at cycle   7 NSaved=   7.
 NSaved= 7 IEnMin= 7 EnMin= -994.524925590447     IErMin= 7 ErrMin= 4.54D-07
 ErrMax= 4.54D-07  0.00D+00 EMaxC= 1.00D-01 BMatC= 2.25D-11 BMatP= 4.14D-10
 IDIUse=1 WtCom= 1.00D+00 WtEn= 0.00D+00
 Coeff-Com: -0.399D-03 0.178D-02 0.496D-02 0.159D-02-0.639D-01-0.396D-01
 Coeff-Com:  0.110D+01
 Coeff:     -0.399D-03 0.178D-02 0.496D-02 0.159D-02-0.639D-01-0.396D-01
 Coeff:      0.110D+01
 Gap=     0.351 Goal=   None    Shift=    0.000
 RMSDP=7.71D-08 MaxDP=2.83D-06 DE=-1.29D-09 OVMax= 5.09D-06

 Cycle   8  Pass 1  IDiag  1:
 E= -994.524925590526     Delta-E=       -0.000000000079 Rises=F Damp=F
 DIIS: error= 1.42D-07 at cycle   8 NSaved=   8.
 NSaved= 8 IEnMin= 8 EnMin= -994.524925590526     IErMin= 8 ErrMin= 1.42D-07
 ErrMax= 1.42D-07  0.00D+00 EMaxC= 1.00D-01 BMatC= 3.17D-12 BMatP= 2.25D-11
 IDIUse=1 WtCom= 1.00D+00 WtEn= 0.00D+00
 Coeff-Com:  0.213D-03-0.211D-02-0.100D-02 0.104D-01 0.199D-01-0.125D+00
 Coeff-Com: -0.935D-01 0.119D+01
 Coeff:      0.213D-03-0.211D-02-0.100D-02 0.104D-01 0.199D-01-0.125D+00
 Coeff:     -0.935D-01 0.119D+01
 Gap=     0.351 Goal=   None    Shift=    0.000
 RMSDP=2.66D-08 MaxDP=1.18D-06 DE=-7.89D-11 OVMax= 1.90D-06

 Cycle   9  Pass 1  IDiag  1:
 E= -994.524925590536     Delta-E=       -0.000000000010 Rises=F Damp=F
 DIIS: error= 5.26D-08 at cycle   9 NSaved=   9.
 NSaved= 9 IEnMin= 9 EnMin= -994.524925590536     IErMin= 9 ErrMin= 5.26D-08
 ErrMax= 5.26D-08  0.00D+00 EMaxC= 1.00D-01 BMatC= 3.75D-13 BMatP= 3.17D-12
 IDIUse=1 WtCom= 1.00D+00 WtEn= 0.00D+00
 Coeff-Com: -0.110D-04 0.313D-03 0.531D-04-0.288D-02 0.826D-03 0.342D-01
 Coeff-Com: -0.550D-01-0.387D+00 0.141D+01
 Coeff:     -0.110D-04 0.313D-03 0.531D-04-0.288D-02 0.826D-03 0.342D-01
 Coeff:     -0.550D-01-0.387D+00 0.141D+01
 Gap=     0.351 Goal=   None    Shift=    0.000
 RMSDP=1.01D-08 MaxDP=2.53D-07 DE=-1.00D-11 OVMax= 8.45D-07

 Cycle  10  Pass 1  IDiag  1:
 E= -994.524925590536     Delta-E=        0.000000000000 Rises=F Damp=F
 DIIS: error= 2.20D-08 at cycle  10 NSaved=  10.
 NSaved=10 IEnMin= 9 EnMin= -994.524925590536     IErMin=10 ErrMin= 2.20D-08
 ErrMax= 2.20D-08  0.00D+00 EMaxC= 1.00D-01 BMatC= 4.53D-14 BMatP= 3.75D-13
 IDIUse=1 WtCom= 1.00D+00 WtEn= 0.00D+00
 Coeff-Com: -0.261D-04 0.233D-03 0.174D-03-0.100D-02-0.332D-02 0.123D-01
 Coeff-Com:  0.296D-01-0.130D+00-0.166D+00 0.126D+01
 Coeff:     -0.261D-04 0.233D-03 0.174D-03-0.100D-02-0.332D-02 0.123D-01
 Coeff:      0.296D-01-0.130D+00-0.166D+00 0.126D+01
 Gap=     0.351 Goal=   None    Shift=    0.000
 RMSDP=4.11D-09 MaxDP=1.43D-07 DE= 0.00D+00 OVMax= 3.45D-07

 SCF Done:  E(RHF) =  -994.524925591     A.U. after   10 cycles
            NFock= 10  Conv=0.41D-08     -V/T= 2.0001
 KE= 9.944148673639D+02 PE=-2.620680507074D+03 EE= 5.102495706347D+02
 Leave Link  502 at Thu Nov  4 23:34:58 2021, MaxMem= 16106127360 cpu:              29.6 elap:               1.6
 (Enter /sw/contrib/gaussian/g16/B01/g16/l801.exe)
 ExpMin= 2.53D-02 ExpMax= 4.56D+05 ExpMxC= 1.44D+03 IAcc=3 IRadAn=         5 AccDes= 0.00D+00
 HarFok:  IExCor=  205 AccDes= 0.00D+00 IRadAn=         5 IDoV=-2 UseB2=F ITyADJ=14
 ICtDFT= 12500011 ScaDFX=  1.000000  1.000000  1.000000  1.000000
 Largest valence mixing into a core orbital is  4.48D-04
 Largest core mixing into a valence orbital is  1.73D-04
 Range of M.O.s used for correlation:    12   169
 NBasis=   169 NAE=    22 NBE=    22 NFC=    11 NFV=     0
 NROrb=    158 NOA=    11 NOB=    11 NVA=   147 NVB=   147

 **** Warning!!: The largest alpha MO coefficient is  0.21120100D+02

 Leave Link  801 at Thu Nov  4 23:34:58 2021, MaxMem= 16106127360 cpu:               2.3 elap:               0.1
 (Enter /sw/contrib/gaussian/g16/B01/g16/l906.exe)
 Frozen-core derivative calculation, NFC=  11 NFV=   0.
 FulOut=F Deriv=T AODrv=T NAtomX=     4
   MMem=         143  MDisk=          11 MDiskD=          11
  W3Min=      736164 MinDsk=     1250177 NBas6D=         198
 NBas2D=       20187    NTT=       19701    LW2=     3500000
    MDV= 16105706339 MDiskM=      406659 NBas2p=       20117
 Fully direct method using O(ONN) memory.
 IMap=   1   2   3   4   5   6   7   8   9  10  11  12  13  14  15  16  17  18  19  20
 IMap=  21  22
 JobTyp=1 Pass  1:  I=  12 to  22 NPSUse= 28 ParTrn=T ParDer=T DoDerP=T.
 Spin components of T(2) and E(2):
     alpha-alpha T2 =       0.2907487687D-01 E2=     -0.8376562019D-01
     alpha-beta  T2 =       0.1588659228D+00 E2=     -0.4975698432D+00
     beta-beta   T2 =       0.2907487687D-01 E2=     -0.8376562019D-01
 The integrals were generated   1 times.
 ANorm=    0.1103184335D+01
 E2 =    -0.6651010835D+00 EUMP2 =    -0.99519002667406D+03
 Leave Link  906 at Thu Nov  4 23:35:09 2021, MaxMem= 16106127360 cpu:             288.3 elap:              10.4
 (Enter /sw/contrib/gaussian/g16/B01/g16/l1002.exe)
 Minotr:  Closed shell wavefunction.
          Computing MP2/KS-MP2 derivatives.
          Using Z-Vector for PSCF gradient.
          Skipping F1 and S1 gradient terms here.
          IDoAtm=1111
          Frozen-core window.
          Direct CPHF calculation.
          Differentiating once with respect to electric field.
                with respect to dipole field.
          Differentiating once with respect to nuclear coordinates.
          Using symmetry in CPHF.
          Requested convergence is 1.0D-10 RMS, and 1.0D-09 maximum.
          NewPWx=F KeepS1=T KeepF1=T KeepIn=T MapXYZ=F SortEE=F KeepMc=T.
 Keep R1 ints in memory in symmetry-blocked form, NReq=155450263.
 FoFCou: FMM=F IPFlag=           0 FMFlag=           0 FMFlg1=           0
         NFxFlg=           0 DoJE=F BraDBF=F KetDBF=F FulRan=T
         wScrn=  0.000000 ICntrl=       600 IOpCl=  0 I1Cent=           0 NGrid=           0
         NMat0=    1 NMatS0=  14365 NMatT0=    0 NMatD0=    1 NMtDS0=    0 NMtDT0=    0
 Petite list used in FoFCou.
          MDV=   16106127360 using IRadAn=       5.
          Solving linear equations separately, MaxMat=       0.
          There are     1 degrees of freedom in the 1st order CPHF.  IDoFFX=0 NUNeed=     1.
 LinEq1:  Iter=  0 NonCon=     1 RMS=3.04D-03 Max=4.74D-02 NDo=     1
 AX will form     1 AO Fock derivatives at one time.
 LinEq1:  Iter=  1 NonCon=     1 RMS=3.81D-04 Max=5.16D-03 NDo=     1
 LinEq1:  Iter=  2 NonCon=     1 RMS=1.68D-04 Max=3.75D-03 NDo=     1
 LinEq1:  Iter=  3 NonCon=     1 RMS=6.49D-05 Max=1.12D-03 NDo=     1
 LinEq1:  Iter=  4 NonCon=     1 RMS=2.62D-05 Max=6.69D-04 NDo=     1
 LinEq1:  Iter=  5 NonCon=     1 RMS=5.67D-06 Max=7.35D-05 NDo=     1
 LinEq1:  Iter=  6 NonCon=     1 RMS=1.49D-06 Max=1.68D-05 NDo=     1
 LinEq1:  Iter=  7 NonCon=     1 RMS=3.02D-07 Max=3.58D-06 NDo=     1
 LinEq1:  Iter=  8 NonCon=     1 RMS=4.96D-08 Max=7.31D-07 NDo=     1
 LinEq1:  Iter=  9 NonCon=     1 RMS=9.96D-09 Max=1.18D-07 NDo=     1
 LinEq1:  Iter= 10 NonCon=     1 RMS=2.55D-09 Max=3.62D-08 NDo=     1
 LinEq1:  Iter= 11 NonCon=     1 RMS=7.51D-10 Max=1.22D-08 NDo=     1
 LinEq1:  Iter= 12 NonCon=     1 RMS=1.72D-10 Max=3.12D-09 NDo=     1
 LinEq1:  Iter= 13 NonCon=     0 RMS=4.17D-11 Max=9.17D-10 NDo=     1
 Linear equations converged to 1.000D-10 1.000D-09 after    13 iterations.
 End of Minotr F.D. properties file   721 does not exist.
 End of Minotr F.D. properties file   722 does not exist.
 End of Minotr F.D. properties file   788 does not exist.
 Leave Link 1002 at Thu Nov  4 23:35:11 2021, MaxMem= 16106127360 cpu:              33.3 elap:               2.0
 (Enter /sw/contrib/gaussian/g16/B01/g16/l701.exe)
 ... and contract with generalized density number  2.
 Compute integral first derivatives.
 Leave Link  701 at Thu Nov  4 23:35:11 2021, MaxMem= 16106127360 cpu:               5.8 elap:               0.3
 (Enter /sw/contrib/gaussian/g16/B01/g16/l702.exe)
 L702 exits ... SP integral derivatives will be done elsewhere.
 Leave Link  702 at Thu Nov  4 23:35:11 2021, MaxMem= 16106127360 cpu:               1.2 elap:               0.1
 (Enter /sw/contrib/gaussian/g16/B01/g16/l703.exe)
 Integral derivatives from FoFJK, PRISM(SPDF).
 Compute integral first derivatives, UseDBF=F ICtDFT=           0.
 Calling FoFJK, ICntrl=  10002127 FMM=F ISym2X=1 I1Cent= 0 IOpClX= 0 NMat=1 NMatS=1 NMatT=0.
 FoFJK:  IHMeth= 1 ICntrl=10002127 DoSepK=F KAlg= 0 I1Cent=           0 FoldK=F
 IRaf=         0 NMat=       1 IRICut=       1 DoRegI=T DoRafI=F ISym2E= 1 IDoP0=0 IntGTp=1.
 FoFCou: FMM=F IPFlag=           0 FMFlag=      100000 FMFlg1=         800
         NFxFlg=           0 DoJE=F BraDBF=F KetDBF=F FulRan=T
         wScrn=  0.000000 ICntrl=  10002127 IOpCl=  0 I1Cent=           0 NGrid=           0
         NMat0=    1 NMatS0=      1 NMatT0=    0 NMatD0=    1 NMtDS0=    0 NMtDT0=    0
 Petite list used in FoFCou.
 Leave Link  703 at Thu Nov  4 23:35:13 2021, MaxMem= 16106127360 cpu:              39.6 elap:               1.4
 (Enter /sw/contrib/gaussian/g16/B01/g16/l716.exe)
 Dipole        =-2.12360810D+00-7.59243976D-01 3.11803104D-32
 ***** Axes restored to original set *****
 -------------------------------------------------------------------
 Center     Atomic                   Forces (Hartrees/Bohr)
 Number     Number              X              Y              Z
 -------------------------------------------------------------------
      1        8           0.014615368    0.036798784    0.000000000
      2       17          -0.006352334    0.000725943   -0.000000000
      3       17          -0.000577973    0.000387611   -0.000000000
      4        1          -0.007685061   -0.037912337   -0.000000000
 -------------------------------------------------------------------
 Cartesian Forces:  Max     0.037912337 RMS     0.016087077
 -----------------------------------------------------------------------------------------------
                       Internal Coordinate Forces (Hartree/Bohr or radian)
  Cent   Atom   N1       Length/X         N2         Alpha/Y        N3         Beta/Z          J
 -----------------------------------------------------------------------------------------------
      1  O 
         X        1   0.000000(     1)
      2  Cl       1  -0.006352(     2)      2  -0.000000(     5)
      3  Cl       1  -0.000254(     3)      2  -0.000000(     6)      3   0.003595(     8)     0
      4  H        1   0.038677(     4)      2   0.000000(     7)      3  -0.001267(     9)     0
 -----------------------------------------------------------------------------------------------
 Internal  Forces:  Max     0.038677206 RMS     0.013127041
 Leave Link  716 at Thu Nov  4 23:35:13 2021, MaxMem= 16106127360 cpu:               1.6 elap:               0.1
 (Enter /sw/contrib/gaussian/g16/B01/g16/l103.exe)

 GradGradGradGradGradGradGradGradGradGradGradGradGradGradGradGradGradGrad
 Berny optimization.
 Search for a local minimum.
 Step number   2 out of a maximum of   20
 All quantities printed in internal units (Hartrees-Bohrs-Radians)
 Update second derivatives using D2CorN and points    1    2
 DE= -3.85D-05 DEPred=-4.72D-05 R= 8.15D-01
 TightC=F SS=  1.41D+00  RLast= 5.81D-02 DXNew= 5.0454D-01 1.7430D-01
 Trust test= 8.15D-01 RLast= 5.81D-02 DXMaxT set to 3.00D-01
 The second derivative matrix:
                          r1        r2        r3        a1        OOP
           r1           0.36254
           r2          -0.00125   0.03223
           r3           0.00000   0.00539   0.53659
           a1          -0.00000   0.00154   0.00000   0.41000
           OOP         -0.00000   0.00000   0.00000   0.00000   0.16122
 ITU=  1  0
     Eigenvalues ---    0.032231000.000001000.000001000.000001000.00000
 RFO step:  Lambda= 0.00000000D+00 EMin= 3.22319938D-02
 Quartic linear search produced a step of -0.14350.
 Variable       Old X    -DE/DX   Delta X   Delta X   Delta X     New X
                                 (Linear)    (Quad)   (Total)
    r1        3.20687  -0.00635   0.00000   0.00000   0.00000   3.20687
    r2        5.54714  -0.00025  -0.00834   0.00000  -0.00834   5.53880
    r3        1.83043   0.03868   0.00000   0.00000   0.00000   1.83043
    a1        1.78869   0.00233   0.00000   0.00000   0.00000   1.78869
   OOP        1.57080   0.00000   0.00000   0.00000   0.00000   1.57080
         Item               Value     Threshold  Converged?
 Maximum Force            0.000254     0.000450     YES
 RMS     Force            0.000254     0.000300     YES
 Maximum Displacement     0.008337     0.001800     NO 
 RMS     Displacement     0.003729     0.001200     NO 
 Predicted change in Energy=-9.933064D-07
 Lowest energy point so far.  Saving SCF results.
 GradGradGradGradGradGradGradGradGradGradGradGradGradGradGradGradGradGrad

 Leave Link  103 at Thu Nov  4 23:35:13 2021, MaxMem= 16106127360 cpu:               0.4 elap:               0.0
 (Enter /sw/contrib/gaussian/g16/B01/g16/l202.exe)
 ---------------------------------------------------------------------------------------------------
                            Z-MATRIX (ANGSTROMS AND DEGREES)
   CD    Cent   Atom    N1       Length/X        N2       Alpha/Y        N3        Beta/Z          J
 ---------------------------------------------------------------------------------------------------
      1      1  O 
      2         X        1  10.000000(     1)
      3      2  Cl       1   1.697002(     2)      2   90.000(     5)
      4      3  Cl       1   2.931009(     3)      2   90.000(     6)      3  102.484(     8)      0
      5      4  H        1   0.968623(     4)      2   90.000(     7)      3  102.484(     9)      0
 ---------------------------------------------------------------------------------------------------
                         Z-Matrix orientation:                         
 ---------------------------------------------------------------------
 Center     Atomic      Atomic             Coordinates (Angstroms)
 Number     Number       Type             X           Y           Z
 ---------------------------------------------------------------------
      1          8           0        0.000000    0.000000    0.000000
      2         -1           0        0.000000    0.000000   10.000000
      3         17           0        1.697002    0.000000    0.000000
      4         17           0       -0.633602   -2.861706    0.000000
      5          1           0       -0.209389   -0.945721    0.000000
 ---------------------------------------------------------------------
                    Distance matrix (angstroms):
                    1          2          3          4          5
     1  O    0.000000
     2  X   10.000000   0.000000
     3  Cl   1.697002  10.142969   0.000000
     4  Cl   2.931009  10.420692   3.690674   0.000000
     5  H    0.968623  10.046802   2.128077   1.962386   0.000000
 Stoichiometry    Cl2HO(1-)
 Framework group  CS[SG(Cl2HO)]
 Deg. of freedom     5
 Full point group                 CS      NOp   2
 RotChk:  IX=0 Diff= 3.73D-03
 Largest Abelian subgroup         CS      NOp   2
 Largest concise Abelian subgroup C1      NOp   1
                         Standard orientation:                         
 ---------------------------------------------------------------------
 Center     Atomic      Atomic             Coordinates (Angstroms)
 Number     Number       Type             X           Y           Z
 ---------------------------------------------------------------------
      1          8           0       -0.963500    0.758022   -0.000000
      2         17           0       -1.498594   -0.852409   -0.000000
      3         17           0        1.952006    0.456956    0.000000
      4          1           0       -0.000000    0.658527    0.000000
 ---------------------------------------------------------------------
 Rotational constants (GHZ):          22.7903853           2.0479599           1.8791024
 Leave Link  202 at Thu Nov  4 23:35:13 2021, MaxMem= 16106127360 cpu:               0.4 elap:               0.0
 (Enter /sw/contrib/gaussian/g16/B01/g16/l301.exe)
 Standard basis: Aug-CC-pVTZ (5D, 7F)
 Ernie: Thresh=  0.10000D-02 Tol=  0.10000D-05 Strict=F.
 Ernie:  29 primitive shells out of 169 were deleted.
 There are   135 symmetry adapted cartesian basis functions of A'  symmetry.
 There are    63 symmetry adapted cartesian basis functions of A"  symmetry.
 There are   112 symmetry adapted basis functions of A'  symmetry.
 There are    57 symmetry adapted basis functions of A"  symmetry.
   169 basis functions,   327 primitive gaussians,   198 cartesian basis functions
    22 alpha electrons       22 beta electrons
       nuclear repulsion energy       121.5825549795 Hartrees.
 IExCor=    0 DFT=F Ex=HF Corr=None ExCW=0 ScaHFX=  1.000000
 ScaDFX=  1.000000  1.000000  1.000000  1.000000 ScalE2=  1.000000  1.000000
 IRadAn=      5 IRanWt=     -1 IRanGd=            0 ICorTp=0 IEmpDi=  4
 NAtoms=    4 NActive=    4 NUniq=    4 SFac= 1.00D+00 NAtFMM=   60 NAOKFM=F Big=F
 Integral buffers will be    131072 words long.
 Raffenetti 1 integral format.
 Two-electron integral symmetry is turned on.
 Leave Link  301 at Thu Nov  4 23:35:13 2021, MaxMem= 16106127360 cpu:               1.2 elap:               0.1
 (Enter /sw/contrib/gaussian/g16/B01/g16/l302.exe)
 NPDir=0 NMtPBC=     1 NCelOv=     1 NCel=       1 NClECP=     1 NCelD=      1
         NCelK=      1 NCelE2=     1 NClLst=     1 CellRange=     0.0.
 One-electron integrals computed using PRISM.
 One-electron integral symmetry used in STVInt
 NBasis=   169 RedAO= T EigKep=  2.21D-04  NBF=   112    57
 NBsUse=   169 1.00D-06 EigRej= -1.00D+00 NBFU=   112    57
 Leave Link  302 at Thu Nov  4 23:35:13 2021, MaxMem= 16106127360 cpu:               3.4 elap:               0.1
 (Enter /sw/contrib/gaussian/g16/B01/g16/l303.exe)
 DipDrv:  MaxL=1.
 Leave Link  303 at Thu Nov  4 23:35:13 2021, MaxMem= 16106127360 cpu:               0.7 elap:               0.0
 (Enter /sw/contrib/gaussian/g16/B01/g16/l401.exe)
 Initial guess from the checkpoint file:  "/gscratch/ilahie/mccoygrp/coire_hocl/oop_s_rOH_f/clhocl/clhocl_rOCl_opt.chk"
 B after Tr=    -0.000000    0.000000   -0.000000
         Rot=    0.999999   -0.000000   -0.000000   -0.001504 Ang=  -0.17 deg.
 Guess basis will be translated and rotated to current coordinates.
 JPrj=2 DoOrth=T DoCkMO=T.
 Initial guess orbital symmetries:
       Occupied  (A') (A') (A') (A') (A') (A') (A') (A") (A') (A")
                 (A') (A') (A') (A') (A') (A") (A') (A') (A") (A')
                 (A") (A')
       Virtual   (A') (A') (A') (A") (A') (A') (A") (A') (A') (A")
                 (A') (A') (A') (A') (A") (A') (A') (A") (A") (A')
                 (A') (A') (A") (A') (A') (A") (A') (A') (A") (A')
                 (A') (A") (A') (A') (A") (A') (A") (A') (A') (A")
                 (A') (A") (A') (A') (A') (A") (A') (A') (A") (A")
                 (A') (A') (A') (A") (A") (A') (A') (A") (A') (A")
                 (A') (A") (A') (A') (A') (A") (A') (A") (A') (A")
                 (A') (A') (A') (A") (A') (A') (A') (A") (A') (A')
                 (A") (A') (A") (A') (A") (A') (A') (A") (A') (A')
                 (A") (A') (A") (A') (A") (A') (A") (A') (A') (A")
                 (A") (A') (A') (A") (A') (A') (A") (A') (A') (A")
                 (A") (A') (A') (A") (A') (A') (A") (A') (A') (A')
                 (A') (A") (A") (A') (A") (A') (A') (A') (A') (A")
                 (A') (A') (A') (A') (A") (A') (A") (A') (A") (A")
                 (A') (A') (A") (A') (A') (A') (A')
 The electronic state of the initial guess is 1-A'.
 Leave Link  401 at Thu Nov  4 23:35:13 2021, MaxMem= 16106127360 cpu:               2.6 elap:               0.1
 (Enter /sw/contrib/gaussian/g16/B01/g16/l502.exe)
 Keep R1 ints in memory in symmetry-blocked form, NReq=155449223.
 FoFCou: FMM=F IPFlag=           0 FMFlag=           0 FMFlg1=           0
         NFxFlg=           0 DoJE=F BraDBF=F KetDBF=F FulRan=T
         wScrn=  0.000000 ICntrl=       600 IOpCl=  0 I1Cent=           0 NGrid=           0
         NMat0=    1 NMatS0=  14365 NMatT0=    0 NMatD0=    1 NMtDS0=    0 NMtDT0=    0
 Petite list used in FoFCou.
 Closed shell SCF:
 Using DIIS extrapolation, IDIIS=  1040.
 NGot= 16106127360 LenX= 16053777278 LenY= 16053737633
 Requested convergence on RMS density matrix=1.00D-08 within 128 cycles.
 Requested convergence on MAX density matrix=1.00D-06.
 Requested convergence on             energy=1.00D-06.
 No special actions if energy rises.

 Cycle   1  Pass 1  IDiag  1:
 E= -994.524865746522    
 DIIS: error= 6.12D-05 at cycle   1 NSaved=   1.
 NSaved= 1 IEnMin= 1 EnMin= -994.524865746522     IErMin= 1 ErrMin= 6.12D-05
 ErrMax= 6.12D-05  0.00D+00 EMaxC= 1.00D-01 BMatC= 5.73D-07 BMatP= 5.73D-07
 IDIUse=1 WtCom= 1.00D+00 WtEn= 0.00D+00
 Coeff-Com:  0.100D+01
 Coeff:      0.100D+01
 Gap=     0.352 Goal=   None    Shift=    0.000
 RMSDP=8.34D-06 MaxDP=3.81D-04              OVMax= 3.41D-04

 Cycle   2  Pass 1  IDiag  1:
 E= -994.524866428754     Delta-E=       -0.000000682232 Rises=F Damp=F
 DIIS: error= 1.47D-05 at cycle   2 NSaved=   2.
 NSaved= 2 IEnMin= 2 EnMin= -994.524866428754     IErMin= 2 ErrMin= 1.47D-05
 ErrMax= 1.47D-05  0.00D+00 EMaxC= 1.00D-01 BMatC= 3.78D-08 BMatP= 5.73D-07
 IDIUse=1 WtCom= 1.00D+00 WtEn= 0.00D+00
 Coeff-Com: -0.659D-01 0.107D+01
 Coeff:     -0.659D-01 0.107D+01
 Gap=     0.352 Goal=   None    Shift=    0.000
 RMSDP=1.49D-06 MaxDP=7.44D-05 DE=-6.82D-07 OVMax= 1.11D-04

 Cycle   3  Pass 1  IDiag  1:
 E= -994.524866483884     Delta-E=       -0.000000055130 Rises=F Damp=F
 DIIS: error= 7.19D-06 at cycle   3 NSaved=   3.
 NSaved= 3 IEnMin= 3 EnMin= -994.524866483884     IErMin= 3 ErrMin= 7.19D-06
 ErrMax= 7.19D-06  0.00D+00 EMaxC= 1.00D-01 BMatC= 1.04D-08 BMatP= 3.78D-08
 IDIUse=1 WtCom= 1.00D+00 WtEn= 0.00D+00
 Coeff-Com: -0.713D-01 0.325D+00 0.746D+00
 Coeff:     -0.713D-01 0.325D+00 0.746D+00
 Gap=     0.352 Goal=   None    Shift=    0.000
 RMSDP=4.55D-07 MaxDP=1.56D-05 DE=-5.51D-08 OVMax= 3.62D-05

 Cycle   4  Pass 1  IDiag  1:
 E= -994.524866495255     Delta-E=       -0.000000011371 Rises=F Damp=F
 DIIS: error= 2.54D-06 at cycle   4 NSaved=   4.
 NSaved= 4 IEnMin= 4 EnMin= -994.524866495255     IErMin= 4 ErrMin= 2.54D-06
 ErrMax= 2.54D-06  0.00D+00 EMaxC= 1.00D-01 BMatC= 1.10D-09 BMatP= 1.04D-08
 IDIUse=1 WtCom= 1.00D+00 WtEn= 0.00D+00
 Coeff-Com:  0.551D-02-0.124D+00 0.628D-01 0.106D+01
 Coeff:      0.551D-02-0.124D+00 0.628D-01 0.106D+01
 Gap=     0.352 Goal=   None    Shift=    0.000
 RMSDP=2.99D-07 MaxDP=8.41D-06 DE=-1.14D-08 OVMax= 2.21D-05

 Cycle   5  Pass 1  IDiag  1:
 E= -994.524866497600     Delta-E=       -0.000000002345 Rises=F Damp=F
 DIIS: error= 8.25D-07 at cycle   5 NSaved=   5.
 NSaved= 5 IEnMin= 5 EnMin= -994.524866497600     IErMin= 5 ErrMin= 8.25D-07
 ErrMax= 8.25D-07  0.00D+00 EMaxC= 1.00D-01 BMatC= 9.68D-11 BMatP= 1.10D-09
 IDIUse=1 WtCom= 1.00D+00 WtEn= 0.00D+00
 Coeff-Com:  0.783D-02-0.360D-01-0.843D-01-0.576D-01 0.117D+01
 Coeff:      0.783D-02-0.360D-01-0.843D-01-0.576D-01 0.117D+01
 Gap=     0.352 Goal=   None    Shift=    0.000
 RMSDP=1.26D-07 MaxDP=4.35D-06 DE=-2.35D-09 OVMax= 1.01D-05

 Cycle   6  Pass 1  IDiag  1:
 E= -994.524866497932     Delta-E=       -0.000000000332 Rises=F Damp=F
 DIIS: error= 1.77D-07 at cycle   6 NSaved=   6.
 NSaved= 6 IEnMin= 6 EnMin= -994.524866497932     IErMin= 6 ErrMin= 1.77D-07
 ErrMax= 1.77D-07  0.00D+00 EMaxC= 1.00D-01 BMatC= 8.24D-12 BMatP= 9.68D-11
 IDIUse=1 WtCom= 1.00D+00 WtEn= 0.00D+00
 Coeff-Com: -0.126D-02 0.160D-01 0.604D-02-0.107D+00-0.815D-01 0.117D+01
 Coeff:     -0.126D-02 0.160D-01 0.604D-02-0.107D+00-0.815D-01 0.117D+01
 Gap=     0.352 Goal=   None    Shift=    0.000
 RMSDP=3.46D-08 MaxDP=8.95D-07 DE=-3.32D-10 OVMax= 2.38D-06

 Cycle   7  Pass 1  IDiag  1:
 E= -994.524866497959     Delta-E=       -0.000000000027 Rises=F Damp=F
 DIIS: error= 6.56D-08 at cycle   7 NSaved=   7.
 NSaved= 7 IEnMin= 7 EnMin= -994.524866497959     IErMin= 7 ErrMin= 6.56D-08
 ErrMax= 6.56D-08  0.00D+00 EMaxC= 1.00D-01 BMatC= 4.54D-13 BMatP= 8.24D-12
 IDIUse=1 WtCom= 1.00D+00 WtEn= 0.00D+00
 Coeff-Com: -0.395D-03 0.171D-02 0.500D-02 0.182D-02-0.639D-01-0.413D-01
 Coeff-Com:  0.110D+01
 Coeff:     -0.395D-03 0.171D-02 0.500D-02 0.182D-02-0.639D-01-0.413D-01
 Coeff:      0.110D+01
 Gap=     0.352 Goal=   None    Shift=    0.000
 RMSDP=1.09D-08 MaxDP=3.96D-07 DE=-2.71D-11 OVMax= 7.38D-07

 Cycle   8  Pass 1  IDiag  1:
 E= -994.524866497960     Delta-E=       -0.000000000000 Rises=F Damp=F
 DIIS: error= 2.02D-08 at cycle   8 NSaved=   8.
 NSaved= 8 IEnMin= 8 EnMin= -994.524866497960     IErMin= 8 ErrMin= 2.02D-08
 ErrMax= 2.02D-08  0.00D+00 EMaxC= 1.00D-01 BMatC= 6.61D-14 BMatP= 4.54D-13
 IDIUse=1 WtCom= 1.00D+00 WtEn= 0.00D+00
 Coeff-Com:  0.219D-03-0.215D-02-0.960D-03 0.105D-01 0.203D-01-0.127D+00
 Coeff-Com: -0.945D-01 0.119D+01
 Coeff:      0.219D-03-0.215D-02-0.960D-03 0.105D-01 0.203D-01-0.127D+00
 Coeff:     -0.945D-01 0.119D+01
 Gap=     0.352 Goal=   None    Shift=    0.000
 RMSDP=3.80D-09 MaxDP=1.66D-07 DE=-2.27D-13 OVMax= 2.81D-07

 SCF Done:  E(RHF) =  -994.524866498     A.U. after    8 cycles
            NFock=  8  Conv=0.38D-08     -V/T= 2.0001
 KE= 9.944165698546D+02 PE=-2.620869260739D+03 EE= 5.103452694073D+02
 Leave Link  502 at Thu Nov  4 23:35:15 2021, MaxMem= 16106127360 cpu:              28.3 elap:               1.4
 (Enter /sw/contrib/gaussian/g16/B01/g16/l801.exe)
[...]
     beta-beta   T2 =       0.2907956091D-01 E2=     -0.8378114095D-01
 The integrals were generated   1 times.
 ANorm=    0.1103188724D+01
 E2 =    -0.6651612381D+00 EUMP2 =    -0.99519002773611D+03
 Leave Link  906 at Thu Nov  4 23:35:25 2021, MaxMem= 16106127360 cpu:             286.7 elap:              10.3
 (Enter /sw/contrib/gaussian/g16/B01/g16/l1002.exe)
 Minotr:  Closed shell wavefunction.
          Computing MP2/KS-MP2 derivatives.
          Using Z-Vector for PSCF gradient.
          Skipping F1 and S1 gradient terms here.
          IDoAtm=1111
          Frozen-core window.
          Direct CPHF calculation.
          Differentiating once with respect to electric field.
                with respect to dipole field.
          Differentiating once with respect to nuclear coordinates.
          Using symmetry in CPHF.
          Requested convergence is 1.0D-10 RMS, and 1.0D-09 maximum.
          NewPWx=F KeepS1=T KeepF1=T KeepIn=T MapXYZ=F SortEE=F KeepMc=T.
 Keep R1 ints in memory in symmetry-blocked form, NReq=155450263.
 FoFCou: FMM=F IPFlag=           0 FMFlag=           0 FMFlg1=           0
         NFxFlg=           0 DoJE=F BraDBF=F KetDBF=F FulRan=T
         wScrn=  0.000000 ICntrl=       600 IOpCl=  0 I1Cent=           0 NGrid=           0
         NMat0=    1 NMatS0=  14365 NMatT0=    0 NMatD0=    1 NMtDS0=    0 NMtDT0=    0
 Petite list used in FoFCou.
          MDV=   16106127360 using IRadAn=       5.
          Solving linear equations separately, MaxMat=       0.
          There are     1 degrees of freedom in the 1st order CPHF.  IDoFFX=0 NUNeed=     1.
 LinEq1:  Iter=  0 NonCon=     1 RMS=3.04D-03 Max=4.75D-02 NDo=     1
 AX will form     1 AO Fock derivatives at one time.
 LinEq1:  Iter=  1 NonCon=     1 RMS=3.82D-04 Max=5.17D-03 NDo=     1
 LinEq1:  Iter=  2 NonCon=     1 RMS=1.68D-04 Max=3.77D-03 NDo=     1
 LinEq1:  Iter=  3 NonCon=     1 RMS=6.50D-05 Max=1.12D-03 NDo=     1
 LinEq1:  Iter=  4 NonCon=     1 RMS=2.63D-05 Max=6.71D-04 NDo=     1
 LinEq1:  Iter=  5 NonCon=     1 RMS=5.68D-06 Max=7.35D-05 NDo=     1
 LinEq1:  Iter=  6 NonCon=     1 RMS=1.49D-06 Max=1.68D-05 NDo=     1
 LinEq1:  Iter=  7 NonCon=     1 RMS=3.02D-07 Max=3.57D-06 NDo=     1
 LinEq1:  Iter=  8 NonCon=     1 RMS=4.98D-08 Max=7.42D-07 NDo=     1
 LinEq1:  Iter=  9 NonCon=     1 RMS=1.02D-08 Max=1.24D-07 NDo=     1
 LinEq1:  Iter= 10 NonCon=     1 RMS=2.67D-09 Max=3.85D-08 NDo=     1
 LinEq1:  Iter= 11 NonCon=     1 RMS=8.38D-10 Max=1.67D-08 NDo=     1
 LinEq1:  Iter= 12 NonCon=     1 RMS=1.97D-10 Max=4.10D-09 NDo=     1
 LinEq1:  Iter= 13 NonCon=     0 RMS=4.63D-11 Max=8.97D-10 NDo=     1
 Linear equations converged to 1.000D-10 1.000D-09 after    13 iterations.
 End of Minotr F.D. properties file   721 does not exist.
 End of Minotr F.D. properties file   722 does not exist.
 End of Minotr F.D. properties file   788 does not exist.
 Leave Link 1002 at Thu Nov  4 23:35:27 2021, MaxMem= 16106127360 cpu:              34.0 elap:               2.0
 (Enter /sw/contrib/gaussian/g16/B01/g16/l701.exe)
 ... and contract with generalized density number  2.
 Compute integral first derivatives.
 Leave Link  701 at Thu Nov  4 23:35:27 2021, MaxMem= 16106127360 cpu:               6.6 elap:               0.3
 (Enter /sw/contrib/gaussian/g16/B01/g16/l702.exe)
 L702 exits ... SP integral derivatives will be done elsewhere.
 Leave Link  702 at Thu Nov  4 23:35:27 2021, MaxMem= 16106127360 cpu:               0.6 elap:               0.0
 (Enter /sw/contrib/gaussian/g16/B01/g16/l703.exe)
 Integral derivatives from FoFJK, PRISM(SPDF).
 Compute integral first derivatives, UseDBF=F ICtDFT=           0.
 Calling FoFJK, ICntrl=  10002127 FMM=F ISym2X=1 I1Cent= 0 IOpClX= 0 NMat=1 NMatS=1 NMatT=0.
 FoFJK:  IHMeth= 1 ICntrl=10002127 DoSepK=F KAlg= 0 I1Cent=           0 FoldK=F
 IRaf=         0 NMat=       1 IRICut=       1 DoRegI=T DoRafI=F ISym2E= 1 IDoP0=0 IntGTp=1.
 FoFCou: FMM=F IPFlag=           0 FMFlag=      100000 FMFlg1=         800
         NFxFlg=           0 DoJE=F BraDBF=F KetDBF=F FulRan=T
         wScrn=  0.000000 ICntrl=  10002127 IOpCl=  0 I1Cent=           0 NGrid=           0
         NMat0=    1 NMatS0=      1 NMatT0=    0 NMatD0=    1 NMtDS0=    0 NMtDT0=    0
 Petite list used in FoFCou.
 Leave Link  703 at Thu Nov  4 23:35:29 2021, MaxMem= 16106127360 cpu:              40.0 elap:               1.5
 (Enter /sw/contrib/gaussian/g16/B01/g16/l716.exe)
 Dipole        =-2.11438018D+00-7.64542440D-01-1.57815331D-32
 ***** Axes restored to original set *****
 -------------------------------------------------------------------
 Center     Atomic                   Forces (Hartrees/Bohr)
 Number     Number              X              Y              Z
 -------------------------------------------------------------------
      1        8           0.014710124    0.037130062    0.000000000
      2       17          -0.006373010    0.000733485   -0.000000000
      3       17          -0.000641028    0.000141834   -0.000000000
      4        1          -0.007696086   -0.038005382   -0.000000000
 -------------------------------------------------------------------
 Cartesian Forces:  Max     0.038005382 RMS     0.016176764
 -----------------------------------------------------------------------------------------------
                       Internal Coordinate Forces (Hartree/Bohr or radian)
  Cent   Atom   N1       Length/X         N2         Alpha/Y        N3         Beta/Z          J
 -----------------------------------------------------------------------------------------------
      1  O 
         X        1   0.000000(     1)
      2  Cl       1  -0.006373(     2)      2  -0.000000(     5)
      3  Cl       1   0.000000(     3)      2   0.000000(     6)      3   0.003636(     8)     0
      4  H        1   0.038770(     4)      2   0.000000(     7)      3  -0.001284(     9)     0
 -----------------------------------------------------------------------------------------------
 Internal  Forces:  Max     0.038770434 RMS     0.013159848
 Leave Link  716 at Thu Nov  4 23:35:29 2021, MaxMem= 16106127360 cpu:               0.8 elap:               0.1
 (Enter /sw/contrib/gaussian/g16/B01/g16/l103.exe)

 GradGradGradGradGradGradGradGradGradGradGradGradGradGradGradGradGradGrad
 Berny optimization.
 Search for a local minimum.
 Step number   3 out of a maximum of   20
 All quantities printed in internal units (Hartrees-Bohrs-Radians)
 Update second derivatives using D2CorN and points    2    3
 DE= -1.06D-06 DEPred=-9.93D-07 R= 1.07D+00
 TightC=F SS=  1.41D+00  RLast= 8.34D-03 DXNew= 5.0454D-01 2.5012D-02
 Trust test= 1.07D+00 RLast= 8.34D-03 DXMaxT set to 3.00D-01
 The second derivative matrix:
                          r1        r2        r3        a1        OOP
           r1           0.36254
           r2          -0.00186   0.03042
           r3           0.00000   0.00829   0.53659
           a1          -0.00000   0.00222   0.00000   0.41000
           OOP         -0.00000   0.00000   0.00000   0.00000   0.16122
 ITU=  1  1  0
     Eigenvalues ---    0.030421000.000001000.000001000.000001000.00000
 RFO step:  Lambda= 0.00000000D+00 EMin= 3.04163109D-02
 Quartic linear search produced a step of -0.00035.
 Variable       Old X    -DE/DX   Delta X   Delta X   Delta X     New X
                                 (Linear)    (Quad)   (Total)
    r1        3.20687  -0.00637   0.00000   0.00000   0.00000   3.20687
    r2        5.53880   0.00000   0.00000   0.00000   0.00000   5.53881
    r3        1.83043   0.03877   0.00000   0.00000   0.00000   1.83043
    a1        1.78869   0.00235   0.00000   0.00000   0.00000   1.78869
   OOP        1.57080   0.00000   0.00000   0.00000   0.00000   1.57080
         Item               Value     Threshold  Converged?
 Maximum Force            0.000000     0.000450     YES
 RMS     Force            0.000000     0.000300     YES
 Maximum Displacement     0.000003     0.001800     YES
 RMS     Displacement     0.000001     0.001200     YES
 Predicted change in Energy=-1.374837D-13
 Optimization completed.
    -- Stationary point found.
                       ----------------------------
                       !   Optimized Parameters   !
                       ! (Angstroms and Degrees)  !
 ----------------------                            ----------------------
 !      Name          Value   Derivative information (Atomic Units)     !
 ------------------------------------------------------------------------
 !       r1          1.697    -DE/DX =   -0.0064                        !
 !       r2          2.931    -DE/DX =    0.0                           !
 !       r3          0.9686   -DE/DX =    0.0388                        !
 !       a1        102.4843   -DE/DX =    0.0024                        !
 !       OOP        90.0      -DE/DX =    0.0                           !
 ------------------------------------------------------------------------
 Lowest energy point so far.  Saving SCF results.
 Largest change from initial coordinates is atom    3       0.001 Angstoms.
 GradGradGradGradGradGradGradGradGradGradGradGradGradGradGradGradGradGrad

 Leave Link  103 at Thu Nov  4 23:35:29 2021, MaxMem= 16106127360 cpu:               1.4 elap:               0.1
 (Enter /sw/contrib/gaussian/g16/B01/g16/l202.exe)
 ---------------------------------------------------------------------------------------------------
                            Z-MATRIX (ANGSTROMS AND DEGREES)
   CD    Cent   Atom    N1       Length/X        N2       Alpha/Y        N3        Beta/Z          J
 ---------------------------------------------------------------------------------------------------
      1      1  O 
      2         X        1  10.000000(     1)
      3      2  Cl       1   1.697002(     2)      2   90.000(     5)
      4      3  Cl       1   2.931009(     3)      2   90.000(     6)      3  102.484(     8)      0
      5      4  H        1   0.968623(     4)      2   90.000(     7)      3  102.484(     9)      0
 ---------------------------------------------------------------------------------------------------
                         Z-Matrix orientation:                         
 ---------------------------------------------------------------------
 Center     Atomic      Atomic             Coordinates (Angstroms)
 Number     Number       Type             X           Y           Z
 ---------------------------------------------------------------------
      1          8           0        0.000000    0.000000    0.000000
      2         -1           0        0.000000    0.000000   10.000000
      3         17           0        1.697002    0.000000    0.000000
      4         17           0       -0.633602   -2.861706    0.000000
      5          1           0       -0.209389   -0.945721    0.000000
 ---------------------------------------------------------------------
                    Distance matrix (angstroms):
                    1          2          3          4          5
     1  O    0.000000
     2  X   10.000000   0.000000
     3  Cl   1.697002  10.142969   0.000000
     4  Cl   2.931009  10.420692   3.690674   0.000000
     5  H    0.968623  10.046802   2.128077   1.962386   0.000000
 Stoichiometry    Cl2HO(1-)
 Framework group  CS[SG(Cl2HO)]
 Deg. of freedom     5
 Full point group                 CS      NOp   2
 RotChk:  IX=0 Diff= 2.23D-16
 Largest Abelian subgroup         CS      NOp   2
 Largest concise Abelian subgroup C1      NOp   1
                         Standard orientation:                         
 ---------------------------------------------------------------------
 Center     Atomic      Atomic             Coordinates (Angstroms)
 Number     Number       Type             X           Y           Z
 ---------------------------------------------------------------------
      1          8           0       -0.963500    0.758022   -0.000000
      2         17           0       -1.498594   -0.852409   -0.000000
      3         17           0        1.952006    0.456956    0.000000
      4          1           0       -0.000000    0.658527    0.000000
 ---------------------------------------------------------------------
 Rotational constants (GHZ):          22.7903853           2.0479599           1.8791024
 Leave Link  202 at Thu Nov  4 23:35:29 2021, MaxMem= 16106127360 cpu:               1.1 elap:               0.1
 (Enter /sw/contrib/gaussian/g16/B01/g16/l601.exe)
 Copying SCF densities to generalized density rwf, IOpCl= 0 IROHF=0.

 **********************************************************************

            Population analysis using the MP2 Density.

 **********************************************************************

 Orbital symmetries:
       Occupied  (A') (A') (A') (A') (A') (A') (A') (A") (A') (A")
                 (A') (A') (A') (A') (A') (A") (A') (A') (A") (A')
                 (A") (A')
       Virtual   (A') (A') (A') (A") (A') (A') (A") (A') (A') (A")
                 (A') (A') (A') (A') (A") (A') (A') (A") (A") (A')
                 (A') (A') (A") (A') (A') (A") (A') (A') (A") (A')
                 (A') (A") (A') (A') (A") (A') (A") (A') (A') (A")
                 (A') (A") (A') (A') (A') (A") (A') (A') (A") (A")
                 (A') (A') (A') (A") (A") (A') (A') (A") (A') (A")
                 (A') (A") (A') (A') (A') (A") (A') (A") (A') (A")
                 (A') (A') (A') (A") (A') (A') (A') (A") (A') (A')
                 (A") (A') (A") (A') (A") (A') (A') (A") (A') (A')
                 (A") (A') (A") (A') (A") (A') (A") (A') (A') (A")
                 (A") (A') (A') (A") (A') (A') (A") (A') (A') (A")
                 (A") (A') (A') (A") (A') (A') (A") (A') (A') (A')
                 (A') (A") (A") (A') (A") (A') (A') (A') (A') (A")
                 (A') (A') (A') (A') (A") (A') (A") (A') (A") (A")
                 (A') (A') (A") (A') (A') (A') (A')
 The electronic state is 1-A'.
 Alpha  occ. eigenvalues -- -104.72898-104.54325 -20.45695 -10.44837 -10.26804
 Alpha  occ. eigenvalues --   -7.91551  -7.91290  -7.91281  -7.73419  -7.73406
 Alpha  occ. eigenvalues --   -7.73405  -1.23041  -0.89707  -0.78180  -0.54446
 Alpha  occ. eigenvalues --   -0.43828  -0.42939  -0.30775  -0.28029  -0.19997
 Alpha  occ. eigenvalues --   -0.19130  -0.19126
 Alpha virt. eigenvalues --    0.16029   0.18396   0.22558   0.23424   0.25950
 Alpha virt. eigenvalues --    0.27407   0.27644   0.28735   0.30835   0.32349
 Alpha virt. eigenvalues --    0.33510   0.34957   0.38831   0.44675   0.46101
 Alpha virt. eigenvalues --    0.51574   0.52353   0.53829   0.56457   0.57102
 Alpha virt. eigenvalues --    0.59169   0.60031   0.60035   0.65226   0.66023
 Alpha virt. eigenvalues --    0.68364   0.68478   0.74791   0.78229   0.79333
 Alpha virt. eigenvalues --    0.83192   0.88370   0.88493   0.89906   0.90465
 Alpha virt. eigenvalues --    0.92367   0.96304   0.99928   1.05164   1.05623
 Alpha virt. eigenvalues --    1.07650   1.08570   1.09400   1.10118   1.14192
 Alpha virt. eigenvalues --    1.14333   1.16709   1.18795   1.19083   1.20760
 Alpha virt. eigenvalues --    1.22208   1.24325   1.28874   1.31624   1.32308
 Alpha virt. eigenvalues --    1.37209   1.40531   1.42969   1.43356   1.47092
 Alpha virt. eigenvalues --    1.47544   1.49611   1.54867   1.60710   1.64632
 Alpha virt. eigenvalues --    1.66994   1.68987   1.71632   1.73294   1.80464
 Alpha virt. eigenvalues --    1.80941   1.82824   1.84522   1.90954   1.95106
 Alpha virt. eigenvalues --    1.99850   2.27879   2.38627   2.50862   2.53112
 Alpha virt. eigenvalues --    2.53805   2.57529   2.59556   2.62639   2.68745
 Alpha virt. eigenvalues --    2.68920   2.70095   2.72137   2.74247   2.75742
 Alpha virt. eigenvalues --    2.76656   2.78592   2.80366   2.82550   2.90270
 Alpha virt. eigenvalues --    2.92678   2.98377   2.98915   3.06081   3.08328
 Alpha virt. eigenvalues --    3.11395   3.15029   3.18864   3.22016   3.22232
 Alpha virt. eigenvalues --    3.26830   3.30360   3.31402   3.33808   3.34208
 Alpha virt. eigenvalues --    3.40150   3.41399   3.43353   3.48806   3.51941
 Alpha virt. eigenvalues --    3.53016   3.54674   3.58957   3.68909   3.97637
 Alpha virt. eigenvalues --    4.27929   4.35347   4.48395   4.59495   4.61500
 Alpha virt. eigenvalues --    4.80926   5.01879   5.20330   5.50139   5.52966
 Alpha virt. eigenvalues --    5.75325   6.26886   6.54106   6.66677   6.86705
 Alpha virt. eigenvalues --    6.91260   6.91747   7.01333   7.33896   7.38568
 Alpha virt. eigenvalues --    7.42913   7.46383   7.54813   7.82638   7.84650
 Alpha virt. eigenvalues --    8.44787  15.54513
          Condensed to atoms (all electrons):
               1          2          3          4
     1  O    8.604820  -0.103987  -0.085971   0.048652
     2  Cl  -0.103987  17.054351   0.001401  -0.000940
     3  Cl  -0.085971   0.001401  17.883954   0.065554
     4  H    0.048652  -0.000940   0.065554   0.607456
 Mulliken charges:
               1
     1  O   -0.463514
     2  Cl   0.049174
     3  Cl  -0.864939
     4  H    0.279279
 Sum of Mulliken charges =  -1.00000
 Mulliken charges with hydrogens summed into heavy atoms:
               1
     1  O   -0.184235
     2  Cl   0.049174
     3  Cl  -0.864939
 Electronic spatial extent (au):  <R**2>=            564.8114
 Charge=             -1.0000 electrons
 Dipole moment (field-independent basis, Debye):
    X=             -5.3742    Y=             -1.9433    Z=             -0.0000  Tot=              5.7148
 Quadrupole moment (field-independent basis, Debye-Ang):
   XX=            -55.0227   YY=            -37.2451   ZZ=            -36.7000
   XY=             -2.7296   XZ=             -0.0000   YZ=             -0.0000
 Traceless Quadrupole moment (field-independent basis, Debye-Ang):
   XX=            -12.0334   YY=              5.7442   ZZ=              6.2892
   XY=             -2.7296   XZ=             -0.0000   YZ=             -0.0000
 Octapole moment (field-independent basis, Debye-Ang**2):
  XXX=            -43.8965  YYY=             -6.2741  ZZZ=             -0.0000  XYY=             -8.4601
  XXY=             -9.3663  XXZ=             -0.0000  XZZ=             -6.0513  YZZ=             -0.8642
  YYZ=             -0.0000  XYZ=             -0.0000
 Hexadecapole moment (field-independent basis, Debye-Ang**3):
 XXXX=           -700.0553 YYYY=           -141.7872 ZZZZ=            -49.9563 XXXY=            -96.1106
 XXXZ=             -0.0000 YYYX=            -76.5859 YYYZ=             -0.0000 ZZZX=             -0.0000
 ZZZY=             -0.0000 XXYY=           -133.3816 XXZZ=           -116.4892 YYZZ=            -34.2648
 XXYZ=             -0.0000 YYXZ=             -0.0000 ZZXY=            -28.2402
 N-N= 1.215825549795D+02 E-N=-2.620928822163D+03  KE= 9.950700872207D+02
 Symmetry A'   KE= 8.990636130778D+02
 Symmetry A"   KE= 9.600647414295D+01
 No NMR shielding tensors so no spin-rotation constants.
 Leave Link  601 at Thu Nov  4 23:35:29 2021, MaxMem= 16106127360 cpu:               3.3 elap:               0.2
 (Enter /sw/contrib/gaussian/g16/B01/g16/l9999.exe)
 1\1\GINC-N2209\POpt\RMP2-FC\Aug-CC-pVTZ\Cl2H1O1(1-)\CGAVINH\04-Nov-202
 1\1\\#p opt=(z-matrix) mp2/aug-cc-pvtz density=current\\title\\-1,1\O\
 X,1,10.\Cl,1,r1,2,90.\Cl,1,r2,2,90.,3,a1,0\H,1,r3,2,OOP,3,a1,0\\r2=2.9
 3100907\r1=1.69700154\r3=0.96862334\a1=102.48429983\OOP=90.\\Version=E
 S64L-G16RevB.01\State=1-A'\HF=-994.5248665\MP2=-995.1900277\RMSD=3.803
 e-09\RMSF=1.618e-02\Dipole=-2.1143802,-0.7645424,0.\Quadrupole=-8.9465
 485,4.270653,4.6758955,-2.0294023,0.,0.\PG=CS [SG(Cl2H1O1)]\\@


 A true friend is someone who is there for
 you when he'd rather be anywhere else.
                               -- Len Wein
 Job cpu time:       0 days  0 hours 21 minutes 17.5 seconds.
 Elapsed time:       0 days  0 hours  0 minutes 51.3 seconds.
 File lengths (MBytes):  RWF=     19 Int=      0 D2E=      0 Chk=      8 Scr=      1
 Normal termination of Gaussian 16 at Thu Nov  4 23:35:29 2021.
