 Entering Gaussian System, Link 0=g16
 Input=clhocl_oop_45_sp.gjf
 Output=clhocl_oop_45_sp.log
 Initial command:
 /sw/contrib/gaussian/g16/B01/g16/l1.exe "/scr/Gau-24256.inp" -scrdir="/scr/"
 Entering Link 1 = /sw/contrib/gaussian/g16/B01/g16/l1.exe PID=     24257.
  
 Copyright (c) 1988-2017, Gaussian, Inc.  All Rights Reserved.
  
 This is part of the Gaussian(R) 16 program.  It is based on
 the Gaussian(R) 09 system (copyright 2009, Gaussian, Inc.),
 the Gaussian(R) 03 system (copyright 2003, Gaussian, Inc.),
 the Gaussian(R) 98 system (copyright 1998, Gaussian, Inc.),
 the Gaussian(R) 94 system (copyright 1995, Gaussian, Inc.),
 the Gaussian 92(TM) system (copyright 1992, Gaussian, Inc.),
 the Gaussian 90(TM) system (copyright 1990, Gaussian, Inc.),
 the Gaussian 88(TM) system (copyright 1988, Gaussian, Inc.),
 the Gaussian 86(TM) system (copyright 1986, Carnegie Mellon
 University), and the Gaussian 82(TM) system (copyright 1983,
 Carnegie Mellon University). Gaussian is a federally registered
 trademark of Gaussian, Inc.
  
 This software contains proprietary and confidential information,
 including trade secrets, belonging to Gaussian, Inc.
  
 This software is provided under written license and may be
 used, copied, transmitted, or stored only in accord with that
 written license.
  
 The following legend is applicable only to US Government
 contracts under FAR:
  
                    RESTRICTED RIGHTS LEGEND
  
 Use, reproduction and disclosure by the US Government is
 subject to restrictions as set forth in subparagraphs (a)
 and (c) of the Commercial Computer Software - Restricted
 Rights clause in FAR 52.227-19.
  
 Gaussian, Inc.
 340 Quinnipiac St., Bldg. 40, Wallingford CT 06492
  
  
 ---------------------------------------------------------------
 Warning -- This program may not be used in any manner that
 competes with the business of Gaussian, Inc. or will provide
 assistance to any competitor of Gaussian, Inc.  The licensee
 of this program is prohibited from giving any competitor of
 Gaussian, Inc. access to this program.  By using this program,
 the user acknowledges that Gaussian, Inc. is engaged in the
 business of creating and licensing software in the field of
 computational chemistry and represents and warrants to the
 licensee that it is not a competitor of Gaussian, Inc. and that
 it will not use this program in any manner prohibited above.
 ---------------------------------------------------------------
  

 Cite this work as:
 Gaussian 16, Revision B.01,
 M. J. Frisch, G. W. Trucks, H. B. Schlegel, G. E. Scuseria, 
 M. A. Robb, J. R. Cheeseman, G. Scalmani, V. Barone, 
 G. A. Petersson, H. Nakatsuji, X. Li, M. Caricato, A. V. Marenich, 
 J. Bloino, B. G. Janesko, R. Gomperts, B. Mennucci, H. P. Hratchian, 
 J. V. Ortiz, A. F. Izmaylov, J. L. Sonnenberg, D. Williams-Young, 
 F. Ding, F. Lipparini, F. Egidi, J. Goings, B. Peng, A. Petrone, 
 T. Henderson, D. Ranasinghe, V. G. Zakrzewski, J. Gao, N. Rega, 
 G. Zheng, W. Liang, M. Hada, M. Ehara, K. Toyota, R. Fukuda, 
 J. Hasegawa, M. Ishida, T. Nakajima, Y. Honda, O. Kitao, H. Nakai, 
 T. Vreven, K. Throssell, J. A. Montgomery, Jr., J. E. Peralta, 
 F. Ogliaro, M. J. Bearpark, J. J. Heyd, E. N. Brothers, K. N. Kudin, 
 V. N. Staroverov, T. A. Keith, R. Kobayashi, J. Normand, 
 K. Raghavachari, A. P. Rendell, J. C. Burant, S. S. Iyengar, 
 J. Tomasi, M. Cossi, J. M. Millam, M. Klene, C. Adamo, R. Cammi, 
 J. W. Ochterski, R. L. Martin, K. Morokuma, O. Farkas, 
 J. B. Foresman, and D. J. Fox, Gaussian, Inc., Wallingford CT, 2016.
 
 ******************************************
 Gaussian 16:  ES64L-G16RevB.01 20-Dec-2017
                 5-Nov-2021 
 ******************************************
 %nproc=28
 Will use up to   28 processors via shared memory.
 %mem=120GB
 %chk=/gscratch/ilahie/mccoygrp/coire_hocl/oop_s_rOH_f/clhocl/clhocl_oop_0_sp.chk
 ----------------------------------------------------
 #p pop=NBO SP NoSymm mp2/aug-cc-pvtz density=current
 ----------------------------------------------------
 1/30=1,38=1,172=1/1;
 2/12=2,15=1,17=6,18=5,40=1/2;
 3/5=16,6=1,7=10,11=9,25=1,30=1,71=1/1,2,3;
 4//1;
 5/5=2,38=5/2;
 8/6=4,10=1/1;
 9/15=1,16=-3/6;
 10/5=1,13=10,31=1/2;
 6/7=2,8=2,9=2,10=2,22=-1,40=1/1,7;
 99/5=1,9=1/99;
 Leave Link    1 at Fri Nov  5 15:25:43 2021, MaxMem= 16106127360 cpu:               0.9 elap:               0.0
 (Enter /sw/contrib/gaussian/g16/B01/g16/l101.exe)
 -----
 title
 -----
 Symbolic Z-matrix:
 Charge = -1 Multiplicity = 1
 O
 X                    1     10. 
 Cl                   1    r1       2     90. 
 Cl                   1    r2       2     90.      3    a1       0
 H                    1    r3       2    oop      3    a1       0
       Variables:
  r1                    1.697                    
  r2                    2.93101                  
  r3                    0.96862                  
  a1                  102.4843                   
  OOP                  45.                       
 
 ITRead=  0  0  0  0
 MicOpt= -1 -1 -1 -1
 NAtoms=      4 NQM=        4 NQMF=       0 NMMI=      0 NMMIF=      0
                NMic=       0 NMicF=      0.
                    Isotopes and Nuclear Properties:
 (Nuclear quadrupole moments (NQMom) in fm**2, nuclear magnetic moments (NMagM)
  in nuclear magnetons)

  Atom         1           2           3           4
 IAtWgt=          16          35          35           1
 AtmWgt=  15.9949146  34.9688527  34.9688527   1.0078250
 NucSpn=           0           3           3           1
 AtZEff=  -0.0000000  -0.0000000  -0.0000000  -0.0000000
 NQMom=    0.0000000  -8.1650000  -8.1650000   0.0000000
 NMagM=    0.0000000   0.8218740   0.8218740   2.7928460
 AtZNuc=   8.0000000  17.0000000  17.0000000   1.0000000
 Leave Link  101 at Fri Nov  5 15:25:44 2021, MaxMem= 16106127360 cpu:               2.1 elap:               0.1
 (Enter /sw/contrib/gaussian/g16/B01/g16/l202.exe)
                          Input orientation:                          
 ---------------------------------------------------------------------
 Center     Atomic      Atomic             Coordinates (Angstroms)
 Number     Number       Type             X           Y           Z
 ---------------------------------------------------------------------
      1          8           0        0.000000    0.000000    0.000000
      2         17           0        1.697002    0.000000    0.000000
      3         17           0       -0.633602   -2.861706    0.000000
      4          1           0       -0.148061   -0.668725    0.684920
 ---------------------------------------------------------------------
                    Distance matrix (angstroms):
                    1          2          3          4
     1  O    0.000000
     2  Cl   1.697002   0.000000
     3  Cl   2.931009   3.690674   0.000000
     4  H    0.968623   2.078597   2.348197   0.000000
 Symmetry turned off by external request.
 Stoichiometry    Cl2HO(1-)
 Framework group  C1[X(Cl2HO)]
 Deg. of freedom     6
 Full point group                 C1      NOp   1
 Rotational constants (GHZ):          22.1657283           2.0444816           1.8781611
 Leave Link  202 at Fri Nov  5 15:25:44 2021, MaxMem= 16106127360 cpu:               2.6 elap:               0.1
 (Enter /sw/contrib/gaussian/g16/B01/g16/l301.exe)
 Standard basis: Aug-CC-pVTZ (5D, 7F)
 Ernie: Thresh=  0.10000D-02 Tol=  0.10000D-05 Strict=F.
 Ernie:  29 primitive shells out of 169 were deleted.
   169 basis functions,   327 primitive gaussians,   198 cartesian basis functions
    22 alpha electrons       22 beta electrons
       nuclear repulsion energy       120.9299921077 Hartrees.
 IExCor=    0 DFT=F Ex=HF Corr=None ExCW=0 ScaHFX=  1.000000
 ScaDFX=  1.000000  1.000000  1.000000  1.000000 ScalE2=  1.000000  1.000000
 IRadAn=      5 IRanWt=     -1 IRanGd=            0 ICorTp=0 IEmpDi=  4
 NAtoms=    4 NActive=    4 NUniq=    4 SFac= 1.00D+00 NAtFMM=   60 NAOKFM=F Big=F
 Integral buffers will be    131072 words long.
 Raffenetti 1 integral format.
 Two-electron integral symmetry is turned off.
 Leave Link  301 at Fri Nov  5 15:25:44 2021, MaxMem= 16106127360 cpu:               2.0 elap:               0.1
 (Enter /sw/contrib/gaussian/g16/B01/g16/l302.exe)
 NPDir=0 NMtPBC=     1 NCelOv=     1 NCel=       1 NClECP=     1 NCelD=      1
         NCelK=      1 NCelE2=     1 NClLst=     1 CellRange=     0.0.
 One-electron integrals computed using PRISM.
 NBasis=   169 RedAO= T EigKep=  2.92D-04  NBF=   169
 NBsUse=   169 1.00D-06 EigRej= -1.00D+00 NBFU=   169
 Leave Link  302 at Fri Nov  5 15:25:44 2021, MaxMem= 16106127360 cpu:               7.0 elap:               0.3
 (Enter /sw/contrib/gaussian/g16/B01/g16/l303.exe)
 DipDrv:  MaxL=1.
 Leave Link  303 at Fri Nov  5 15:25:44 2021, MaxMem= 16106127360 cpu:               0.8 elap:               0.1
 (Enter /sw/contrib/gaussian/g16/B01/g16/l401.exe)
 ExpMin= 2.53D-02 ExpMax= 4.56D+05 ExpMxC= 1.44D+03 IAcc=3 IRadAn=         5 AccDes= 0.00D+00
 Harris functional with IExCor=  205 and IRadAn=       5 diagonalized for initial guess.
 HarFok:  IExCor=  205 AccDes= 0.00D+00 IRadAn=         5 IDoV= 1 UseB2=F ITyADJ=14
 ICtDFT=  3500011 ScaDFX=  1.000000  1.000000  1.000000  1.000000
 FoFCou: FMM=F IPFlag=           0 FMFlag=      100000 FMFlg1=           0
         NFxFlg=           0 DoJE=T BraDBF=F KetDBF=T FulRan=T
         wScrn=  0.000000 ICntrl=       500 IOpCl=  0 I1Cent=   200000004 NGrid=           0
         NMat0=    1 NMatS0=      1 NMatT0=    0 NMatD0=    1 NMtDS0=    0 NMtDT0=    0
 Symmetry not used in FoFCou.
 Harris En= -993.810465301585    
 JPrj=0 DoOrth=F DoCkMO=F.
 Leave Link  401 at Fri Nov  5 15:25:44 2021, MaxMem= 16106127360 cpu:               6.6 elap:               0.3
 (Enter /sw/contrib/gaussian/g16/B01/g16/l502.exe)
 Keep R1 ints in memory in canonical form, NReq=117118909.
 FoFCou: FMM=F IPFlag=           0 FMFlag=           0 FMFlg1=           0
         NFxFlg=           0 DoJE=F BraDBF=F KetDBF=F FulRan=T
         wScrn=  0.000000 ICntrl=       600 IOpCl=  0 I1Cent=           0 NGrid=           0
         NMat0=    1 NMatS0=  14365 NMatT0=    0 NMatD0=    1 NMtDS0=    0 NMtDT0=    0
 Symmetry not used in FoFCou.
 Two-electron integral symmetry not used.
 Closed shell SCF:
 Using DIIS extrapolation, IDIIS=  1040.
 NGot= 16106127360 LenX= 16002858349 LenY= 16002818704
 Requested convergence on RMS density matrix=1.00D-08 within 128 cycles.
 Requested convergence on MAX density matrix=1.00D-06.
 Requested convergence on             energy=1.00D-06.
 No special actions if energy rises.

 Cycle   1  Pass 1  IDiag  1:
 E= -994.371122198601    
 DIIS: error= 3.01D-02 at cycle   1 NSaved=   1.
 NSaved= 1 IEnMin= 1 EnMin= -994.371122198601     IErMin= 1 ErrMin= 3.01D-02
 ErrMax= 3.01D-02  0.00D+00 EMaxC= 1.00D-01 BMatC= 4.25D-01 BMatP= 4.25D-01
 IDIUse=3 WtCom= 6.99D-01 WtEn= 3.01D-01
 Coeff-Com:  0.100D+01
 Coeff-En:   0.100D+01
 Coeff:      0.100D+01
 Gap=     0.538 Goal=   None    Shift=    0.000
 GapD=    0.538 DampG=2.000 DampE=0.500 DampFc=1.0000 IDamp=-1.
 RMSDP=2.15D-03 MaxDP=7.10D-02              OVMax= 1.26D-01

 Cycle   2  Pass 1  IDiag  1:
 E= -994.470552879674     Delta-E=       -0.099430681073 Rises=F Damp=F
 DIIS: error= 1.38D-02 at cycle   2 NSaved=   2.
 NSaved= 2 IEnMin= 2 EnMin= -994.470552879674     IErMin= 2 ErrMin= 1.38D-02
 ErrMax= 1.38D-02  0.00D+00 EMaxC= 1.00D-01 BMatC= 5.11D-02 BMatP= 4.25D-01
 IDIUse=3 WtCom= 8.62D-01 WtEn= 1.38D-01
 Coeff-Com:  0.172D+00 0.828D+00
 Coeff-En:   0.000D+00 0.100D+01
 Coeff:      0.148D+00 0.852D+00
 Gap=     0.343 Goal=   None    Shift=    0.000
 RMSDP=1.01D-03 MaxDP=4.12D-02 DE=-9.94D-02 OVMax= 7.98D-02

 Cycle   3  Pass 1  IDiag  1:
 E= -994.497379660911     Delta-E=       -0.026826781237 Rises=F Damp=F
 DIIS: error= 6.87D-03 at cycle   3 NSaved=   3.
 NSaved= 3 IEnMin= 3 EnMin= -994.497379660911     IErMin= 3 ErrMin= 6.87D-03
 ErrMax= 6.87D-03  0.00D+00 EMaxC= 1.00D-01 BMatC= 1.32D-02 BMatP= 5.11D-02
 IDIUse=3 WtCom= 9.31D-01 WtEn= 6.87D-02
 Coeff-Com: -0.146D-01 0.326D+00 0.688D+00
 Coeff-En:   0.000D+00 0.926D-01 0.907D+00
 Coeff:     -0.136D-01 0.310D+00 0.703D+00
 Gap=     0.329 Goal=   None    Shift=    0.000
 RMSDP=3.50D-04 MaxDP=1.41D-02 DE=-2.68D-02 OVMax= 3.58D-02

 Cycle   4  Pass 1  IDiag  1:
 E= -994.506464499365     Delta-E=       -0.009084838454 Rises=F Damp=F
 DIIS: error= 9.13D-04 at cycle   4 NSaved=   4.
 NSaved= 4 IEnMin= 4 EnMin= -994.506464499365     IErMin= 4 ErrMin= 9.13D-04
 ErrMax= 9.13D-04  0.00D+00 EMaxC= 1.00D-01 BMatC= 1.85D-04 BMatP= 1.32D-02
 IDIUse=3 WtCom= 9.91D-01 WtEn= 9.13D-03
 Coeff-Com: -0.448D-02 0.302D-01 0.129D+00 0.845D+00
 Coeff-En:   0.000D+00 0.000D+00 0.000D+00 0.100D+01
 Coeff:     -0.444D-02 0.299D-01 0.128D+00 0.847D+00
 Gap=     0.322 Goal=   None    Shift=    0.000
 RMSDP=5.61D-05 MaxDP=1.31D-03 DE=-9.08D-03 OVMax= 3.09D-03

 Cycle   5  Pass 1  IDiag  1:
 E= -994.506650477408     Delta-E=       -0.000185978043 Rises=F Damp=F
 DIIS: error= 2.54D-04 at cycle   5 NSaved=   5.
 NSaved= 5 IEnMin= 5 EnMin= -994.506650477408     IErMin= 5 ErrMin= 2.54D-04
 ErrMax= 2.54D-04  0.00D+00 EMaxC= 1.00D-01 BMatC= 1.61D-05 BMatP= 1.85D-04
 IDIUse=3 WtCom= 9.97D-01 WtEn= 2.54D-03
 Coeff-Com:  0.913D-03-0.384D-01-0.726D-01-0.111D-01 0.112D+01
 Coeff-En:   0.000D+00 0.000D+00 0.000D+00 0.000D+00 0.100D+01
 Coeff:      0.911D-03-0.383D-01-0.724D-01-0.111D-01 0.112D+01
 Gap=     0.324 Goal=   None    Shift=    0.000
 RMSDP=3.37D-05 MaxDP=1.21D-03 DE=-1.86D-04 OVMax= 3.27D-03

 Cycle   6  Pass 1  IDiag  1:
 E= -994.506691785686     Delta-E=       -0.000041308278 Rises=F Damp=F
 DIIS: error= 1.03D-04 at cycle   6 NSaved=   6.
 NSaved= 6 IEnMin= 6 EnMin= -994.506691785686     IErMin= 6 ErrMin= 1.03D-04
 ErrMax= 1.03D-04  0.00D+00 EMaxC= 1.00D-01 BMatC= 2.07D-06 BMatP= 1.61D-05
 IDIUse=3 WtCom= 9.99D-01 WtEn= 1.03D-03
 Coeff-Com:  0.319D-03 0.740D-02 0.148D-01-0.678D-01-0.397D+00 0.144D+01
 Coeff-En:   0.000D+00 0.000D+00 0.000D+00 0.000D+00 0.000D+00 0.100D+01
 Coeff:      0.319D-03 0.739D-02 0.147D-01-0.677D-01-0.396D+00 0.144D+01
 Gap=     0.324 Goal=   None    Shift=    0.000
 RMSDP=1.64D-05 MaxDP=5.87D-04 DE=-4.13D-05 OVMax= 1.60D-03

 Cycle   7  Pass 1  IDiag  1:
 E= -994.506698880216     Delta-E=       -0.000007094530 Rises=F Damp=F
 DIIS: error= 2.18D-05 at cycle   7 NSaved=   7.
 NSaved= 7 IEnMin= 7 EnMin= -994.506698880216     IErMin= 7 ErrMin= 2.18D-05
 ErrMax= 2.18D-05  0.00D+00 EMaxC= 1.00D-01 BMatC= 1.24D-07 BMatP= 2.07D-06
 IDIUse=1 WtCom= 1.00D+00 WtEn= 0.00D+00
 Coeff-Com: -0.197D-03 0.141D-04 0.601D-03 0.235D-01 0.624D-01-0.533D+00
 Coeff-Com:  0.145D+01
 Coeff:     -0.197D-03 0.141D-04 0.601D-03 0.235D-01 0.624D-01-0.533D+00
 Coeff:      0.145D+01
 Gap=     0.324 Goal=   None    Shift=    0.000
 RMSDP=4.90D-06 MaxDP=1.69D-04 DE=-7.09D-06 OVMax= 4.86D-04

 Cycle   8  Pass 1  IDiag  1:
 E= -994.506699421955     Delta-E=       -0.000000541739 Rises=F Damp=F
 DIIS: error= 6.66D-06 at cycle   8 NSaved=   8.
 NSaved= 8 IEnMin= 8 EnMin= -994.506699421955     IErMin= 8 ErrMin= 6.66D-06
 ErrMax= 6.66D-06  0.00D+00 EMaxC= 1.00D-01 BMatC= 9.15D-09 BMatP= 1.24D-07
 IDIUse=1 WtCom= 1.00D+00 WtEn= 0.00D+00
 Coeff-Com: -0.402D-05-0.823D-03-0.146D-02 0.440D-02 0.332D-01-0.103D+00
 Coeff-Com: -0.260D-01 0.109D+01
 Coeff:     -0.402D-05-0.823D-03-0.146D-02 0.440D-02 0.332D-01-0.103D+00
 Coeff:     -0.260D-01 0.109D+01
 Gap=     0.324 Goal=   None    Shift=    0.000
 RMSDP=1.04D-06 MaxDP=1.99D-05 DE=-5.42D-07 OVMax= 1.12D-04

 Cycle   9  Pass 1  IDiag  1:
 E= -994.506699451995     Delta-E=       -0.000000030040 Rises=F Damp=F
 DIIS: error= 2.89D-06 at cycle   9 NSaved=   9.
 NSaved= 9 IEnMin= 9 EnMin= -994.506699451995     IErMin= 9 ErrMin= 2.89D-06
 ErrMax= 2.89D-06  0.00D+00 EMaxC= 1.00D-01 BMatC= 1.28D-09 BMatP= 9.15D-09
 IDIUse=1 WtCom= 1.00D+00 WtEn= 0.00D+00
 Coeff-Com:  0.202D-04 0.161D-03 0.324D-03-0.350D-02-0.154D-01 0.860D-01
 Coeff-Com: -0.166D+00-0.216D+00 0.131D+01
 Coeff:      0.202D-04 0.161D-03 0.324D-03-0.350D-02-0.154D-01 0.860D-01
 Coeff:     -0.166D+00-0.216D+00 0.131D+01
 Gap=     0.324 Goal=   None    Shift=    0.000
 RMSDP=5.19D-07 MaxDP=1.02D-05 DE=-3.00D-08 OVMax= 6.07D-05

 Cycle  10  Pass 1  IDiag  1:
 E= -994.506699457784     Delta-E=       -0.000000005789 Rises=F Damp=F
 DIIS: error= 1.20D-06 at cycle  10 NSaved=  10.
 NSaved=10 IEnMin=10 EnMin= -994.506699457784     IErMin=10 ErrMin= 1.20D-06
 ErrMax= 1.20D-06  0.00D+00 EMaxC= 1.00D-01 BMatC= 1.81D-10 BMatP= 1.28D-09
 IDIUse=1 WtCom= 1.00D+00 WtEn= 0.00D+00
 Coeff-Com: -0.200D-05 0.518D-04 0.419D-04 0.264D-03 0.794D-04-0.757D-02
 Coeff-Com:  0.417D-01-0.981D-01-0.293D+00 0.136D+01
 Coeff:     -0.200D-05 0.518D-04 0.419D-04 0.264D-03 0.794D-04-0.757D-02
 Coeff:      0.417D-01-0.981D-01-0.293D+00 0.136D+01
 Gap=     0.324 Goal=   None    Shift=    0.000
 RMSDP=2.29D-07 MaxDP=5.15D-06 DE=-5.79D-09 OVMax= 2.80D-05

 Cycle  11  Pass 1  IDiag  1:
 E= -994.506699458714     Delta-E=       -0.000000000930 Rises=F Damp=F
 DIIS: error= 3.86D-07 at cycle  11 NSaved=  11.
 NSaved=11 IEnMin=11 EnMin= -994.506699458714     IErMin=11 ErrMin= 3.86D-07
 ErrMax= 3.86D-07  0.00D+00 EMaxC= 1.00D-01 BMatC= 1.84D-11 BMatP= 1.81D-10
 IDIUse=1 WtCom= 1.00D+00 WtEn= 0.00D+00
 Coeff-Com: -0.302D-05-0.201D-04-0.322D-04 0.424D-03 0.173D-02-0.952D-02
 Coeff-Com:  0.155D-01 0.376D-01-0.111D+00-0.260D+00 0.133D+01
 Coeff:     -0.302D-05-0.201D-04-0.322D-04 0.424D-03 0.173D-02-0.952D-02
 Coeff:      0.155D-01 0.376D-01-0.111D+00-0.260D+00 0.133D+01
 Gap=     0.324 Goal=   None    Shift=    0.000
 RMSDP=8.28D-08 MaxDP=1.98D-06 DE=-9.30D-10 OVMax= 9.84D-06

 Cycle  12  Pass 1  IDiag  1:
 E= -994.506699458813     Delta-E=       -0.000000000099 Rises=F Damp=F
 DIIS: error= 7.42D-08 at cycle  12 NSaved=  12.
 NSaved=12 IEnMin=12 EnMin= -994.506699458813     IErMin=12 ErrMin= 7.42D-08
 ErrMax= 7.42D-08  0.00D+00 EMaxC= 1.00D-01 BMatC= 1.11D-12 BMatP= 1.84D-11
 IDIUse=1 WtCom= 1.00D+00 WtEn= 0.00D+00
 Coeff-Com:  0.463D-06-0.275D-05-0.149D-05-0.585D-04-0.165D-03 0.141D-02
 Coeff-Com: -0.450D-02 0.315D-02 0.332D-01-0.724D-01-0.139D+00 0.118D+01
 Coeff:      0.463D-06-0.275D-05-0.149D-05-0.585D-04-0.165D-03 0.141D-02
 Coeff:     -0.450D-02 0.315D-02 0.332D-01-0.724D-01-0.139D+00 0.118D+01
 Gap=     0.324 Goal=   None    Shift=    0.000
 RMSDP=1.69D-08 MaxDP=4.05D-07 DE=-9.89D-11 OVMax= 1.73D-06

 Cycle  13  Pass 1  IDiag  1:
 E= -994.506699458818     Delta-E=       -0.000000000005 Rises=F Damp=F
 DIIS: error= 2.12D-08 at cycle  13 NSaved=  13.
 NSaved=13 IEnMin=13 EnMin= -994.506699458818     IErMin=13 ErrMin= 2.12D-08
 ErrMax= 2.12D-08  0.00D+00 EMaxC= 1.00D-01 BMatC= 1.46D-13 BMatP= 1.11D-12
 IDIUse=1 WtCom= 1.00D+00 WtEn= 0.00D+00
 Coeff-Com:  0.229D-06 0.220D-05 0.235D-05-0.308D-04-0.132D-03 0.666D-03
 Coeff-Com: -0.677D-03-0.444D-02 0.509D-02 0.430D-01-0.131D+00-0.139D+00
 Coeff-Com:  0.123D+01
 Coeff:      0.229D-06 0.220D-05 0.235D-05-0.308D-04-0.132D-03 0.666D-03
 Coeff:     -0.677D-03-0.444D-02 0.509D-02 0.430D-01-0.131D+00-0.139D+00
 Coeff:      0.123D+01
 Gap=     0.324 Goal=   None    Shift=    0.000
 RMSDP=5.72D-09 MaxDP=1.19D-07 DE=-5.00D-12 OVMax= 3.99D-07

 SCF Done:  E(RHF) =  -994.506699459     A.U. after   13 cycles
            NFock= 13  Conv=0.57D-08     -V/T= 2.0001
 KE= 9.943813304222D+02 PE=-2.619552801458D+03 EE= 5.097347794692D+02
 Leave Link  502 at Fri Nov  5 15:25:48 2021, MaxMem= 16106127360 cpu:              29.5 elap:               3.4
 (Enter /sw/contrib/gaussian/g16/B01/g16/l801.exe)
 ExpMin= 2.53D-02 ExpMax= 4.56D+05 ExpMxC= 1.44D+03 IAcc=3 IRadAn=         5 AccDes= 0.00D+00
 HarFok:  IExCor=  205 AccDes= 0.00D+00 IRadAn=         5 IDoV=-2 UseB2=F ITyADJ=14
 ICtDFT= 12500011 ScaDFX=  1.000000  1.000000  1.000000  1.000000
 Largest valence mixing into a core orbital is  4.48D-04
 Largest core mixing into a valence orbital is  1.75D-04
 Range of M.O.s used for correlation:    12   169
 NBasis=   169 NAE=    22 NBE=    22 NFC=    11 NFV=     0
 NROrb=    158 NOA=    11 NOB=    11 NVA=   147 NVB=   147

 **** Warning!!: The largest alpha MO coefficient is  0.11356049D+02

 Leave Link  801 at Fri Nov  5 15:25:48 2021, MaxMem= 16106127360 cpu:               2.0 elap:               0.1
 (Enter /sw/contrib/gaussian/g16/B01/g16/l906.exe)
 Frozen-core derivative calculation, NFC=  11 NFV=   0.
 FulOut=F Deriv=T AODrv=F NAtomX=     4
   MMem=         144  MDisk=          11 MDiskD=          11
  W3Min=      736164 MinDsk=     1250177 NBas6D=         198
 NBas2D=       20187    NTT=       19701    LW2=     3500000
    MDV= 16105751564 MDiskM=      406660 NBas2p=       19980
 Fully in-core method, ICMem=   420417501.
 IMap=   1   2   3   4   5   6   7   8   9  10  11  12  13  14  15  16  17  18  19  20
 IMap=  21  22
 JobTyp=1 Pass  1 fully in-core, NPsUse= 28.
 Compute canonical integrals.
 FoFCou: FMM=F IPFlag=           0 FMFlag=           0 FMFlg1=           0
         NFxFlg=           0 DoJE=F BraDBF=F KetDBF=F FulRan=T
         wScrn=  0.000000 ICntrl=       600 IOpCl=  1 I1Cent=           0 NGrid=           0
         NMat0=    1 NMatS0=  20187 NMatT0=    0 NMatD0=    1 NMtDS0=    0 NMtDT0=    0
 Symmetry not used in FoFCou.
 Spin components of T(2) and E(2):
     alpha-alpha T2 =       0.2904931527D-01 E2=     -0.8333403618D-01
     alpha-beta  T2 =       0.1596356991D+00 E2=     -0.4971232513D+00
     beta-beta   T2 =       0.2904931527D-01 E2=     -0.8333403618D-01
 The integrals were generated   1 times.
 ANorm=    0.1103510004D+01
 E2 =    -0.6637913237D+00 EUMP2 =    -0.99517049078253D+03
 Leave Link  906 at Fri Nov  5 15:25:52 2021, MaxMem= 16106127360 cpu:             116.7 elap:               4.2
 (Enter /sw/contrib/gaussian/g16/B01/g16/l1002.exe)
 Minotr:  Closed shell wavefunction.
          Computing MP2/KS-MP2 derivatives.
          Using Z-Vector for PSCF gradient.
          Skipping F1 and S1 gradient terms here.
          Frozen-core window.
          Direct CPHF calculation.
          Differentiating once with respect to electric field.
                with respect to dipole field.
          Electric field/nuclear overlap derivatives assumed to be zero.
          Requested convergence is 1.0D-10 RMS, and 1.0D-09 maximum.
          NewPWx=F KeepS1=T KeepF1=T KeepIn=T MapXYZ=F SortEE=F KeepMc=T.
 Keep R1 ints in memory in canonical form, NReq=117123065.
 FoFCou: FMM=F IPFlag=           0 FMFlag=           0 FMFlg1=           0
         NFxFlg=           0 DoJE=F BraDBF=F KetDBF=F FulRan=T
         wScrn=  0.000000 ICntrl=       600 IOpCl=  0 I1Cent=           0 NGrid=           0
         NMat0=    1 NMatS0=  14365 NMatT0=    0 NMatD0=    1 NMtDS0=    0 NMtDT0=    0
 Symmetry not used in FoFCou.
 Two-electron integral symmetry not used.
          MDV=   16106127360 using IRadAn=       5.
          Solving linear equations separately, MaxMat=       0.
          There are     1 degrees of freedom in the 1st order CPHF.  IDoFFX=0 NUNeed=     1.
 LinEq1:  Iter=  0 NonCon=     1 RMS=3.07D-03 Max=3.98D-02 NDo=     1
 AX will form     1 AO Fock derivatives at one time.
 LinEq1:  Iter=  1 NonCon=     1 RMS=3.96D-04 Max=4.20D-03 NDo=     1
 LinEq1:  Iter=  2 NonCon=     1 RMS=1.66D-04 Max=2.45D-03 NDo=     1
 LinEq1:  Iter=  3 NonCon=     1 RMS=6.71D-05 Max=1.02D-03 NDo=     1
 LinEq1:  Iter=  4 NonCon=     1 RMS=2.91D-05 Max=5.55D-04 NDo=     1
 LinEq1:  Iter=  5 NonCon=     1 RMS=8.22D-06 Max=1.75D-04 NDo=     1
 LinEq1:  Iter=  6 NonCon=     1 RMS=2.65D-06 Max=3.89D-05 NDo=     1
 LinEq1:  Iter=  7 NonCon=     1 RMS=7.57D-07 Max=8.05D-06 NDo=     1
 LinEq1:  Iter=  8 NonCon=     1 RMS=1.48D-07 Max=2.05D-06 NDo=     1
 LinEq1:  Iter=  9 NonCon=     1 RMS=3.84D-08 Max=6.34D-07 NDo=     1
 LinEq1:  Iter= 10 NonCon=     1 RMS=1.09D-08 Max=2.07D-07 NDo=     1
 LinEq1:  Iter= 11 NonCon=     1 RMS=2.89D-09 Max=5.48D-08 NDo=     1
 LinEq1:  Iter= 12 NonCon=     1 RMS=8.45D-10 Max=9.41D-09 NDo=     1
 LinEq1:  Iter= 13 NonCon=     1 RMS=2.29D-10 Max=2.45D-09 NDo=     1
 LinEq1:  Iter= 14 NonCon=     0 RMS=5.32D-11 Max=7.41D-10 NDo=     1
 Linear equations converged to 1.000D-10 1.000D-09 after    14 iterations.
 End of Minotr F.D. properties file   721 does not exist.
 End of Minotr F.D. properties file   722 does not exist.
 End of Minotr F.D. properties file   788 does not exist.
 Leave Link 1002 at Fri Nov  5 15:25:56 2021, MaxMem= 16106127360 cpu:              28.4 elap:               3.8
 (Enter /sw/contrib/gaussian/g16/B01/g16/l601.exe)
 Copying SCF densities to generalized density rwf, IOpCl= 0 IROHF=0.

 **********************************************************************

            Population analysis using the MP2 Density.

 **********************************************************************

 Alpha  occ. eigenvalues -- -104.73780-104.52507 -20.47726 -10.45737 -10.24951
 Alpha  occ. eigenvalues --   -7.92452  -7.92184  -7.92168  -7.71562  -7.71553
 Alpha  occ. eigenvalues --   -7.71551  -1.24713  -0.90544  -0.75869  -0.55632
 Alpha  occ. eigenvalues --   -0.45192  -0.44210  -0.31709  -0.29068  -0.17633
 Alpha  occ. eigenvalues --   -0.17252  -0.17103
 Alpha virt. eigenvalues --    0.15341   0.17891   0.22242   0.23191   0.26423
 Alpha virt. eigenvalues --    0.27549   0.27688   0.28733   0.29863   0.31750
 Alpha virt. eigenvalues --    0.32844   0.35025   0.40431   0.41385   0.45886
 Alpha virt. eigenvalues --    0.47943   0.52659   0.53794   0.55512   0.57647
 Alpha virt. eigenvalues --    0.58460   0.58759   0.60987   0.62336   0.64994
 Alpha virt. eigenvalues --    0.66281   0.67275   0.68200   0.75918   0.79786
 Alpha virt. eigenvalues --    0.84824   0.86860   0.88443   0.89626   0.90680
 Alpha virt. eigenvalues --    0.92592   0.95418   0.97645   1.01425   1.05584
 Alpha virt. eigenvalues --    1.07846   1.08505   1.10113   1.11699   1.12459
 Alpha virt. eigenvalues --    1.16029   1.18843   1.19712   1.20524   1.22036
 Alpha virt. eigenvalues --    1.22187   1.23146   1.26252   1.27576   1.30007
 Alpha virt. eigenvalues --    1.32545   1.33106   1.38879   1.41526   1.43723
 Alpha virt. eigenvalues --    1.44534   1.48200   1.49404   1.52138   1.55556
 Alpha virt. eigenvalues --    1.57589   1.64897   1.67635   1.69292   1.70884
 Alpha virt. eigenvalues --    1.75594   1.79781   1.84177   1.86407   1.95897
 Alpha virt. eigenvalues --    1.97418   2.12116   2.36291   2.42046   2.48983
 Alpha virt. eigenvalues --    2.49442   2.52684   2.59420   2.61136   2.63955
 Alpha virt. eigenvalues --    2.68290   2.68883   2.69903   2.71960   2.74453
 Alpha virt. eigenvalues --    2.77355   2.80490   2.82221   2.82438   2.88428
 Alpha virt. eigenvalues --    2.89748   2.93180   2.95554   2.98388   3.00318
 Alpha virt. eigenvalues --    3.01747   3.09835   3.15479   3.19358   3.21282
 Alpha virt. eigenvalues --    3.22404   3.25509   3.28976   3.31570   3.35600
 Alpha virt. eigenvalues --    3.35809   3.39885   3.42613   3.46035   3.49184
 Alpha virt. eigenvalues --    3.51363   3.55366   3.57749   3.62355   3.92365
 Alpha virt. eigenvalues --    4.05112   4.37608   4.48275   4.55726   4.63105
 Alpha virt. eigenvalues --    4.73850   4.93436   5.01790   5.40877   5.49563
 Alpha virt. eigenvalues --    5.70152   6.08318   6.38419   6.63630   6.85981
 Alpha virt. eigenvalues --    6.90423   6.91657   6.98146   7.33728   7.38494
 Alpha virt. eigenvalues --    7.40252   7.47267   7.48494   7.70812   7.74329
 Alpha virt. eigenvalues --    8.41568  14.82493
          Condensed to atoms (all electrons):
               1          2          3          4
     1  O    8.476002  -0.109265  -0.077470   0.082307
     2  Cl  -0.109265  17.037041  -0.001434   0.002768
     3  Cl  -0.077470  -0.001434  17.944522   0.063281
     4  H    0.082307   0.002768   0.063281   0.622062
 Mulliken charges:
               1
     1  O   -0.371574
     2  Cl   0.070890
     3  Cl  -0.928898
     4  H    0.229583
 Sum of Mulliken charges =  -1.00000
 Mulliken charges with hydrogens summed into heavy atoms:
               1
     1  O   -0.141991
     2  Cl   0.070890
     3  Cl  -0.928898
 Electronic spatial extent (au):  <R**2>=            809.3498
 Charge=             -1.0000 electrons
 Dipole moment (field-independent basis, Debye):
    X=              1.9344    Y=             11.2608    Z=              0.6854  Tot=             11.4463
 Quadrupole moment (field-independent basis, Debye-Ang):
   XX=            -38.7907   YY=            -72.8162   ZZ=            -35.8617
   XY=             -8.4515   XZ=             -0.3203   YZ=             -0.3160
 Traceless Quadrupole moment (field-independent basis, Debye-Ang):
   XX=             10.3655   YY=            -23.6600   ZZ=             13.2945
   XY=             -8.4515   XZ=             -0.3203   YZ=             -0.3160
 Octapole moment (field-independent basis, Debye-Ang**2):
  XXX=            -30.5492  YYY=            251.0364  ZZZ=             -1.5668  XYY=             11.2934
  XXY=             53.5095  XXZ=             -1.2346  XZZ=            -12.2212  YZZ=             48.4425
  YYZ=             -2.4703  XYZ=             -0.4156
 Hexadecapole moment (field-independent basis, Debye-Ang**3):
 XXXX=           -301.5788 YYYY=          -1188.4642 ZZZZ=            -52.3891 XXXY=            -98.8280
 XXXZ=             -0.6451 YYYX=           -160.4220 YYYZ=              8.5458 ZZZX=              0.0778
 ZZZY=              1.9715 XXYY=           -218.5767 XXZZ=            -63.9375 YYZZ=           -157.4290
 XXYZ=              0.9341 YYXZ=              1.4299 ZZXY=            -31.4368
 N-N= 1.209299921077D+02 E-N=-2.619604366822D+03  KE= 9.950434992181D+02
 No NMR shielding tensors so no spin-rotation constants.
 Leave Link  601 at Fri Nov  5 15:25:56 2021, MaxMem= 16106127360 cpu:               4.2 elap:               0.2
 (Enter /sw/contrib/gaussian/g16/B01/g16/l607.exe)
 ******************************Gaussian NBO Version 3.1******************************
             N A T U R A L   A T O M I C   O R B I T A L   A N D
          N A T U R A L   B O N D   O R B I T A L   A N A L Y S I S
 ******************************Gaussian NBO Version 3.1******************************
       /RESON  / : Allow strongly delocalized NBO set

 Analyzing the MP2 density

 Job title: title                                                           

 Storage needed:     86521 in NPA,    114817 in NBO (********** available)
 GSVD:  LWork=        1191 too small for GESVD, short by       52514 words or       52514 for optimal perf.


 NATURAL POPULATIONS:  Natural atomic orbital occupancies 
                                                          
   NAO  Atom  No  lang   Type(AO)    Occupancy
 --------------------------------------------
     1    O    1  S      Cor( 1S)     1.99970
     2    O    1  S      Val( 2S)     1.79324
     3    O    1  S      Ryd( 3S)     0.00908
     4    O    1  S      Ryd( 4S)     0.00104
     5    O    1  S      Ryd( 5S)     0.00015
     6    O    1  px     Val( 2p)     1.20938
     7    O    1  px     Ryd( 3p)     0.00640
     8    O    1  px     Ryd( 4p)     0.00059
     9    O    1  px     Ryd( 5p)     0.00030
    10    O    1  py     Val( 2p)     1.80425
    11    O    1  py     Ryd( 3p)     0.01583
    12    O    1  py     Ryd( 4p)     0.00070
    13    O    1  py     Ryd( 5p)     0.00036
    14    O    1  pz     Val( 2p)     1.77696
    15    O    1  pz     Ryd( 3p)     0.01533
    16    O    1  pz     Ryd( 4p)     0.00071
    17    O    1  pz     Ryd( 5p)     0.00024
    18    O    1  dxy    Ryd( 3d)     0.00885
    19    O    1  dxy    Ryd( 4d)     0.00053
    20    O    1  dxy    Ryd( 5d)     0.00013
    21    O    1  dxz    Ryd( 3d)     0.00921
    22    O    1  dxz    Ryd( 4d)     0.00054
    23    O    1  dxz    Ryd( 5d)     0.00009
    24    O    1  dyz    Ryd( 3d)     0.01181
    25    O    1  dyz    Ryd( 4d)     0.00053
    26    O    1  dyz    Ryd( 5d)     0.00013
    27    O    1  dx2y2  Ryd( 3d)     0.01032
    28    O    1  dx2y2  Ryd( 4d)     0.00050
    29    O    1  dx2y2  Ryd( 5d)     0.00027
    30    O    1  dz2    Ryd( 3d)     0.00973
    31    O    1  dz2    Ryd( 4d)     0.00056
    32    O    1  dz2    Ryd( 5d)     0.00020
    33    O    1  f(0)   Ryd( 4f)     0.00057
    34    O    1  f(0)   Ryd( 5f)     0.00011
    35    O    1  f(C1)  Ryd( 4f)     0.00057
    36    O    1  f(C1)  Ryd( 5f)     0.00012
    37    O    1  f(S1)  Ryd( 4f)     0.00059
    38    O    1  f(S1)  Ryd( 5f)     0.00012
    39    O    1  f(C2)  Ryd( 4f)     0.00064
    40    O    1  f(C2)  Ryd( 5f)     0.00013
    41    O    1  f(S2)  Ryd( 4f)     0.00060
    42    O    1  f(S2)  Ryd( 5f)     0.00014
    43    O    1  f(C3)  Ryd( 4f)     0.00062
    44    O    1  f(C3)  Ryd( 5f)     0.00012
    45    O    1  f(S3)  Ryd( 4f)     0.00066
    46    O    1  f(S3)  Ryd( 5f)     0.00013

    47   Cl    2  S      Cor( 1S)     2.00000
    48   Cl    2  S      Cor( 2S)     1.99982
    49   Cl    2  S      Val( 3S)     1.88733
    50   Cl    2  S      Ryd( 4S)     0.00843
    51   Cl    2  S      Ryd( 5S)     0.00056
    52   Cl    2  S      Ryd( 6S)     0.00017
    53   Cl    2  px     Cor( 2p)     1.99997
    54   Cl    2  px     Val( 3p)     0.90306
    55   Cl    2  px     Ryd( 4p)     0.00668
    56   Cl    2  px     Ryd( 5p)     0.00052
    57   Cl    2  px     Ryd( 6p)     0.00019
    58   Cl    2  py     Cor( 2p)     2.00003
    59   Cl    2  py     Val( 3p)     1.95389
    60   Cl    2  py     Ryd( 4p)     0.01002
    61   Cl    2  py     Ryd( 5p)     0.00059
    62   Cl    2  py     Ryd( 6p)     0.00008
    63   Cl    2  pz     Cor( 2p)     2.00003
    64   Cl    2  pz     Val( 3p)     1.95421
    65   Cl    2  pz     Ryd( 4p)     0.01013
    66   Cl    2  pz     Ryd( 5p)     0.00059
    67   Cl    2  pz     Ryd( 6p)     0.00003
    68   Cl    2  dxy    Ryd( 3d)     0.01871
    69   Cl    2  dxy    Ryd( 4d)     0.00095
    70   Cl    2  dxy    Ryd( 5d)     0.00034
    71   Cl    2  dxz    Ryd( 3d)     0.01872
    72   Cl    2  dxz    Ryd( 4d)     0.00091
    73   Cl    2  dxz    Ryd( 5d)     0.00035
    74   Cl    2  dyz    Ryd( 3d)     0.01687
    75   Cl    2  dyz    Ryd( 4d)     0.00072
    76   Cl    2  dyz    Ryd( 5d)     0.00018
    77   Cl    2  dx2y2  Ryd( 3d)     0.01868
    78   Cl    2  dx2y2  Ryd( 4d)     0.00051
    79   Cl    2  dx2y2  Ryd( 5d)     0.00016
    80   Cl    2  dz2    Ryd( 3d)     0.01731
    81   Cl    2  dz2    Ryd( 4d)     0.00063
    82   Cl    2  dz2    Ryd( 5d)     0.00017
    83   Cl    2  f(0)   Ryd( 4f)     0.00127
    84   Cl    2  f(0)   Ryd( 5f)     0.00013
    85   Cl    2  f(C1)  Ryd( 4f)     0.00140
    86   Cl    2  f(C1)  Ryd( 5f)     0.00013
    87   Cl    2  f(S1)  Ryd( 4f)     0.00126
    88   Cl    2  f(S1)  Ryd( 5f)     0.00013
    89   Cl    2  f(C2)  Ryd( 4f)     0.00130
    90   Cl    2  f(C2)  Ryd( 5f)     0.00014
    91   Cl    2  f(S2)  Ryd( 4f)     0.00119
    92   Cl    2  f(S2)  Ryd( 5f)     0.00013
    93   Cl    2  f(C3)  Ryd( 4f)     0.00159
    94   Cl    2  f(C3)  Ryd( 5f)     0.00015
    95   Cl    2  f(S3)  Ryd( 4f)     0.00134
    96   Cl    2  f(S3)  Ryd( 5f)     0.00014

    97   Cl    3  S      Cor( 1S)     2.00001
    98   Cl    3  S      Cor( 2S)     2.00000
    99   Cl    3  S      Val( 3S)     1.97950
   100   Cl    3  S      Ryd( 4S)     0.00338
   101   Cl    3  S      Ryd( 5S)     0.00032
   102   Cl    3  S      Ryd( 6S)     0.00011
   103   Cl    3  px     Cor( 2p)     2.00003
   104   Cl    3  px     Val( 3p)     1.95106
   105   Cl    3  px     Ryd( 4p)     0.01358
   106   Cl    3  px     Ryd( 5p)     0.00058
   107   Cl    3  px     Ryd( 6p)     0.00006
   108   Cl    3  py     Cor( 2p)     2.00002
   109   Cl    3  py     Val( 3p)     1.93132
   110   Cl    3  py     Ryd( 4p)     0.01235
   111   Cl    3  py     Ryd( 5p)     0.00057
   112   Cl    3  py     Ryd( 6p)     0.00004
   113   Cl    3  pz     Cor( 2p)     2.00002
   114   Cl    3  pz     Val( 3p)     1.94654
   115   Cl    3  pz     Ryd( 4p)     0.01355
   116   Cl    3  pz     Ryd( 5p)     0.00058
   117   Cl    3  pz     Ryd( 6p)     0.00004
   118   Cl    3  dxy    Ryd( 3d)     0.01859
   119   Cl    3  dxy    Ryd( 4d)     0.00090
   120   Cl    3  dxy    Ryd( 5d)     0.00012
   121   Cl    3  dxz    Ryd( 3d)     0.01843
   122   Cl    3  dxz    Ryd( 4d)     0.00100
   123   Cl    3  dxz    Ryd( 5d)     0.00011
   124   Cl    3  dyz    Ryd( 3d)     0.01878
   125   Cl    3  dyz    Ryd( 4d)     0.00093
   126   Cl    3  dyz    Ryd( 5d)     0.00015
   127   Cl    3  dx2y2  Ryd( 3d)     0.01843
   128   Cl    3  dx2y2  Ryd( 4d)     0.00093
   129   Cl    3  dx2y2  Ryd( 5d)     0.00015
   130   Cl    3  dz2    Ryd( 3d)     0.01840
   131   Cl    3  dz2    Ryd( 4d)     0.00097
   132   Cl    3  dz2    Ryd( 5d)     0.00011
   133   Cl    3  f(0)   Ryd( 4f)     0.00130
   134   Cl    3  f(0)   Ryd( 5f)     0.00015
   135   Cl    3  f(C1)  Ryd( 4f)     0.00130
   136   Cl    3  f(C1)  Ryd( 5f)     0.00015
   137   Cl    3  f(S1)  Ryd( 4f)     0.00129
   138   Cl    3  f(S1)  Ryd( 5f)     0.00016
   139   Cl    3  f(C2)  Ryd( 4f)     0.00130
   140   Cl    3  f(C2)  Ryd( 5f)     0.00016
   141   Cl    3  f(S2)  Ryd( 4f)     0.00131
   142   Cl    3  f(S2)  Ryd( 5f)     0.00015
   143   Cl    3  f(C3)  Ryd( 4f)     0.00130
   144   Cl    3  f(C3)  Ryd( 5f)     0.00017
   145   Cl    3  f(S3)  Ryd( 4f)     0.00129
   146   Cl    3  f(S3)  Ryd( 5f)     0.00017

   147    H    4  S      Val( 1S)     0.48309
   148    H    4  S      Ryd( 2S)     0.00461
   149    H    4  S      Ryd( 3S)     0.00027
   150    H    4  S      Ryd( 4S)     0.00014
   151    H    4  px     Ryd( 2p)     0.00255
   152    H    4  px     Ryd( 3p)     0.00045
   153    H    4  px     Ryd( 4p)     0.00010
   154    H    4  py     Ryd( 2p)     0.00581
   155    H    4  py     Ryd( 3p)     0.00059
   156    H    4  py     Ryd( 4p)     0.00027
   157    H    4  pz     Ryd( 2p)     0.00321
   158    H    4  pz     Ryd( 3p)     0.00057
   159    H    4  pz     Ryd( 4p)     0.00019
   160    H    4  dxy    Ryd( 3d)     0.00023
   161    H    4  dxy    Ryd( 4d)     0.00009
   162    H    4  dxz    Ryd( 3d)     0.00015
   163    H    4  dxz    Ryd( 4d)     0.00007
   164    H    4  dyz    Ryd( 3d)     0.00031
   165    H    4  dyz    Ryd( 4d)     0.00009
   166    H    4  dx2y2  Ryd( 3d)     0.00029
   167    H    4  dx2y2  Ryd( 4d)     0.00010
   168    H    4  dz2    Ryd( 3d)     0.00022
   169    H    4  dz2    Ryd( 4d)     0.00011


 Summary of Natural Population Analysis:                  
                                                          
                                       Natural Population 
                Natural  -----------------------------------------------
    Atom  No    Charge         Core      Valence    Rydberg      Total
 -----------------------------------------------------------------------
      O    1   -0.69278      1.99970     6.58384    0.10924     8.69278
     Cl    2    0.15817      9.99985     6.69849    0.14350    16.84183
     Cl    3   -0.96188     10.00008     7.80842    0.15337    17.96188
      H    4    0.49649      0.00000     0.48309    0.02042     0.50351
 =======================================================================
   * Total *   -1.00000     21.99963    21.57384    0.42653    44.00000

                                 Natural Population      
 --------------------------------------------------------
   Core                      21.99963 ( 99.9983% of  22)
   Valence                   21.57384 ( 98.0629% of  22)
   Natural Minimal Basis     43.57347 ( 99.0306% of  44)
   Natural Rydberg Basis      0.42653 (  0.9694% of  44)
 --------------------------------------------------------

    Atom  No          Natural Electron Configuration
 ----------------------------------------------------------------------------
      O    1      [core]2S( 1.79)2p( 4.79)3S( 0.01)3p( 0.04)3d( 0.05)
     Cl    2      [core]3S( 1.89)3p( 4.81)4S( 0.01)3d( 0.09)4p( 0.03)4f( 0.01)
     Cl    3      [core]3S( 1.98)3p( 5.83)3d( 0.09)4p( 0.04)4f( 0.01)
      H    4            1S( 0.48)2p( 0.01)


 NATURAL BOND ORBITAL ANALYSIS:

                       Occupancies       Lewis Structure    Low   High
           Occ.    -------------------  -----------------   occ   occ
  Cycle   Thresh.   Lewis   Non-Lewis     CR  BD  3C  LP    (L)   (NL)   Dev
 =============================================================================
   1(1)    1.90    43.52172   0.47828     11   2   0   9     0      0    0.03
 -----------------------------------------------------------------------------

 Structure accepted: No low occupancy Lewis orbitals

 --------------------------------------------------------
   Core                     21.99963 ( 99.998% of  22)
   Valence Lewis            21.52209 ( 97.828% of  22)
  ==================       ============================
   Total Lewis              43.52172 ( 98.913% of  44)
  -----------------------------------------------------
   Valence non-Lewis         0.10039 (  0.228% of  44)
   Rydberg non-Lewis         0.37788 (  0.859% of  44)
  ==================       ============================
   Total non-Lewis           0.47828 (  1.087% of  44)
 --------------------------------------------------------


       (Occupancy)   Bond orbital/ Coefficients/ Hybrids
 ---------------------------------------------------------------------------------
     1. (1.93904) BD ( 1) O   1 -Cl   2  
                ( 58.90%)   0.7675* O   1 s(  9.53%)p 9.43( 89.90%)d 0.06(  0.55%)
                                                  f 0.00(  0.02%)
                                            0.0003  0.3058 -0.0409 -0.0120 -0.0017
                                            0.9471 -0.0203 -0.0086 -0.0092  0.0119
                                           -0.0201 -0.0038 -0.0000  0.0218  0.0210
                                            0.0039 -0.0005 -0.0131 -0.0001  0.0023
                                            0.0220  0.0031 -0.0002 -0.0136 -0.0016
                                            0.0012  0.0592  0.0054  0.0010 -0.0330
                                           -0.0028 -0.0006 -0.0002  0.0004 -0.0062
                                           -0.0002  0.0001 -0.0006  0.0008 -0.0013
                                           -0.0069  0.0018  0.0095 -0.0005 -0.0005
                                            0.0013
                ( 41.10%)   0.6411*Cl   2 s(  8.19%)p11.05( 90.56%)d 0.14(  1.13%)
                                                  f 0.01(  0.11%)
                                           -0.0000  0.0005  0.2797 -0.0601 -0.0103
                                           -0.0025 -0.0004 -0.9492  0.0661  0.0135
                                           -0.0035 -0.0000 -0.0031 -0.0017  0.0009
                                           -0.0002  0.0000  0.0034 -0.0002 -0.0024
                                            0.0013  0.0040 -0.0009  0.0002 -0.0136
                                           -0.0018 -0.0008 -0.0052 -0.0003  0.0011
                                            0.0909 -0.0110 -0.0006 -0.0517  0.0059
                                           -0.0003 -0.0008  0.0002  0.0194 -0.0023
                                           -0.0001  0.0000  0.0008 -0.0000  0.0019
                                           -0.0016 -0.0262  0.0038 -0.0005  0.0005
     2. (1.96476) BD ( 1) O   1 - H   4  
                ( 77.01%)   0.8775* O   1 s( 24.46%)p 3.07( 74.99%)d 0.02(  0.54%)
                                                  f 0.00(  0.01%)
                                           -0.0002 -0.4945  0.0041  0.0066 -0.0020
                                            0.1650 -0.0175 -0.0025 -0.0016  0.5716
                                           -0.0112 -0.0057 -0.0005 -0.6288  0.0085
                                            0.0063  0.0039  0.0071  0.0028  0.0002
                                           -0.0066 -0.0030 -0.0005  0.0630  0.0035
                                           -0.0005  0.0252  0.0024  0.0021 -0.0252
                                           -0.0033 -0.0022  0.0059 -0.0008 -0.0001
                                            0.0009  0.0072  0.0008  0.0025  0.0020
                                           -0.0013 -0.0018  0.0005 -0.0013  0.0033
                                           -0.0018
                ( 22.99%)   0.4795* H   4 s( 99.81%)p 0.00(  0.19%)d 0.00(  0.00%)
                                           -0.9989 -0.0159 -0.0007  0.0004 -0.0106
                                           -0.0065  0.0031 -0.0006 -0.0211 -0.0053
                                           -0.0280  0.0216  0.0055  0.0011  0.0017
                                           -0.0011 -0.0018  0.0023  0.0000 -0.0003
                                           -0.0016  0.0005  0.0015
     3. (1.99970) CR ( 1) O   1           s(100.00%)p 0.00(  0.00%)
                                            1.0000 -0.0004  0.0000  0.0000  0.0000
                                           -0.0001  0.0000  0.0000  0.0000  0.0001
                                            0.0000 -0.0000 -0.0000 -0.0001 -0.0000
                                            0.0000  0.0000  0.0000  0.0000  0.0000
                                           -0.0000 -0.0000 -0.0000  0.0000  0.0000
                                           -0.0000 -0.0000 -0.0000  0.0000  0.0000
                                            0.0000 -0.0000  0.0000 -0.0000  0.0000
                                           -0.0000  0.0000  0.0000  0.0000  0.0000
                                            0.0000 -0.0000 -0.0000  0.0000  0.0000
                                           -0.0000
     4. (2.00000) CR ( 1)Cl   2           s(100.00%)
                                            1.0000  0.0000  0.0000 -0.0000 -0.0000
                                           -0.0000 -0.0000 -0.0000  0.0000  0.0000
                                           -0.0000 -0.0000 -0.0000 -0.0000  0.0000
                                           -0.0000  0.0000  0.0000 -0.0000 -0.0000
                                            0.0000  0.0000 -0.0000  0.0000 -0.0000
                                           -0.0000 -0.0000 -0.0000 -0.0000  0.0000
                                            0.0000 -0.0000 -0.0000 -0.0000  0.0000
                                           -0.0000 -0.0000  0.0000  0.0000 -0.0000
                                           -0.0000  0.0000  0.0000 -0.0000  0.0000
                                           -0.0000 -0.0000  0.0000 -0.0000  0.0000
     5. (1.99983) CR ( 2)Cl   2           s(100.00%)p 0.00(  0.00%)
                                            0.0000  1.0000 -0.0004  0.0000  0.0000
                                            0.0000  0.0000  0.0004 -0.0000 -0.0000
                                            0.0000  0.0000  0.0000  0.0000 -0.0000
                                            0.0000 -0.0000 -0.0000 -0.0000  0.0000
                                           -0.0000 -0.0000  0.0000  0.0000  0.0000
                                            0.0000  0.0000  0.0000  0.0000 -0.0000
                                           -0.0000  0.0000  0.0000  0.0000 -0.0000
                                            0.0000  0.0000 -0.0000 -0.0000  0.0000
                                            0.0000 -0.0000 -0.0000  0.0000 -0.0000
                                            0.0000  0.0000 -0.0000  0.0000 -0.0000
     6. (1.99997) CR ( 3)Cl   2           s(  0.00%)p 1.00(100.00%)
                                           -0.0000  0.0000  0.0001 -0.0000 -0.0000
                                           -0.0000  1.0000 -0.0004  0.0000  0.0000
                                           -0.0000 -0.0000 -0.0000 -0.0000  0.0000
                                           -0.0000  0.0000  0.0000  0.0000 -0.0000
                                            0.0000  0.0000 -0.0000 -0.0000 -0.0000
                                           -0.0000 -0.0000 -0.0000 -0.0000  0.0000
                                            0.0000 -0.0000 -0.0000 -0.0000  0.0000
                                           -0.0000 -0.0000  0.0000  0.0000 -0.0000
                                           -0.0000  0.0000  0.0000 -0.0000  0.0000
                                           -0.0000 -0.0000  0.0000 -0.0000  0.0000
     7. (2.00003) CR ( 4)Cl   2           s(  0.00%)p 1.00(100.00%)
                                           -0.0000  0.0000  0.0000  0.0000  0.0000
                                           -0.0000 -0.0000 -0.0000  0.0000  0.0000
                                           -0.0000  1.0000  0.0002  0.0000  0.0000
                                           -0.0000  0.0000 -0.0000 -0.0000  0.0000
                                           -0.0000  0.0000  0.0000  0.0000  0.0000
                                            0.0000  0.0000  0.0000  0.0000  0.0000
                                           -0.0000 -0.0000 -0.0000 -0.0000 -0.0000
                                           -0.0000  0.0000 -0.0000  0.0000 -0.0000
                                           -0.0000 -0.0000  0.0000 -0.0000 -0.0000
                                            0.0000 -0.0000  0.0000  0.0000 -0.0000
     8. (2.00003) CR ( 5)Cl   2           s(  0.00%)p 1.00(100.00%)
                                            0.0000 -0.0000 -0.0000  0.0000  0.0000
                                           -0.0000  0.0000  0.0000 -0.0000  0.0000
                                           -0.0000  0.0000 -0.0000 -0.0000  0.0000
                                           -0.0000  1.0000  0.0002  0.0000  0.0000
                                           -0.0000  0.0000  0.0000  0.0000  0.0000
                                            0.0000  0.0000  0.0000  0.0000  0.0000
                                           -0.0000  0.0000  0.0000  0.0000  0.0000
                                           -0.0000 -0.0000 -0.0000 -0.0000  0.0000
                                           -0.0000  0.0000  0.0000 -0.0000  0.0000
                                            0.0000  0.0000  0.0000 -0.0000 -0.0000
     9. (2.00001) CR ( 1)Cl   3           s(100.00%)
                                            1.0000  0.0000  0.0000 -0.0000  0.0000
                                           -0.0000 -0.0000 -0.0000 -0.0000  0.0000
                                           -0.0000 -0.0000 -0.0000 -0.0000  0.0000
                                           -0.0000 -0.0000 -0.0000 -0.0000  0.0000
                                           -0.0000 -0.0000 -0.0000 -0.0000 -0.0000
                                           -0.0000 -0.0000 -0.0000 -0.0000 -0.0000
                                            0.0000  0.0000 -0.0000  0.0000  0.0000
                                           -0.0000  0.0000  0.0000  0.0000  0.0000
                                            0.0000  0.0000  0.0000  0.0000 -0.0000
                                           -0.0000  0.0000  0.0000  0.0000  0.0000
    10. (2.00000) CR ( 2)Cl   3           s(100.00%)
                                            0.0000  1.0000  0.0000  0.0000  0.0000
                                            0.0000  0.0000  0.0000  0.0000 -0.0000
                                            0.0000  0.0000  0.0000  0.0000 -0.0000
                                            0.0000  0.0000  0.0000  0.0000 -0.0000
                                            0.0000  0.0000  0.0000  0.0000  0.0000
                                            0.0000  0.0000  0.0000  0.0000  0.0000
                                           -0.0000 -0.0000  0.0000 -0.0000 -0.0000
                                            0.0000 -0.0000 -0.0000 -0.0000 -0.0000
                                            0.0000 -0.0000 -0.0000 -0.0000  0.0000
                                            0.0000 -0.0000 -0.0000 -0.0000 -0.0000
    11. (2.00003) CR ( 3)Cl   3           s(  0.00%)p 1.00(100.00%)
                                           -0.0000  0.0000 -0.0000  0.0000 -0.0000
                                            0.0000  1.0000  0.0000 -0.0000  0.0000
                                           -0.0000 -0.0000 -0.0000 -0.0000  0.0000
                                           -0.0000 -0.0000 -0.0000 -0.0000  0.0000
                                           -0.0000  0.0000  0.0000  0.0000  0.0000
                                            0.0000  0.0000 -0.0000 -0.0000 -0.0000
                                            0.0000  0.0000 -0.0000 -0.0000 -0.0000
                                           -0.0000  0.0000  0.0000 -0.0000 -0.0000
                                           -0.0000 -0.0000  0.0000  0.0000  0.0000
                                            0.0000 -0.0000 -0.0000  0.0000  0.0000
    12. (2.00002) CR ( 4)Cl   3           s(  0.00%)p 1.00(100.00%)
                                           -0.0000  0.0000 -0.0000 -0.0000 -0.0000
                                           -0.0000 -0.0000 -0.0000 -0.0000  0.0000
                                           -0.0000  1.0000 -0.0000 -0.0000  0.0000
                                           -0.0000 -0.0000 -0.0000 -0.0000  0.0000
                                           -0.0000 -0.0000 -0.0000 -0.0000 -0.0000
                                           -0.0000 -0.0000 -0.0000 -0.0000 -0.0000
                                            0.0000  0.0000 -0.0000  0.0000 -0.0000
                                           -0.0000  0.0000  0.0000 -0.0000  0.0000
                                           -0.0000 -0.0000  0.0000  0.0000 -0.0000
                                           -0.0000  0.0000  0.0000  0.0000  0.0000
    13. (2.00002) CR ( 5)Cl   3           s(  0.00%)p 1.00(100.00%)
                                           -0.0000  0.0000 -0.0000 -0.0000  0.0000
                                           -0.0000 -0.0000 -0.0000 -0.0000  0.0000
                                           -0.0000 -0.0000 -0.0000  0.0000  0.0000
                                           -0.0000  1.0000  0.0000 -0.0000  0.0000
                                           -0.0000 -0.0000 -0.0000 -0.0000 -0.0000
                                           -0.0000 -0.0000 -0.0000 -0.0000 -0.0000
                                            0.0000  0.0000 -0.0000  0.0000  0.0000
                                            0.0000  0.0000  0.0000  0.0000  0.0000
                                            0.0000  0.0000  0.0000  0.0000 -0.0000
                                           -0.0000  0.0000  0.0000  0.0000  0.0000
    14. (1.96908) LP ( 1) O   1           s( 66.12%)p 0.51( 33.79%)d 0.00(  0.09%)
                                                  f 0.00(  0.00%)
                                            0.0002  0.8130  0.0106  0.0058 -0.0007
                                           -0.2568 -0.0027 -0.0041 -0.0017  0.3478
                                            0.0065  0.0043  0.0030 -0.3883 -0.0052
                                           -0.0040 -0.0013  0.0146  0.0007 -0.0027
                                           -0.0197 -0.0027  0.0012  0.0145  0.0001
                                           -0.0015  0.0042 -0.0003 -0.0028 -0.0068
                                           -0.0006  0.0011  0.0025 -0.0004 -0.0020
                                            0.0013  0.0013  0.0001 -0.0016  0.0009
                                            0.0027 -0.0010  0.0020 -0.0013  0.0029
                                           -0.0009
    15. (1.95372) LP ( 2) O   1           s(  0.03%)p99.99( 99.73%)d 7.89(  0.23%)
                                                  f 0.54(  0.02%)
                                           -0.0000 -0.0037  0.0153  0.0061 -0.0011
                                           -0.0225 -0.0029 -0.0005 -0.0017  0.7397
                                            0.0140  0.0042  0.0031  0.6701  0.0156
                                            0.0051  0.0046  0.0241  0.0037 -0.0009
                                            0.0216  0.0037 -0.0003  0.0113  0.0031
                                            0.0030  0.0097 -0.0038 -0.0066  0.0289
                                           -0.0010 -0.0066  0.0006  0.0005 -0.0005
                                           -0.0006 -0.0055  0.0003  0.0086 -0.0008
                                           -0.0003  0.0003 -0.0002 -0.0010  0.0066
                                           -0.0021
    16. (1.97472) LP ( 1)Cl   2           s( 92.07%)p 0.09(  7.90%)d 0.00(  0.02%)
                                                  f 0.00(  0.00%)
                                            0.0000  0.0003  0.9595  0.0071  0.0013
                                            0.0003  0.0000  0.2803 -0.0057 -0.0026
                                            0.0010 -0.0000 -0.0038  0.0022  0.0004
                                           -0.0004  0.0000  0.0211  0.0008  0.0001
                                            0.0002  0.0005 -0.0000 -0.0002  0.0003
                                            0.0004  0.0006 -0.0009 -0.0003  0.0002
                                           -0.0110  0.0006 -0.0002  0.0082  0.0008
                                            0.0003 -0.0003  0.0001 -0.0024 -0.0002
                                           -0.0002  0.0002  0.0002 -0.0000  0.0005
                                           -0.0003  0.0030  0.0003 -0.0004  0.0003
    17. (1.95622) LP ( 2)Cl   2           s(  0.02%)p99.99( 99.91%)d 2.20(  0.05%)
                                                  f 0.37(  0.01%)
                                            0.0000  0.0000  0.0122 -0.0088 -0.0039
                                            0.0018 -0.0000  0.0043  0.0003 -0.0009
                                            0.0010  0.0001 -0.6829 -0.0089 -0.0027
                                            0.0003  0.0001 -0.7298 -0.0112 -0.0033
                                            0.0014 -0.0053 -0.0123 -0.0060 -0.0045
                                           -0.0127 -0.0065 -0.0059 -0.0052 -0.0015
                                            0.0039  0.0029  0.0019  0.0002  0.0014
                                            0.0003  0.0027  0.0005  0.0006 -0.0004
                                            0.0016 -0.0001 -0.0060  0.0017  0.0005
                                           -0.0005  0.0007 -0.0004 -0.0060  0.0013
    18. (1.95520) LP ( 3)Cl   2           s(  0.04%)p99.99( 99.91%)d 1.15(  0.04%)
                                                  f 0.25(  0.01%)
                                            0.0000 -0.0000  0.0179  0.0045  0.0033
                                           -0.0013  0.0000 -0.0004 -0.0001 -0.0003
                                           -0.0007 -0.0001  0.7299  0.0094  0.0012
                                           -0.0002  0.0001 -0.6828 -0.0108 -0.0017
                                            0.0004 -0.0013  0.0109  0.0058  0.0026
                                           -0.0095 -0.0056 -0.0013 -0.0026 -0.0014
                                           -0.0078 -0.0049 -0.0027 -0.0034 -0.0034
                                           -0.0002  0.0038 -0.0003  0.0011 -0.0003
                                           -0.0002 -0.0009 -0.0047  0.0006 -0.0009
                                            0.0004 -0.0007 -0.0001  0.0069 -0.0012
    19. (1.98019) LP ( 1)Cl   3           s( 98.82%)p 0.01(  1.18%)d 0.00(  0.00%)
                                                  f 0.00(  0.00%)
                                           -0.0000  0.0000  0.9941 -0.0001  0.0000
                                           -0.0001  0.0000 -0.0222  0.0003 -0.0001
                                            0.0000  0.0000 -0.0972  0.0012 -0.0004
                                            0.0004  0.0000 -0.0430  0.0008 -0.0001
                                            0.0003  0.0007  0.0004  0.0001  0.0002
                                            0.0001 -0.0000  0.0013  0.0007  0.0000
                                           -0.0013 -0.0006  0.0000 -0.0007 -0.0003
                                           -0.0000 -0.0004 -0.0003 -0.0001 -0.0000
                                           -0.0002 -0.0001 -0.0005 -0.0004  0.0002
                                            0.0001 -0.0003 -0.0002 -0.0003 -0.0002
    20. (1.95206) LP ( 2)Cl   3           s(  0.00%)p 1.00( 99.99%)d 0.00(  0.01%)
                                                  f 0.00(  0.00%)
                                           -0.0000 -0.0000  0.0034  0.0003 -0.0006
                                            0.0009 -0.0000  0.9773 -0.0000  0.0007
                                           -0.0000  0.0000 -0.1081 -0.0001 -0.0001
                                           -0.0001  0.0000 -0.1818  0.0003 -0.0001
                                            0.0002  0.0066  0.0023  0.0005  0.0038
                                            0.0022  0.0012 -0.0012 -0.0001  0.0001
                                            0.0018  0.0005 -0.0001 -0.0011 -0.0005
                                           -0.0002 -0.0001 -0.0001 -0.0002 -0.0001
                                           -0.0004 -0.0002  0.0005  0.0003  0.0014
                                            0.0011 -0.0013 -0.0009  0.0009  0.0007
    21. (1.95129) LP ( 3)Cl   3           s(  0.00%)p 1.00( 99.99%)d 0.00(  0.00%)
                                                  f 0.00(  0.00%)
                                            0.0000  0.0000  0.0032  0.0005 -0.0020
                                            0.0020  0.0000 -0.1149 -0.0002 -0.0000
                                            0.0000 -0.0000  0.4508 -0.0016  0.0001
                                            0.0000  0.0000 -0.8852  0.0013 -0.0004
                                            0.0005 -0.0006 -0.0001 -0.0001 -0.0015
                                           -0.0005 -0.0001 -0.0023  0.0003  0.0009
                                           -0.0016 -0.0003  0.0005 -0.0049 -0.0024
                                           -0.0011 -0.0002 -0.0002 -0.0004 -0.0003
                                           -0.0019 -0.0013 -0.0000 -0.0002 -0.0004
                                           -0.0003 -0.0001 -0.0000 -0.0005 -0.0002
    22. (1.92582) LP ( 4)Cl   3           s(  1.18%)p84.00( 98.79%)d 0.02(  0.03%)
                                                  f 0.00(  0.00%)
                                            0.0000 -0.0000  0.1084  0.0013  0.0000
                                            0.0007  0.0000  0.1762  0.0001 -0.0001
                                            0.0004  0.0001  0.8806  0.0007 -0.0011
                                            0.0001  0.0000  0.4260  0.0035 -0.0004
                                            0.0009  0.0038  0.0014  0.0004  0.0028
                                            0.0009  0.0003  0.0133  0.0041  0.0014
                                           -0.0081 -0.0018  0.0003 -0.0021 -0.0006
                                            0.0001 -0.0019 -0.0013 -0.0001 -0.0001
                                           -0.0001 -0.0003 -0.0025 -0.0016  0.0011
                                            0.0008 -0.0011 -0.0008 -0.0013 -0.0007
    23. (0.01942) RY*( 1) O   1           s(  0.26%)p99.99( 97.88%)d 6.79(  1.80%)
                                                  f 0.21(  0.06%)
                                           -0.0000 -0.0010  0.0511  0.0054  0.0013
                                            0.0043 -0.0242 -0.0005 -0.0057 -0.0203
                                            0.7356 -0.0301 -0.0076 -0.0186  0.6594
                                           -0.0250 -0.0012  0.0705  0.0190  0.0045
                                            0.0617  0.0196  0.0069  0.0270  0.0080
                                            0.0061  0.0327 -0.0009 -0.0063  0.0797
                                            0.0040 -0.0077 -0.0037  0.0027  0.0022
                                           -0.0004 -0.0052  0.0056  0.0104 -0.0085
                                           -0.0002  0.0008  0.0036 -0.0014  0.0131
                                           -0.0104
    24. (0.01499) RY*( 2) O   1           s( 29.00%)p 2.32( 67.29%)d 0.12(  3.40%)
                                                  f 0.01(  0.31%)
                                           -0.0000  0.0002  0.5343 -0.0670 -0.0006
                                            0.0421 -0.3841 -0.0042  0.0296 -0.0124
                                            0.4552 -0.0059 -0.0256  0.0062 -0.5604
                                            0.0087  0.0220  0.0972  0.0137  0.0033
                                           -0.1410 -0.0241 -0.0099  0.0573  0.0062
                                           -0.0072 -0.0144  0.0062  0.0048 -0.0103
                                           -0.0006  0.0001  0.0118 -0.0084 -0.0238
                                            0.0110 -0.0173  0.0077 -0.0215  0.0091
                                            0.0186 -0.0099  0.0234 -0.0102  0.0136
                                           -0.0076
    25. (0.00761) RY*( 3) O   1           s( 13.30%)p 0.43(  5.67%)d 5.97( 79.37%)
                                                  f 0.12(  1.66%)
                                            0.0000  0.0131  0.3614 -0.0466  0.0084
                                           -0.0183 -0.1470  0.0034  0.0194 -0.0044
                                           -0.1309  0.0087 -0.0560 -0.0036  0.1161
                                           -0.0109  0.0192 -0.7222  0.0061 -0.0071
                                            0.4359  0.0066  0.0075  0.1928 -0.0037
                                            0.0122  0.1389  0.0101  0.0207  0.1573
                                           -0.0055  0.0010 -0.0050  0.0003  0.0169
                                           -0.0024  0.0132 -0.0001  0.0540 -0.0221
                                           -0.0566  0.0229 -0.0161  0.0006 -0.0861
                                            0.0358
    26. (0.00704) RY*( 4) O   1           s(  1.38%)p 0.32(  0.44%)d69.76( 96.44%)
                                                  f 1.26(  1.74%)
                                           -0.0000  0.0069  0.1170 -0.0084 -0.0031
                                           -0.0041 -0.0177  0.0044  0.0106 -0.0136
                                           -0.0530 -0.0096 -0.0002 -0.0103 -0.0212
                                           -0.0074  0.0143  0.4289 -0.0313  0.0019
                                            0.7709 -0.0366  0.0020  0.0701 -0.0059
                                            0.0025 -0.2586  0.0128 -0.0037 -0.3339
                                            0.0193 -0.0091 -0.0790  0.0332  0.0256
                                           -0.0100  0.0142 -0.0061  0.0558 -0.0232
                                           -0.0111  0.0029 -0.0044 -0.0022  0.0660
                                           -0.0295
    27. (0.00626) RY*( 5) O   1           s(  0.09%)p35.35(  3.32%)d99.99( 95.08%)
                                                  f15.97(  1.50%)
                                            0.0000  0.0003  0.0262 -0.0158 -0.0014
                                           -0.0097 -0.0885  0.0015  0.0184 -0.0357
                                           -0.1512  0.0136 -0.0086 -0.0190 -0.0116
                                           -0.0004  0.0072  0.4443 -0.0331  0.0022
                                            0.1795 -0.0249 -0.0065  0.1269 -0.0040
                                            0.0054  0.5278 -0.0306  0.0171  0.6486
                                           -0.0513  0.0157  0.0435 -0.0209  0.0244
                                           -0.0110 -0.0484  0.0231  0.0635 -0.0302
                                            0.0224 -0.0093  0.0531 -0.0204  0.0167
                                           -0.0063
    28. (0.00611) RY*( 6) O   1           s(  2.16%)p13.59( 29.37%)d30.95( 66.92%)
                                                  f 0.72(  1.55%)
                                           -0.0000  0.0140  0.1438 -0.0182 -0.0206
                                           -0.0147 -0.3272 -0.0014  0.0324 -0.0453
                                           -0.2845  0.0143  0.0114  0.0497  0.3143
                                           -0.0249 -0.0136  0.1678 -0.0035  0.0102
                                           -0.3115  0.0195 -0.0060  0.6605 -0.0437
                                            0.0231  0.0568  0.0010 -0.0070 -0.3179
                                            0.0216 -0.0051  0.0285 -0.0159 -0.0451
                                            0.0159  0.0731 -0.0356  0.0226 -0.0117
                                            0.0557 -0.0222  0.0327 -0.0115  0.0076
                                           -0.0047
    29. (0.00567) RY*( 7) O   1           s(  0.85%)p15.68( 13.27%)d98.79( 83.64%)
                                                  f 2.64(  2.24%)
                                           -0.0000  0.0180  0.0880 -0.0163  0.0115
                                            0.0721  0.3470 -0.0045 -0.0493 -0.0053
                                            0.0244 -0.0028  0.0002 -0.0085 -0.0626
                                            0.0007  0.0061  0.0217 -0.0112 -0.0078
                                           -0.0616  0.0155  0.0113  0.4496 -0.0709
                                           -0.0018 -0.6270  0.0558  0.0095  0.4756
                                           -0.0432 -0.0075  0.0376 -0.0172  0.0802
                                           -0.0302 -0.0043  0.0029 -0.0166  0.0064
                                            0.0303 -0.0109 -0.0995  0.0380  0.0223
                                           -0.0092
    30. (0.00273) RY*( 8) O   1           s(  3.90%)p11.65( 45.44%)d12.78( 49.82%)
                                                  f 0.22(  0.85%)
                                            0.0000 -0.0038  0.1961 -0.0201  0.0100
                                            0.0194 -0.5094  0.0288  0.0239  0.0169
                                           -0.2982  0.0255 -0.0624 -0.0235  0.3034
                                           -0.0592  0.0573  0.0995 -0.0235  0.0122
                                           -0.0982  0.0285 -0.0070 -0.4594  0.1273
                                           -0.0326 -0.4210  0.0224 -0.0832  0.2501
                                           -0.0118  0.0374  0.0131  0.0013  0.0265
                                           -0.0117 -0.0476  0.0400 -0.0280  0.0216
                                           -0.0184 -0.0023 -0.0391  0.0156  0.0131
                                           -0.0059
    31. (0.00243) RY*( 9) O   1           s( 44.07%)p 0.92( 40.66%)d 0.33( 14.49%)
                                                  f 0.02(  0.78%)
                                           -0.0000 -0.0031  0.6490 -0.1396 -0.0082
                                            0.0217  0.5659 -0.0165  0.0231  0.0006
                                           -0.1674  0.0260 -0.1464 -0.0048  0.1693
                                           -0.0560  0.0561  0.1401 -0.0471  0.0085
                                           -0.1561  0.0533 -0.0006 -0.1951  0.1173
                                           -0.0010  0.1452 -0.0107  0.0465 -0.1268
                                            0.0668 -0.0075  0.0228 -0.0113 -0.0340
                                            0.0377 -0.0400  0.0361 -0.0057  0.0069
                                            0.0005 -0.0042  0.0180 -0.0344  0.0056
                                           -0.0031
    32. (0.00076) RY*(10) O   1           s( 56.50%)p 0.49( 27.44%)d 0.19( 10.48%)
                                                  f 0.10(  5.58%)
                                           -0.0000 -0.0016  0.0571  0.7494  0.0113
                                            0.0123  0.0048 -0.1402 -0.2251 -0.0088
                                            0.0157  0.1735 -0.1522  0.0014 -0.0405
                                           -0.3726  0.0996  0.0080 -0.1149 -0.0441
                                           -0.0029  0.0472  0.0311  0.0273 -0.0136
                                            0.1195  0.0215 -0.0343 -0.1052 -0.0162
                                            0.2325  0.0641  0.1084 -0.0566  0.0303
                                           -0.0034 -0.1317  0.0337  0.0851 -0.0186
                                           -0.0826  0.0227 -0.0559  0.0087 -0.0572
                                           -0.0058
    33. (0.00070) RY*(11) O   1           s(  4.20%)p 4.53( 19.05%)d16.32( 68.61%)
                                                  f 1.93(  8.13%)
                                           -0.0000  0.0014  0.0873  0.1845 -0.0194
                                            0.0072  0.0427 -0.0057 -0.0091 -0.0068
                                           -0.0163 -0.2224  0.3042  0.0006  0.0174
                                           -0.0655  0.2041 -0.0242 -0.1183 -0.0492
                                            0.0026 -0.1336 -0.0144 -0.0025  0.0754
                                            0.0010 -0.0148 -0.5613 -0.1173 -0.0195
                                           -0.5615 -0.0274  0.0322 -0.0102 -0.2419
                                            0.0432  0.0365 -0.0122 -0.0323  0.0126
                                            0.0337 -0.0121 -0.1060  0.0143  0.0644
                                           -0.0143
    34. (0.00064) RY*(12) O   1           s(  0.02%)p99.99( 73.29%)d99.99( 12.91%)
                                                  f99.99( 13.78%)
                                            0.0000 -0.0022  0.0072  0.0068  0.0098
                                           -0.0012 -0.0121 -0.0266 -0.1096 -0.0022
                                            0.0276  0.7217 -0.1642 -0.0019  0.0282
                                            0.4070 -0.0710  0.0364 -0.2008  0.0092
                                            0.0109 -0.0367  0.0089 -0.0081 -0.1070
                                           -0.0089  0.0003 -0.0473  0.0169 -0.0265
                                           -0.2655 -0.0233  0.0628  0.0140 -0.1765
                                            0.0202  0.0546  0.0086 -0.1225 -0.0091
                                           -0.1641  0.0251 -0.1796  0.0182 -0.1518
                                           -0.0269
    35. (0.00057) RY*(13) O   1           s(  3.77%)p 4.02( 15.16%)d11.16( 42.07%)
                                                  f10.34( 39.00%)
                                           -0.0000  0.0042 -0.0082  0.1738  0.0861
                                            0.0091  0.0154  0.0459  0.0538 -0.0071
                                            0.0081  0.0989 -0.0452  0.0001 -0.0033
                                            0.3593 -0.0727 -0.0357  0.1581 -0.0334
                                            0.0551 -0.1164  0.0605  0.0487  0.5333
                                            0.0257 -0.0234 -0.1836 -0.0766  0.0096
                                            0.2120  0.0219  0.1739  0.0062  0.0329
                                           -0.0021 -0.0050  0.0036 -0.0694 -0.0108
                                            0.5916 -0.0293  0.0482 -0.0026 -0.0208
                                           -0.0066
    36. (0.00051) RY*(14) O   1           s(  0.04%)p99.99(  5.73%)d99.99( 63.17%)
                                                  f99.99( 31.06%)
                                            0.0000  0.0002  0.0145 -0.0105 -0.0089
                                           -0.0005 -0.0010  0.0008 -0.0100  0.0072
                                            0.0067 -0.2184  0.0834  0.0065  0.0257
                                            0.0407 -0.0110  0.0049 -0.6182  0.0711
                                           -0.0016 -0.4536  0.0630 -0.0103 -0.0375
                                           -0.0062 -0.0061  0.0917 -0.0236 -0.0026
                                            0.1519 -0.0328  0.1641  0.0143  0.1709
                                           -0.0094  0.1189  0.0025 -0.3081 -0.0143
                                           -0.0159 -0.0016  0.1649 -0.0035 -0.3420
                                           -0.0211
    37. (0.00050) RY*(15) O   1           s(  0.49%)p29.80( 14.50%)d21.90( 10.66%)
                                                  f99.99( 74.35%)
                                            0.0000 -0.0016  0.0387  0.0545 -0.0201
                                           -0.0005  0.0179 -0.2812  0.0014 -0.0034
                                           -0.0033  0.1639  0.1114 -0.0006  0.0117
                                            0.1446  0.0730 -0.0142  0.0841 -0.0172
                                           -0.0221  0.1551 -0.0419 -0.0029  0.0025
                                           -0.0124 -0.0508 -0.2032 -0.0479 -0.0167
                                           -0.1578  0.0350 -0.0311 -0.0058  0.5276
                                            0.0149  0.0587 -0.0048  0.0135  0.0119
                                           -0.1644 -0.0053  0.6570  0.0232  0.0262
                                           -0.0140
    38. (0.00050) RY*(16) O   1           s(  0.42%)p34.54( 14.38%)d46.66( 19.42%)
                                                  f99.99( 65.79%)
                                           -0.0000  0.0032  0.0314  0.0511 -0.0236
                                           -0.0010  0.0097  0.3013 -0.0218 -0.0068
                                           -0.0261 -0.0941 -0.0053  0.0012  0.0241
                                            0.2051  0.0122  0.0035  0.2976 -0.0384
                                            0.0173 -0.2166  0.0594  0.0097 -0.0994
                                            0.0512 -0.0074 -0.0980 -0.0507 -0.0160
                                            0.1632 -0.0412  0.5530  0.0401 -0.0278
                                           -0.0063 -0.1425 -0.0088 -0.1611 -0.0169
                                           -0.4558 -0.0080  0.0629  0.0038  0.3015
                                            0.0165
    39. (0.00047) RY*(17) O   1           s(  1.51%)p32.99( 49.92%)d 6.56(  9.93%)
                                                  f25.52( 38.63%)
                                           -0.0000  0.0035  0.0467  0.0951  0.0624
                                            0.0063 -0.0098  0.6816 -0.1630  0.0006
                                            0.0058  0.0764  0.0343  0.0000  0.0029
                                            0.0148  0.0260 -0.0273 -0.2166 -0.0537
                                           -0.0415  0.0871 -0.0398 -0.0203 -0.0759
                                            0.0028  0.0710 -0.0190  0.1031 -0.0519
                                           -0.1118 -0.0224 -0.1441 -0.0124  0.5062
                                            0.0532  0.0217  0.0057  0.0446  0.0118
                                            0.1516  0.0096 -0.1536 -0.0211  0.2365
                                            0.0259
    40. (0.00047) RY*(18) O   1           s(  3.07%)p14.90( 45.76%)d 7.23( 22.21%)
                                                  f 9.43( 28.96%)
                                            0.0000  0.0036  0.0648  0.1578  0.0399
                                           -0.0029 -0.0158 -0.0177 -0.0676 -0.0041
                                           -0.0238 -0.3653  0.0819 -0.0050  0.0162
                                            0.5431 -0.1284  0.0293 -0.1939  0.0324
[...]
                                           -0.1041 -0.1625  0.0800
   152. (0.00034) RY*( 7) H   4           s(  1.40%)p53.07( 74.37%)d17.29( 24.23%)
                                            0.0075  0.0385  0.0126  0.1110  0.0545
                                            0.6329  0.0709  0.0504 -0.1774  0.4547
                                           -0.1550  0.2649 -0.0142 -0.0051  0.1871
                                           -0.0679 -0.1374  0.2256 -0.1166 -0.2833
                                           -0.1081 -0.1507 -0.0679
   153. (0.00025) RY*( 8) H   4           s( 22.81%)p 0.93( 21.24%)d 2.45( 55.95%)
                                            0.0066 -0.0338  0.4500 -0.1561  0.0134
                                            0.1328 -0.0394  0.0128 -0.3570 -0.0199
                                            0.0124  0.0824 -0.2411  0.3138  0.0320
                                            0.4443 -0.1220 -0.0398 -0.1007  0.4705
                                            0.0830 -0.0421  0.0772
   154. (0.00024) RY*( 9) H   4           s(  5.45%)p 3.57( 19.44%)d13.79( 75.11%)
                                           -0.0007  0.0595 -0.1065  0.1989  0.0911
                                           -0.2161  0.0628  0.0539  0.0054  0.0567
                                           -0.0170 -0.1518  0.3256  0.5784 -0.0784
                                            0.4000  0.0957  0.4166  0.0042 -0.2508
                                           -0.0415 -0.0321 -0.0436
   155. (0.00020) RY*(10) H   4           s( 11.57%)p 2.78( 32.16%)d 4.86( 56.27%)
                                            0.0108  0.0295  0.1308  0.3124 -0.0905
                                           -0.0151 -0.2212  0.0866 -0.3550 -0.2618
                                            0.0061  0.0237  0.2481 -0.4796 -0.0762
                                           -0.0004  0.0107  0.5320  0.0565  0.1723
                                            0.1013 -0.0199  0.0136
   156. (0.00017) RY*(11) H   4           s( 19.99%)p 2.51( 50.28%)d 1.49( 29.73%)
                                           -0.0167 -0.0811  0.4304  0.0884  0.0188
                                            0.2184 -0.0330  0.1218  0.1584 -0.1256
                                           -0.0110 -0.5894 -0.2245  0.0102 -0.0896
                                           -0.1014 -0.0520  0.0626  0.0143 -0.3559
                                            0.1832 -0.0841  0.3237
   157. (0.00015) RY*(12) H   4           s(  8.79%)p 6.74( 59.23%)d 3.64( 31.98%)
                                           -0.0129 -0.0119  0.2670  0.1278 -0.0465
                                            0.0284 -0.2241 -0.0381  0.3238  0.4177
                                           -0.0991 -0.3306  0.3732 -0.1553 -0.0101
                                            0.1145  0.0222 -0.1791 -0.0565  0.3108
                                           -0.1410 -0.1855 -0.3095
   158. (0.00012) RY*(13) H   4           s( 44.26%)p 0.39( 17.45%)d 0.87( 38.29%)
                                           -0.0024 -0.0283 -0.4215  0.5139 -0.0291
                                           -0.0585 -0.1783  0.0240  0.1264  0.0642
                                           -0.0568  0.0204 -0.3378 -0.0590 -0.0620
                                            0.2285 -0.1032 -0.1204 -0.3539  0.1179
                                            0.1892 -0.2726  0.2214
   159. (0.00011) RY*(14) H   4           s(  2.80%)p 8.02( 22.49%)d26.64( 74.71%)
                                           -0.0082 -0.0767 -0.0804  0.1250  0.0248
                                            0.0719 -0.2706  0.0420 -0.0183  0.1697
                                            0.1082 -0.1895 -0.2595  0.0528 -0.0444
                                           -0.0614  0.0767  0.1585 -0.1922  0.1084
                                           -0.3613  0.7267 -0.0173
   160. (0.00009) RY*(15) H   4           s(  1.95%)p21.39( 41.66%)d28.96( 56.39%)
   161. (0.00007) RY*(16) H   4           s(  0.85%)p 4.69(  3.97%)d99.99( 95.19%)
   162. (0.00007) RY*(17) H   4           s(  0.28%)p37.69( 10.54%)d99.99( 89.18%)
   163. (0.00006) RY*(18) H   4           s(  0.76%)p 9.45(  7.14%)d99.99( 92.11%)
   164. (0.00005) RY*(19) H   4           s( 34.33%)p 0.44( 15.21%)d 1.47( 50.46%)
   165. (0.00003) RY*(20) H   4           s(  6.54%)p 3.46( 22.66%)d10.82( 70.80%)
   166. (0.00003) RY*(21) H   4           s( 16.61%)p 1.93( 32.01%)d 3.09( 51.38%)
   167. (0.00004) RY*(22) H   4           s(  0.59%)p54.95( 32.36%)d99.99( 67.05%)
   168. (0.05870) BD*( 1) O   1 -Cl   2  
                ( 41.10%)   0.6411* O   1 s(  9.53%)p 9.43( 89.90%)d 0.06(  0.55%)
                                                  f 0.00(  0.02%)
                                           -0.0003 -0.3058  0.0409  0.0120  0.0017
                                           -0.9471  0.0203  0.0086  0.0092 -0.0119
                                            0.0201  0.0038  0.0000 -0.0218 -0.0210
                                           -0.0039  0.0005  0.0131  0.0001 -0.0023
                                           -0.0220 -0.0031  0.0002  0.0136  0.0016
                                           -0.0012 -0.0592 -0.0054 -0.0010  0.0330
                                            0.0028  0.0006  0.0002 -0.0004  0.0062
                                            0.0002 -0.0001  0.0006 -0.0008  0.0013
                                            0.0069 -0.0018 -0.0095  0.0005  0.0005
                                           -0.0013
                ( 58.90%)  -0.7675*Cl   2 s(  8.19%)p11.05( 90.56%)d 0.14(  1.13%)
                                                  f 0.01(  0.11%)
                                            0.0000 -0.0005 -0.2797  0.0601  0.0103
                                            0.0025  0.0004  0.9492 -0.0661 -0.0135
                                            0.0035  0.0000  0.0031  0.0017 -0.0009
                                            0.0002 -0.0000 -0.0034  0.0002  0.0024
                                           -0.0013 -0.0040  0.0009 -0.0002  0.0136
                                            0.0018  0.0008  0.0052  0.0003 -0.0011
                                           -0.0909  0.0110  0.0006  0.0517 -0.0059
                                            0.0003  0.0008 -0.0002 -0.0194  0.0023
                                            0.0001 -0.0000 -0.0008  0.0000 -0.0019
                                            0.0016  0.0262 -0.0038  0.0005 -0.0005
   169. (0.04169) BD*( 1) O   1 - H   4  
                ( 22.99%)   0.4795* O   1 s( 24.46%)p 3.07( 74.99%)d 0.02(  0.54%)
                                                  f 0.00(  0.01%)
                                            0.0002  0.4945 -0.0041 -0.0066  0.0020
                                           -0.1650  0.0175  0.0025  0.0016 -0.5716
                                            0.0112  0.0057  0.0005  0.6288 -0.0085
                                           -0.0063 -0.0039 -0.0071 -0.0028 -0.0002
                                            0.0066  0.0030  0.0005 -0.0630 -0.0035
                                            0.0005 -0.0252 -0.0024 -0.0021  0.0252
                                            0.0033  0.0022 -0.0059  0.0008  0.0001
                                           -0.0009 -0.0072 -0.0008 -0.0025 -0.0020
                                            0.0013  0.0018 -0.0005  0.0013 -0.0033
                                            0.0018
                ( 77.01%)  -0.8775* H   4 s( 99.81%)p 0.00(  0.19%)d 0.00(  0.00%)
                                            0.9989  0.0159  0.0007 -0.0004  0.0106
                                            0.0065 -0.0031  0.0006  0.0211  0.0053
                                            0.0280 -0.0216 -0.0055 -0.0011 -0.0017
                                            0.0011  0.0018 -0.0023 -0.0000  0.0003
                                            0.0016 -0.0005 -0.0015


 NHO Directionality and "Bond Bending" (deviations from line of nuclear centers)

         [Thresholds for printing:  angular deviation  >  1.0 degree]
                                    hybrid p-character > 25.0%
                                    orbital occupancy  >  0.10e

                                Line of Centers        Hybrid 1              Hybrid 2
                                ---------------  -------------------   ------------------
                NBO               Theta   Phi    Theta   Phi    Dev    Theta   Phi    Dev
 ========================================================================================
     1. BD (   1) O   1 -Cl   2    90.0    0.0    87.1  359.2   3.0      --     --    --
     2. BD (   1) O   1 - H   4    45.0  257.5    43.2  255.5   2.3      --     --    --
    14. LP (   1) O   1             --     --    131.6  126.3   --       --     --    --
    15. LP (   2) O   1             --     --     47.6   92.1   --       --     --    --
    17. LP (   2)Cl   2             --     --    136.9  270.4   --       --     --    --
    18. LP (   3)Cl   2             --     --    133.2   90.1   --       --     --    --
    20. LP (   2)Cl   3             --     --    100.4  353.7   --       --     --    --
    21. LP (   3)Cl   3             --     --    152.3  104.4   --       --     --    --
    22. LP (   4)Cl   3             --     --     64.4   78.7   --       --     --    --


 Natural Bond Orbitals (Summary):

           NBO                  Occupancy  
 -----------------------------------------------
 Molecular unit  1  (HOCl)
     1. BD (   1) O   1 -Cl   2          1.93904
     2. BD (   1) O   1 - H   4          1.96476
     3. CR (   1) O   1                  1.99970
     4. CR (   1)Cl   2                  2.00000
     5. CR (   2)Cl   2                  1.99983
     6. CR (   3)Cl   2                  1.99997
     7. CR (   4)Cl   2                  2.00003
     8. CR (   5)Cl   2                  2.00003
    14. LP (   1) O   1                  1.96908
    15. LP (   2) O   1                  1.95372
    16. LP (   1)Cl   2                  1.97472
    17. LP (   2)Cl   2                  1.95622
    18. LP (   3)Cl   2                  1.95520
    23. RY*(   1) O   1                  0.01942
    24. RY*(   2) O   1                  0.01499
    25. RY*(   3) O   1                  0.00761
    26. RY*(   4) O   1                  0.00704
    27. RY*(   5) O   1                  0.00626
    28. RY*(   6) O   1                  0.00611
    29. RY*(   7) O   1                  0.00567
    30. RY*(   8) O   1                  0.00273
    31. RY*(   9) O   1                  0.00243
    32. RY*(  10) O   1                  0.00076
    33. RY*(  11) O   1                  0.00070
    34. RY*(  12) O   1                  0.00064
    35. RY*(  13) O   1                  0.00057
    36. RY*(  14) O   1                  0.00051
    37. RY*(  15) O   1                  0.00050
    38. RY*(  16) O   1                  0.00050
    39. RY*(  17) O   1                  0.00047
    40. RY*(  18) O   1                  0.00047
    41. RY*(  19) O   1                  0.00045
    42. RY*(  20) O   1                  0.00043
    43. RY*(  21) O   1                  0.00044
    44. RY*(  22) O   1                  0.00041
    45. RY*(  23) O   1                  0.00034
    46. RY*(  24) O   1                  0.00030
    47. RY*(  25) O   1                  0.00024
    48. RY*(  26) O   1                  0.00018
    49. RY*(  27) O   1                  0.00015
    50. RY*(  28) O   1                  0.00013
    51. RY*(  29) O   1                  0.00012
    52. RY*(  30) O   1                  0.00012
    53. RY*(  31) O   1                  0.00010
    54. RY*(  32) O   1                  0.00008
    55. RY*(  33) O   1                  0.00007
    56. RY*(  34) O   1                  0.00007
    57. RY*(  35) O   1                  0.00008
    58. RY*(  36) O   1                  0.00008
    59. RY*(  37) O   1                  0.00005
    60. RY*(  38) O   1                  0.00005
    61. RY*(  39) O   1                  0.00005
    62. RY*(  40) O   1                  0.00004
    63. RY*(  41) O   1                  0.00002
    64. RY*(   1)Cl   2                  0.02215
    65. RY*(   2)Cl   2                  0.01743
    66. RY*(   3)Cl   2                  0.01682
    67. RY*(   4)Cl   2                  0.01630
    68. RY*(   5)Cl   2                  0.01168
    69. RY*(   6)Cl   2                  0.00919
    70. RY*(   7)Cl   2                  0.00899
    71. RY*(   8)Cl   2                  0.00628
    72. RY*(   9)Cl   2                  0.00177
    73. RY*(  10)Cl   2                  0.00126
    74. RY*(  11)Cl   2                  0.00126
    75. RY*(  12)Cl   2                  0.00119
    76. RY*(  13)Cl   2                  0.00119
    77. RY*(  14)Cl   2                  0.00116
    78. RY*(  15)Cl   2                  0.00109
    79. RY*(  16)Cl   2                  0.00094
    80. RY*(  17)Cl   2                  0.00076
    81. RY*(  18)Cl   2                  0.00074
    82. RY*(  19)Cl   2                  0.00062
    83. RY*(  20)Cl   2                  0.00054
    84. RY*(  21)Cl   2                  0.00041
    85. RY*(  22)Cl   2                  0.00038
    86. RY*(  23)Cl   2                  0.00032
    87. RY*(  24)Cl   2                  0.00030
    88. RY*(  25)Cl   2                  0.00019
    89. RY*(  26)Cl   2                  0.00015
    90. RY*(  27)Cl   2                  0.00014
    91. RY*(  28)Cl   2                  0.00012
    92. RY*(  29)Cl   2                  0.00013
    93. RY*(  30)Cl   2                  0.00012
    94. RY*(  31)Cl   2                  0.00011
    95. RY*(  32)Cl   2                  0.00011
    96. RY*(  33)Cl   2                  0.00009
    97. RY*(  34)Cl   2                  0.00009
    98. RY*(  35)Cl   2                  0.00010
    99. RY*(  36)Cl   2                  0.00010
   100. RY*(  37)Cl   2                  0.00006
   101. RY*(  38)Cl   2                  0.00005
   102. RY*(  39)Cl   2                  0.00003
   103. RY*(  40)Cl   2                  0.00003
   104. RY*(  41)Cl   2                  0.00001
   146. RY*(   1) H   4                  0.00726
   147. RY*(   2) H   4                  0.00446
   148. RY*(   3) H   4                  0.00265
   149. RY*(   4) H   4                  0.00227
   150. RY*(   5) H   4                  0.00056
   151. RY*(   6) H   4                  0.00044
   152. RY*(   7) H   4                  0.00034
   153. RY*(   8) H   4                  0.00025
   154. RY*(   9) H   4                  0.00024
   155. RY*(  10) H   4                  0.00020
   156. RY*(  11) H   4                  0.00017
   157. RY*(  12) H   4                  0.00015
   158. RY*(  13) H   4                  0.00012
   159. RY*(  14) H   4                  0.00011
   160. RY*(  15) H   4                  0.00009
   161. RY*(  16) H   4                  0.00007
   162. RY*(  17) H   4                  0.00007
   163. RY*(  18) H   4                  0.00006
   164. RY*(  19) H   4                  0.00005
   165. RY*(  20) H   4                  0.00003
   166. RY*(  21) H   4                  0.00003
   167. RY*(  22) H   4                  0.00004
   168. BD*(   1) O   1 -Cl   2          0.05870
   169. BD*(   1) O   1 - H   4          0.04169
       -------------------------------
              Total Lewis   25.71228  ( 98.7486%)
        Valence non-Lewis    0.10039  (  0.3856%)
        Rydberg non-Lewis    0.22544  (  0.8658%)
       -------------------------------
            Total unit  1   26.03812  (100.0000%)
           Charge unit  1   -0.03812

 Molecular unit  2  (Cl)
     9. CR (   1)Cl   3                  2.00001
    10. CR (   2)Cl   3                  2.00000
    11. CR (   3)Cl   3                  2.00003
    12. CR (   4)Cl   3                  2.00002
    13. CR (   5)Cl   3                  2.00002
    19. LP (   1)Cl   3                  1.98019
    20. LP (   2)Cl   3                  1.95206
    21. LP (   3)Cl   3                  1.95129
    22. LP (   4)Cl   3                  1.92582
   105. RY*(   1)Cl   3                  0.01857
   106. RY*(   2)Cl   3                  0.01850
   107. RY*(   3)Cl   3                  0.01838
   108. RY*(   4)Cl   3                  0.01837
   109. RY*(   5)Cl   3                  0.01828
   110. RY*(   6)Cl   3                  0.01363
   111. RY*(   7)Cl   3                  0.01358
   112. RY*(   8)Cl   3                  0.01218
   113. RY*(   9)Cl   3                  0.00363
   114. RY*(  10)Cl   3                  0.00129
   115. RY*(  11)Cl   3                  0.00130
   116. RY*(  12)Cl   3                  0.00129
   117. RY*(  13)Cl   3                  0.00129
   118. RY*(  14)Cl   3                  0.00130
   119. RY*(  15)Cl   3                  0.00130
   120. RY*(  16)Cl   3                  0.00130
   121. RY*(  17)Cl   3                  0.00101
   122. RY*(  18)Cl   3                  0.00101
   123. RY*(  19)Cl   3                  0.00087
   124. RY*(  20)Cl   3                  0.00084
   125. RY*(  21)Cl   3                  0.00081
   126. RY*(  22)Cl   3                  0.00056
   127. RY*(  23)Cl   3                  0.00057
   128. RY*(  24)Cl   3                  0.00054
   129. RY*(  25)Cl   3                  0.00026
   130. RY*(  26)Cl   3                  0.00016
   131. RY*(  27)Cl   3                  0.00017
   132. RY*(  28)Cl   3                  0.00017
   133. RY*(  29)Cl   3                  0.00014
   134. RY*(  30)Cl   3                  0.00014
   135. RY*(  31)Cl   3                  0.00014
   136. RY*(  32)Cl   3                  0.00015
   137. RY*(  33)Cl   3                  0.00013
   138. RY*(  34)Cl   3                  0.00010
   139. RY*(  35)Cl   3                  0.00010
   140. RY*(  36)Cl   3                  0.00011
   141. RY*(  37)Cl   3                  0.00011
   142. RY*(  38)Cl   3                  0.00008
   143. RY*(  39)Cl   3                  0.00004
   144. RY*(  40)Cl   3                  0.00002
   145. RY*(  41)Cl   3                  0.00002
       -------------------------------
              Total Lewis   17.80944  ( 99.1513%)
        Valence non-Lewis    0.00000  (  0.0000%)
        Rydberg non-Lewis    0.15244  (  0.8487%)
       -------------------------------
            Total unit  2   17.96188  (100.0000%)
           Charge unit  2   -0.96188
 Leave Link  607 at Fri Nov  5 15:25:59 2021, MaxMem= 16106127360 cpu:              70.0 elap:               2.5
 (Enter /sw/contrib/gaussian/g16/B01/g16/l9999.exe)
 1\1\GINC-N2113\SP\RMP2-FC\Aug-CC-pVTZ\Cl2H1O1(1-)\CGAVINH\05-Nov-2021\
 0\\#p pop=NBO SP NoSymm mp2/aug-cc-pvtz density=current\\title\\-1,1\O
 \X,1,10.\Cl,1,1.69700154,2,90.\Cl,1,2.93100907,2,90.,3,102.48429983,0\
 H,1,0.96862334,2,45.,3,102.48429983,0\\Version=ES64L-G16RevB.01\HF=-99
 4.5066995\MP2=-995.1704908\RMSD=5.717e-09\Dipole=1.5489942,2.2629857,0
 .299752\Quadrupole=7.7064897,-17.5906397,9.88415,-6.2834758,-0.2381287
 ,-0.2349715\PG=C01 [X(Cl2H1O1)]\\@


            ARSENIC

 FOR SMELTER FUMES HAVE I BEEN NAMED,
    I AM AN EVIL POISONOUS SMOKE...
 BUT WHEN FROM POISON I AM FREED,
    THROUGH ART AND SLEIGHT OF HAND,
 THEN CAN I CURE BOTH MAN AND BEAST,
    FROM DIRE DISEASE OFTTIMES DIRECT THEM;
 BUT PREPARE ME CORRECTLY, AND TAKE GREAT CARE
    THAT YOU FAITHFULLY KEEP WATCHFUL GUARD OVER ME;
 FOR ELSE I AM POISON, AND POISON REMAIN,
    THAT PIERCES THE HEART OF MANY A ONE.

 ATTRIBUTED TO THE PROBABLY MYTHICAL 15TH
 CENTURY MONK, BASILIUS VALENTINUS
 Job cpu time:       0 days  0 hours  4 minutes 34.2 seconds.
 Elapsed time:       0 days  0 hours  0 minutes 15.4 seconds.
 File lengths (MBytes):  RWF=     14 Int=      0 D2E=      0 Chk=      8 Scr=      1
 Normal termination of Gaussian 16 at Fri Nov  5 15:25:59 2021.
