 Entering Gaussian System, Link 0=g16
 Input=clhocl_oop_40_sp.gjf
 Output=clhocl_oop_40_sp.log
 Initial command:
 /sw/contrib/gaussian/g16/B01/g16/l1.exe "/scr/Gau-23858.inp" -scrdir="/scr/"
 Entering Link 1 = /sw/contrib/gaussian/g16/B01/g16/l1.exe PID=     23859.
  
 Copyright (c) 1988-2017, Gaussian, Inc.  All Rights Reserved.
  
 This is part of the Gaussian(R) 16 program.  It is based on
 the Gaussian(R) 09 system (copyright 2009, Gaussian, Inc.),
 the Gaussian(R) 03 system (copyright 2003, Gaussian, Inc.),
 the Gaussian(R) 98 system (copyright 1998, Gaussian, Inc.),
 the Gaussian(R) 94 system (copyright 1995, Gaussian, Inc.),
 the Gaussian 92(TM) system (copyright 1992, Gaussian, Inc.),
 the Gaussian 90(TM) system (copyright 1990, Gaussian, Inc.),
 the Gaussian 88(TM) system (copyright 1988, Gaussian, Inc.),
 the Gaussian 86(TM) system (copyright 1986, Carnegie Mellon
 University), and the Gaussian 82(TM) system (copyright 1983,
 Carnegie Mellon University). Gaussian is a federally registered
 trademark of Gaussian, Inc.
  
 This software contains proprietary and confidential information,
 including trade secrets, belonging to Gaussian, Inc.
  
 This software is provided under written license and may be
 used, copied, transmitted, or stored only in accord with that
 written license.
  
 The following legend is applicable only to US Government
 contracts under FAR:
  
                    RESTRICTED RIGHTS LEGEND
  
 Use, reproduction and disclosure by the US Government is
 subject to restrictions as set forth in subparagraphs (a)
 and (c) of the Commercial Computer Software - Restricted
 Rights clause in FAR 52.227-19.
  
 Gaussian, Inc.
 340 Quinnipiac St., Bldg. 40, Wallingford CT 06492
  
  
 ---------------------------------------------------------------
 Warning -- This program may not be used in any manner that
 competes with the business of Gaussian, Inc. or will provide
 assistance to any competitor of Gaussian, Inc.  The licensee
 of this program is prohibited from giving any competitor of
 Gaussian, Inc. access to this program.  By using this program,
 the user acknowledges that Gaussian, Inc. is engaged in the
 business of creating and licensing software in the field of
 computational chemistry and represents and warrants to the
 licensee that it is not a competitor of Gaussian, Inc. and that
 it will not use this program in any manner prohibited above.
 ---------------------------------------------------------------
  

 Cite this work as:
 Gaussian 16, Revision B.01,
 M. J. Frisch, G. W. Trucks, H. B. Schlegel, G. E. Scuseria, 
 M. A. Robb, J. R. Cheeseman, G. Scalmani, V. Barone, 
 G. A. Petersson, H. Nakatsuji, X. Li, M. Caricato, A. V. Marenich, 
 J. Bloino, B. G. Janesko, R. Gomperts, B. Mennucci, H. P. Hratchian, 
 J. V. Ortiz, A. F. Izmaylov, J. L. Sonnenberg, D. Williams-Young, 
 F. Ding, F. Lipparini, F. Egidi, J. Goings, B. Peng, A. Petrone, 
 T. Henderson, D. Ranasinghe, V. G. Zakrzewski, J. Gao, N. Rega, 
 G. Zheng, W. Liang, M. Hada, M. Ehara, K. Toyota, R. Fukuda, 
 J. Hasegawa, M. Ishida, T. Nakajima, Y. Honda, O. Kitao, H. Nakai, 
 T. Vreven, K. Throssell, J. A. Montgomery, Jr., J. E. Peralta, 
 F. Ogliaro, M. J. Bearpark, J. J. Heyd, E. N. Brothers, K. N. Kudin, 
 V. N. Staroverov, T. A. Keith, R. Kobayashi, J. Normand, 
 K. Raghavachari, A. P. Rendell, J. C. Burant, S. S. Iyengar, 
 J. Tomasi, M. Cossi, J. M. Millam, M. Klene, C. Adamo, R. Cammi, 
 J. W. Ochterski, R. L. Martin, K. Morokuma, O. Farkas, 
 J. B. Foresman, and D. J. Fox, Gaussian, Inc., Wallingford CT, 2016.
 
 ******************************************
 Gaussian 16:  ES64L-G16RevB.01 20-Dec-2017
                 5-Nov-2021 
 ******************************************
 %nproc=28
 Will use up to   28 processors via shared memory.
 %mem=120GB
 %chk=/gscratch/ilahie/mccoygrp/coire_hocl/oop_s_rOH_f/clhocl/clhocl_oop_0_sp.chk
 ----------------------------------------------------
 #p pop=NBO SP NoSymm mp2/aug-cc-pvtz density=current
 ----------------------------------------------------
 1/30=1,38=1,172=1/1;
 2/12=2,15=1,17=6,18=5,40=1/2;
 3/5=16,6=1,7=10,11=9,25=1,30=1,71=1/1,2,3;
 4//1;
 5/5=2,38=5/2;
 8/6=4,10=1/1;
 9/15=1,16=-3/6;
 10/5=1,13=10,31=1/2;
 6/7=2,8=2,9=2,10=2,22=-1,40=1/1,7;
 99/5=1,9=1/99;
 Leave Link    1 at Fri Nov  5 15:25:28 2021, MaxMem= 16106127360 cpu:               0.7 elap:               0.0
 (Enter /sw/contrib/gaussian/g16/B01/g16/l101.exe)
 -----
 title
 -----
 Symbolic Z-matrix:
 Charge = -1 Multiplicity = 1
 O
 X                    1     10. 
 Cl                   1    r1       2     90. 
 Cl                   1    r2       2     90.      3    a1       0
 H                    1    r3       2    oop      3    a1       0
       Variables:
  r1                    1.697                    
  r2                    2.93101                  
  r3                    0.96862                  
  a1                  102.4843                   
  OOP                  50.                       
 
 ITRead=  0  0  0  0
 MicOpt= -1 -1 -1 -1
 NAtoms=      4 NQM=        4 NQMF=       0 NMMI=      0 NMMIF=      0
                NMic=       0 NMicF=      0.
                    Isotopes and Nuclear Properties:
 (Nuclear quadrupole moments (NQMom) in fm**2, nuclear magnetic moments (NMagM)
  in nuclear magnetons)

  Atom         1           2           3           4
 IAtWgt=          16          35          35           1
 AtmWgt=  15.9949146  34.9688527  34.9688527   1.0078250
 NucSpn=           0           3           3           1
 AtZEff=  -0.0000000  -0.0000000  -0.0000000  -0.0000000
 NQMom=    0.0000000  -8.1650000  -8.1650000   0.0000000
 NMagM=    0.0000000   0.8218740   0.8218740   2.7928460
 AtZNuc=   8.0000000  17.0000000  17.0000000   1.0000000
 Leave Link  101 at Fri Nov  5 15:25:28 2021, MaxMem= 16106127360 cpu:               2.9 elap:               0.1
 (Enter /sw/contrib/gaussian/g16/B01/g16/l202.exe)
                          Input orientation:                          
 ---------------------------------------------------------------------
 Center     Atomic      Atomic             Coordinates (Angstroms)
 Number     Number       Type             X           Y           Z
 ---------------------------------------------------------------------
      1          8           0        0.000000    0.000000    0.000000
      2         17           0        1.697002    0.000000    0.000000
      3         17           0       -0.633602   -2.861706    0.000000
      4          1           0       -0.160402   -0.724464    0.622619
 ---------------------------------------------------------------------
                    Distance matrix (angstroms):
                    1          2          3          4
     1  O    0.000000
     2  Cl   1.697002   0.000000
     3  Cl   2.931009   3.690674   0.000000
     4  H    0.968623   2.088648   2.275825   0.000000
 Symmetry turned off by external request.
 Stoichiometry    Cl2HO(1-)
 Framework group  C1[X(Cl2HO)]
 Deg. of freedom     6
 Full point group                 C1      NOp   1
 Rotational constants (GHZ):          22.2779483           2.0451618           1.8784423
 Leave Link  202 at Fri Nov  5 15:25:28 2021, MaxMem= 16106127360 cpu:               0.5 elap:               0.0
 (Enter /sw/contrib/gaussian/g16/B01/g16/l301.exe)
 Standard basis: Aug-CC-pVTZ (5D, 7F)
 Ernie: Thresh=  0.10000D-02 Tol=  0.10000D-05 Strict=F.
 Ernie:  29 primitive shells out of 169 were deleted.
   169 basis functions,   327 primitive gaussians,   198 cartesian basis functions
    22 alpha electrons       22 beta electrons
       nuclear repulsion energy       121.0309944678 Hartrees.
 IExCor=    0 DFT=F Ex=HF Corr=None ExCW=0 ScaHFX=  1.000000
 ScaDFX=  1.000000  1.000000  1.000000  1.000000 ScalE2=  1.000000  1.000000
 IRadAn=      5 IRanWt=     -1 IRanGd=            0 ICorTp=0 IEmpDi=  4
 NAtoms=    4 NActive=    4 NUniq=    4 SFac= 1.00D+00 NAtFMM=   60 NAOKFM=F Big=F
 Integral buffers will be    131072 words long.
 Raffenetti 1 integral format.
 Two-electron integral symmetry is turned off.
 Leave Link  301 at Fri Nov  5 15:25:29 2021, MaxMem= 16106127360 cpu:               1.6 elap:               0.1
 (Enter /sw/contrib/gaussian/g16/B01/g16/l302.exe)
 NPDir=0 NMtPBC=     1 NCelOv=     1 NCel=       1 NClECP=     1 NCelD=      1
         NCelK=      1 NCelE2=     1 NClLst=     1 CellRange=     0.0.
 One-electron integrals computed using PRISM.
 NBasis=   169 RedAO= T EigKep=  2.86D-04  NBF=   169
 NBsUse=   169 1.00D-06 EigRej= -1.00D+00 NBFU=   169
 Leave Link  302 at Fri Nov  5 15:25:29 2021, MaxMem= 16106127360 cpu:               4.2 elap:               0.2
 (Enter /sw/contrib/gaussian/g16/B01/g16/l303.exe)
 DipDrv:  MaxL=1.
 Leave Link  303 at Fri Nov  5 15:25:29 2021, MaxMem= 16106127360 cpu:               4.2 elap:               0.2
 (Enter /sw/contrib/gaussian/g16/B01/g16/l401.exe)
 ExpMin= 2.53D-02 ExpMax= 4.56D+05 ExpMxC= 1.44D+03 IAcc=3 IRadAn=         5 AccDes= 0.00D+00
 Harris functional with IExCor=  205 and IRadAn=       5 diagonalized for initial guess.
 HarFok:  IExCor=  205 AccDes= 0.00D+00 IRadAn=         5 IDoV= 1 UseB2=F ITyADJ=14
 ICtDFT=  3500011 ScaDFX=  1.000000  1.000000  1.000000  1.000000
 FoFCou: FMM=F IPFlag=           0 FMFlag=      100000 FMFlg1=           0
         NFxFlg=           0 DoJE=T BraDBF=F KetDBF=T FulRan=T
         wScrn=  0.000000 ICntrl=       500 IOpCl=  0 I1Cent=   200000004 NGrid=           0
         NMat0=    1 NMatS0=      1 NMatT0=    0 NMatD0=    1 NMtDS0=    0 NMtDT0=    0
 Symmetry not used in FoFCou.
 Harris En= -993.812212028036    
 JPrj=0 DoOrth=F DoCkMO=F.
 Leave Link  401 at Fri Nov  5 15:25:29 2021, MaxMem= 16106127360 cpu:               7.0 elap:               0.3
 (Enter /sw/contrib/gaussian/g16/B01/g16/l502.exe)
 Keep R1 ints in memory in canonical form, NReq=117118909.
 FoFCou: FMM=F IPFlag=           0 FMFlag=           0 FMFlg1=           0
         NFxFlg=           0 DoJE=F BraDBF=F KetDBF=F FulRan=T
         wScrn=  0.000000 ICntrl=       600 IOpCl=  0 I1Cent=           0 NGrid=           0
         NMat0=    1 NMatS0=  14365 NMatT0=    0 NMatD0=    1 NMtDS0=    0 NMtDT0=    0
 Symmetry not used in FoFCou.
 Two-electron integral symmetry not used.
 Closed shell SCF:
 Using DIIS extrapolation, IDIIS=  1040.
 NGot= 16106127360 LenX= 16002858349 LenY= 16002818704
 Requested convergence on RMS density matrix=1.00D-08 within 128 cycles.
 Requested convergence on MAX density matrix=1.00D-06.
 Requested convergence on             energy=1.00D-06.
 No special actions if energy rises.

 Cycle   1  Pass 1  IDiag  1:
 E= -994.374959214483    
 DIIS: error= 2.77D-02 at cycle   1 NSaved=   1.
 NSaved= 1 IEnMin= 1 EnMin= -994.374959214483     IErMin= 1 ErrMin= 2.77D-02
 ErrMax= 2.77D-02  0.00D+00 EMaxC= 1.00D-01 BMatC= 4.26D-01 BMatP= 4.26D-01
 IDIUse=3 WtCom= 7.23D-01 WtEn= 2.77D-01
 Coeff-Com:  0.100D+01
 Coeff-En:   0.100D+01
 Coeff:      0.100D+01
 Gap=     0.542 Goal=   None    Shift=    0.000
 GapD=    0.542 DampG=2.000 DampE=0.500 DampFc=1.0000 IDamp=-1.
 RMSDP=2.15D-03 MaxDP=7.10D-02              OVMax= 1.26D-01

 Cycle   2  Pass 1  IDiag  1:
 E= -994.473689347211     Delta-E=       -0.098730132728 Rises=F Damp=F
 DIIS: error= 1.32D-02 at cycle   2 NSaved=   2.
 NSaved= 2 IEnMin= 2 EnMin= -994.473689347211     IErMin= 2 ErrMin= 1.32D-02
 ErrMax= 1.32D-02  0.00D+00 EMaxC= 1.00D-01 BMatC= 5.11D-02 BMatP= 4.26D-01
 IDIUse=3 WtCom= 8.68D-01 WtEn= 1.32D-01
 Coeff-Com:  0.172D+00 0.828D+00
 Coeff-En:   0.000D+00 0.100D+01
 Coeff:      0.149D+00 0.851D+00
 Gap=     0.347 Goal=   None    Shift=    0.000
 RMSDP=1.01D-03 MaxDP=4.09D-02 DE=-9.87D-02 OVMax= 7.98D-02

 Cycle   3  Pass 1  IDiag  1:
 E= -994.500488853107     Delta-E=       -0.026799505896 Rises=F Damp=F
 DIIS: error= 6.52D-03 at cycle   3 NSaved=   3.
 NSaved= 3 IEnMin= 3 EnMin= -994.500488853107     IErMin= 3 ErrMin= 6.52D-03
 ErrMax= 6.52D-03  0.00D+00 EMaxC= 1.00D-01 BMatC= 1.32D-02 BMatP= 5.11D-02
 IDIUse=3 WtCom= 9.35D-01 WtEn= 6.52D-02
 Coeff-Com: -0.147D-01 0.326D+00 0.689D+00
 Coeff-En:   0.000D+00 0.921D-01 0.908D+00
 Coeff:     -0.138D-01 0.311D+00 0.703D+00
 Gap=     0.334 Goal=   None    Shift=    0.000
 RMSDP=3.48D-04 MaxDP=1.41D-02 DE=-2.68D-02 OVMax= 3.57D-02

 Cycle   4  Pass 1  IDiag  1:
 E= -994.509535102405     Delta-E=       -0.009046249298 Rises=F Damp=F
 DIIS: error= 8.31D-04 at cycle   4 NSaved=   4.
 NSaved= 4 IEnMin= 4 EnMin= -994.509535102405     IErMin= 4 ErrMin= 8.31D-04
 ErrMax= 8.31D-04  0.00D+00 EMaxC= 1.00D-01 BMatC= 1.79D-04 BMatP= 1.32D-02
 IDIUse=3 WtCom= 9.92D-01 WtEn= 8.31D-03
 Coeff-Com: -0.442D-02 0.286D-01 0.125D+00 0.851D+00
 Coeff-En:   0.000D+00 0.000D+00 0.000D+00 0.100D+01
 Coeff:     -0.439D-02 0.284D-01 0.124D+00 0.852D+00
 Gap=     0.327 Goal=   None    Shift=    0.000
 RMSDP=5.59D-05 MaxDP=1.34D-03 DE=-9.05D-03 OVMax= 3.05D-03

 Cycle   5  Pass 1  IDiag  1:
 E= -994.509719072919     Delta-E=       -0.000183970514 Rises=F Damp=F
 DIIS: error= 2.33D-04 at cycle   5 NSaved=   5.
 NSaved= 5 IEnMin= 5 EnMin= -994.509719072919     IErMin= 5 ErrMin= 2.33D-04
 ErrMax= 2.33D-04  0.00D+00 EMaxC= 1.00D-01 BMatC= 1.62D-05 BMatP= 1.79D-04
 IDIUse=3 WtCom= 9.98D-01 WtEn= 2.33D-03
 Coeff-Com:  0.941D-03-0.385D-01-0.728D-01-0.861D-02 0.112D+01
 Coeff-En:   0.000D+00 0.000D+00 0.000D+00 0.000D+00 0.100D+01
 Coeff:      0.939D-03-0.385D-01-0.726D-01-0.859D-02 0.112D+01
 Gap=     0.329 Goal=   None    Shift=    0.000
 RMSDP=3.38D-05 MaxDP=1.22D-03 DE=-1.84D-04 OVMax= 3.28D-03

 Cycle   6  Pass 1  IDiag  1:
 E= -994.509760838952     Delta-E=       -0.000041766033 Rises=F Damp=F
 DIIS: error= 9.26D-05 at cycle   6 NSaved=   6.
 NSaved= 6 IEnMin= 6 EnMin= -994.509760838952     IErMin= 6 ErrMin= 9.26D-05
 ErrMax= 9.26D-05  0.00D+00 EMaxC= 1.00D-01 BMatC= 2.10D-06 BMatP= 1.62D-05
 IDIUse=1 WtCom= 1.00D+00 WtEn= 0.00D+00
 Coeff-Com:  0.308D-03 0.762D-02 0.153D-01-0.691D-01-0.402D+00 0.145D+01
 Coeff:      0.308D-03 0.762D-02 0.153D-01-0.691D-01-0.402D+00 0.145D+01
 Gap=     0.329 Goal=   None    Shift=    0.000
 RMSDP=1.67D-05 MaxDP=5.96D-04 DE=-4.18D-05 OVMax= 1.62D-03

 Cycle   7  Pass 1  IDiag  1:
 E= -994.509768120513     Delta-E=       -0.000007281561 Rises=F Damp=F
 DIIS: error= 2.15D-05 at cycle   7 NSaved=   7.
 NSaved= 7 IEnMin= 7 EnMin= -994.509768120513     IErMin= 7 ErrMin= 2.15D-05
 ErrMax= 2.15D-05  0.00D+00 EMaxC= 1.00D-01 BMatC= 1.25D-07 BMatP= 2.10D-06
 IDIUse=1 WtCom= 1.00D+00 WtEn= 0.00D+00
 Coeff-Com: -0.195D-03-0.143D-03 0.272D-03 0.246D-01 0.682D-01-0.548D+00
 Coeff-Com:  0.146D+01
 Coeff:     -0.195D-03-0.143D-03 0.272D-03 0.246D-01 0.682D-01-0.548D+00
 Coeff:      0.146D+01
 Gap=     0.329 Goal=   None    Shift=    0.000
 RMSDP=4.99D-06 MaxDP=1.69D-04 DE=-7.28D-06 OVMax= 4.90D-04

 Cycle   8  Pass 1  IDiag  1:
 E= -994.509768675692     Delta-E=       -0.000000555180 Rises=F Damp=F
 DIIS: error= 6.41D-06 at cycle   8 NSaved=   8.
 NSaved= 8 IEnMin= 8 EnMin= -994.509768675692     IErMin= 8 ErrMin= 6.41D-06
 ErrMax= 6.41D-06  0.00D+00 EMaxC= 1.00D-01 BMatC= 9.19D-09 BMatP= 1.25D-07
 IDIUse=1 WtCom= 1.00D+00 WtEn= 0.00D+00
 Coeff-Com:  0.687D-07-0.810D-03-0.144D-02 0.392D-02 0.309D-01-0.896D-01
 Coeff-Com: -0.534D-01 0.111D+01
 Coeff:      0.687D-07-0.810D-03-0.144D-02 0.392D-02 0.309D-01-0.896D-01
 Coeff:     -0.534D-01 0.111D+01
 Gap=     0.329 Goal=   None    Shift=    0.000
 RMSDP=1.07D-06 MaxDP=2.03D-05 DE=-5.55D-07 OVMax= 1.17D-04

 Cycle   9  Pass 1  IDiag  1:
 E= -994.509768706794     Delta-E=       -0.000000031101 Rises=F Damp=F
 DIIS: error= 2.90D-06 at cycle   9 NSaved=   9.
 NSaved= 9 IEnMin= 9 EnMin= -994.509768706794     IErMin= 9 ErrMin= 2.90D-06
 ErrMax= 2.90D-06  0.00D+00 EMaxC= 1.00D-01 BMatC= 1.33D-09 BMatP= 9.19D-09
 IDIUse=1 WtCom= 1.00D+00 WtEn= 0.00D+00
 Coeff-Com:  0.198D-04 0.179D-03 0.354D-03-0.362D-02-0.159D-01 0.871D-01
 Coeff-Com: -0.167D+00-0.219D+00 0.132D+01
 Coeff:      0.198D-04 0.179D-03 0.354D-03-0.362D-02-0.159D-01 0.871D-01
 Coeff:     -0.167D+00-0.219D+00 0.132D+01
 Gap=     0.329 Goal=   None    Shift=    0.000
 RMSDP=5.37D-07 MaxDP=1.13D-05 DE=-3.11D-08 OVMax= 6.36D-05

 Cycle  10  Pass 1  IDiag  1:
 E= -994.509768712912     Delta-E=       -0.000000006118 Rises=F Damp=F
 DIIS: error= 1.32D-06 at cycle  10 NSaved=  10.
 NSaved=10 IEnMin=10 EnMin= -994.509768712912     IErMin=10 ErrMin= 1.32D-06
 ErrMax= 1.32D-06  0.00D+00 EMaxC= 1.00D-01 BMatC= 1.91D-10 BMatP= 1.33D-09
 IDIUse=1 WtCom= 1.00D+00 WtEn= 0.00D+00
 Coeff-Com: -0.225D-05 0.491D-04 0.348D-04 0.333D-03 0.346D-03-0.902D-02
 Coeff-Com:  0.455D-01-0.109D+00-0.280D+00 0.135D+01
 Coeff:     -0.225D-05 0.491D-04 0.348D-04 0.333D-03 0.346D-03-0.902D-02
 Coeff:      0.455D-01-0.109D+00-0.280D+00 0.135D+01
 Gap=     0.329 Goal=   None    Shift=    0.000
 RMSDP=2.37D-07 MaxDP=5.67D-06 DE=-6.12D-09 OVMax= 2.89D-05

 Cycle  11  Pass 1  IDiag  1:
 E= -994.509768713893     Delta-E=       -0.000000000980 Rises=F Damp=F
 DIIS: error= 4.18D-07 at cycle  11 NSaved=  11.
 NSaved=11 IEnMin=11 EnMin= -994.509768713893     IErMin=11 ErrMin= 4.18D-07
 ErrMax= 4.18D-07  0.00D+00 EMaxC= 1.00D-01 BMatC= 1.83D-11 BMatP= 1.91D-10
 IDIUse=1 WtCom= 1.00D+00 WtEn= 0.00D+00
 Coeff-Com: -0.300D-05-0.203D-04-0.318D-04 0.428D-03 0.169D-02-0.932D-02
 Coeff-Com:  0.152D-01 0.378D-01-0.111D+00-0.253D+00 0.132D+01
 Coeff:     -0.300D-05-0.203D-04-0.318D-04 0.428D-03 0.169D-02-0.932D-02
 Coeff:      0.152D-01 0.378D-01-0.111D+00-0.253D+00 0.132D+01
 Gap=     0.329 Goal=   None    Shift=    0.000
 RMSDP=8.24D-08 MaxDP=2.09D-06 DE=-9.80D-10 OVMax= 9.68D-06

 Cycle  12  Pass 1  IDiag  1:
 E= -994.509768713989     Delta-E=       -0.000000000097 Rises=F Damp=F
 DIIS: error= 8.06D-08 at cycle  12 NSaved=  12.
 NSaved=12 IEnMin=12 EnMin= -994.509768713989     IErMin=12 ErrMin= 8.06D-08
 ErrMax= 8.06D-08  0.00D+00 EMaxC= 1.00D-01 BMatC= 1.07D-12 BMatP= 1.83D-11
 IDIUse=1 WtCom= 1.00D+00 WtEn= 0.00D+00
 Coeff-Com:  0.493D-06-0.242D-05-0.121D-05-0.632D-04-0.178D-03 0.147D-02
 Coeff-Com: -0.456D-02 0.328D-02 0.316D-01-0.655D-01-0.144D+00 0.118D+01
 Coeff:      0.493D-06-0.242D-05-0.121D-05-0.632D-04-0.178D-03 0.147D-02
 Coeff:     -0.456D-02 0.328D-02 0.316D-01-0.655D-01-0.144D+00 0.118D+01
 Gap=     0.329 Goal=   None    Shift=    0.000
 RMSDP=1.62D-08 MaxDP=3.99D-07 DE=-9.69D-11 OVMax= 1.57D-06

 Cycle  13  Pass 1  IDiag  1:
 E= -994.509768713998     Delta-E=       -0.000000000008 Rises=F Damp=F
 DIIS: error= 2.10D-08 at cycle  13 NSaved=  13.
 NSaved=13 IEnMin=13 EnMin= -994.509768713998     IErMin=13 ErrMin= 2.10D-08
 ErrMax= 2.10D-08  0.00D+00 EMaxC= 1.00D-01 BMatC= 1.51D-13 BMatP= 1.07D-12
 IDIUse=1 WtCom= 1.00D+00 WtEn= 0.00D+00
 Coeff-Com:  0.229D-06 0.226D-05 0.244D-05-0.316D-04-0.132D-03 0.667D-03
 Coeff-Com: -0.677D-03-0.466D-02 0.598D-02 0.409D-01-0.134D+00-0.128D+00
 Coeff-Com:  0.122D+01
 Coeff:      0.229D-06 0.226D-05 0.244D-05-0.316D-04-0.132D-03 0.667D-03
 Coeff:     -0.677D-03-0.466D-02 0.598D-02 0.409D-01-0.134D+00-0.128D+00
 Coeff:      0.122D+01
 Gap=     0.329 Goal=   None    Shift=    0.000
 RMSDP=5.73D-09 MaxDP=1.21D-07 DE=-8.41D-12 OVMax= 4.11D-07

 SCF Done:  E(RHF) =  -994.509768714     A.U. after   13 cycles
            NFock= 13  Conv=0.57D-08     -V/T= 2.0001
 KE= 9.943844235278D+02 PE=-2.619752224013D+03 EE= 5.098270373034D+02
 Leave Link  502 at Fri Nov  5 15:25:32 2021, MaxMem= 16106127360 cpu:              25.4 elap:               3.2
 (Enter /sw/contrib/gaussian/g16/B01/g16/l801.exe)
 ExpMin= 2.53D-02 ExpMax= 4.56D+05 ExpMxC= 1.44D+03 IAcc=3 IRadAn=         5 AccDes= 0.00D+00
 HarFok:  IExCor=  205 AccDes= 0.00D+00 IRadAn=         5 IDoV=-2 UseB2=F ITyADJ=14
 ICtDFT= 12500011 ScaDFX=  1.000000  1.000000  1.000000  1.000000
 Largest valence mixing into a core orbital is  4.48D-04
 Largest core mixing into a valence orbital is  1.75D-04
 Range of M.O.s used for correlation:    12   169
 NBasis=   169 NAE=    22 NBE=    22 NFC=    11 NFV=     0
 NROrb=    158 NOA=    11 NOB=    11 NVA=   147 NVB=   147

 **** Warning!!: The largest alpha MO coefficient is  0.11007083D+02

 Leave Link  801 at Fri Nov  5 15:25:32 2021, MaxMem= 16106127360 cpu:               2.3 elap:               0.1
 (Enter /sw/contrib/gaussian/g16/B01/g16/l906.exe)
 Frozen-core derivative calculation, NFC=  11 NFV=   0.
 FulOut=F Deriv=T AODrv=F NAtomX=     4
   MMem=         144  MDisk=          11 MDiskD=          11
  W3Min=      736164 MinDsk=     1250177 NBas6D=         198
 NBas2D=       20187    NTT=       19701    LW2=     3500000
    MDV= 16105751494 MDiskM=      406660 NBas2p=       19980
 Fully in-core method, ICMem=   420417501.
 IMap=   1   2   3   4   5   6   7   8   9  10  11  12  13  14  15  16  17  18  19  20
 IMap=  21  22
 JobTyp=1 Pass  1 fully in-core, NPsUse= 28.
 Compute canonical integrals.
 FoFCou: FMM=F IPFlag=           0 FMFlag=           0 FMFlg1=           0
         NFxFlg=           0 DoJE=F BraDBF=F KetDBF=F FulRan=T
         wScrn=  0.000000 ICntrl=       600 IOpCl=  1 I1Cent=           0 NGrid=           0
         NMat0=    1 NMatS0=  20187 NMatT0=    0 NMatD0=    1 NMtDS0=    0 NMtDT0=    0
 Symmetry not used in FoFCou.
 Spin components of T(2) and E(2):
     alpha-alpha T2 =       0.2905304865D-01 E2=     -0.8339283011D-01
     alpha-beta  T2 =       0.1595260631D+00 E2=     -0.4971634387D+00
     beta-beta   T2 =       0.2905304865D-01 E2=     -0.8339283011D-01
 The integrals were generated   1 times.
 ANorm=    0.1103463710D+01
 E2 =    -0.6639490989D+00 EUMP2 =    -0.99517371781291D+03
 Leave Link  906 at Fri Nov  5 15:25:37 2021, MaxMem= 16106127360 cpu:             113.9 elap:               4.1
 (Enter /sw/contrib/gaussian/g16/B01/g16/l1002.exe)
 Minotr:  Closed shell wavefunction.
          Computing MP2/KS-MP2 derivatives.
          Using Z-Vector for PSCF gradient.
          Skipping F1 and S1 gradient terms here.
          Frozen-core window.
          Direct CPHF calculation.
          Differentiating once with respect to electric field.
                with respect to dipole field.
          Electric field/nuclear overlap derivatives assumed to be zero.
          Requested convergence is 1.0D-10 RMS, and 1.0D-09 maximum.
          NewPWx=F KeepS1=T KeepF1=T KeepIn=T MapXYZ=F SortEE=F KeepMc=T.
 Keep R1 ints in memory in canonical form, NReq=117123065.
 FoFCou: FMM=F IPFlag=           0 FMFlag=           0 FMFlg1=           0
         NFxFlg=           0 DoJE=F BraDBF=F KetDBF=F FulRan=T
         wScrn=  0.000000 ICntrl=       600 IOpCl=  0 I1Cent=           0 NGrid=           0
         NMat0=    1 NMatS0=  14365 NMatT0=    0 NMatD0=    1 NMtDS0=    0 NMtDT0=    0
 Symmetry not used in FoFCou.
 Two-electron integral symmetry not used.
          MDV=   16106127360 using IRadAn=       5.
          Solving linear equations separately, MaxMat=       0.
          There are     1 degrees of freedom in the 1st order CPHF.  IDoFFX=0 NUNeed=     1.
 LinEq1:  Iter=  0 NonCon=     1 RMS=3.07D-03 Max=4.00D-02 NDo=     1
 AX will form     1 AO Fock derivatives at one time.
 LinEq1:  Iter=  1 NonCon=     1 RMS=3.93D-04 Max=4.20D-03 NDo=     1
 LinEq1:  Iter=  2 NonCon=     1 RMS=1.66D-04 Max=2.79D-03 NDo=     1
 LinEq1:  Iter=  3 NonCon=     1 RMS=6.68D-05 Max=1.04D-03 NDo=     1
 LinEq1:  Iter=  4 NonCon=     1 RMS=2.86D-05 Max=5.69D-04 NDo=     1
 LinEq1:  Iter=  5 NonCon=     1 RMS=7.92D-06 Max=1.73D-04 NDo=     1
 LinEq1:  Iter=  6 NonCon=     1 RMS=2.58D-06 Max=4.24D-05 NDo=     1
 LinEq1:  Iter=  7 NonCon=     1 RMS=7.43D-07 Max=8.52D-06 NDo=     1
 LinEq1:  Iter=  8 NonCon=     1 RMS=1.44D-07 Max=1.89D-06 NDo=     1
 LinEq1:  Iter=  9 NonCon=     1 RMS=3.55D-08 Max=5.47D-07 NDo=     1
 LinEq1:  Iter= 10 NonCon=     1 RMS=9.81D-09 Max=1.80D-07 NDo=     1
 LinEq1:  Iter= 11 NonCon=     1 RMS=2.60D-09 Max=5.39D-08 NDo=     1
 LinEq1:  Iter= 12 NonCon=     1 RMS=7.55D-10 Max=1.02D-08 NDo=     1
 LinEq1:  Iter= 13 NonCon=     1 RMS=2.04D-10 Max=2.16D-09 NDo=     1
 LinEq1:  Iter= 14 NonCon=     0 RMS=5.01D-11 Max=7.04D-10 NDo=     1
 Linear equations converged to 1.000D-10 1.000D-09 after    14 iterations.
 End of Minotr F.D. properties file   721 does not exist.
 End of Minotr F.D. properties file   722 does not exist.
 End of Minotr F.D. properties file   788 does not exist.
 Leave Link 1002 at Fri Nov  5 15:25:40 2021, MaxMem= 16106127360 cpu:              26.5 elap:               3.6
 (Enter /sw/contrib/gaussian/g16/B01/g16/l601.exe)
 Copying SCF densities to generalized density rwf, IOpCl= 0 IROHF=0.

 **********************************************************************

            Population analysis using the MP2 Density.

 **********************************************************************

 Alpha  occ. eigenvalues -- -104.73651-104.52802 -20.47420 -10.45604 -10.25251
 Alpha  occ. eigenvalues --   -7.92319  -7.92052  -7.92037  -7.71861  -7.71852
 Alpha  occ. eigenvalues --   -7.71850  -1.24446  -0.90423  -0.76221  -0.55438
 Alpha  occ. eigenvalues --   -0.44990  -0.44019  -0.31559  -0.28920  -0.18000
 Alpha  occ. eigenvalues --   -0.17551  -0.17422
 Alpha virt. eigenvalues --    0.15481   0.17971   0.22309   0.23190   0.26358
 Alpha virt. eigenvalues --    0.27537   0.27792   0.28642   0.29978   0.31767
 Alpha virt. eigenvalues --    0.33205   0.34886   0.40762   0.41274   0.46051
 Alpha virt. eigenvalues --    0.48343   0.52571   0.53897   0.55494   0.57956
 Alpha virt. eigenvalues --    0.58596   0.59419   0.61001   0.62321   0.65293
 Alpha virt. eigenvalues --    0.66377   0.67636   0.68437   0.76050   0.79641
 Alpha virt. eigenvalues --    0.84928   0.87010   0.88374   0.89664   0.90775
 Alpha virt. eigenvalues --    0.92516   0.95613   0.98101   1.00463   1.05928
 Alpha virt. eigenvalues --    1.08110   1.08858   1.10160   1.11276   1.12634
 Alpha virt. eigenvalues --    1.15554   1.18870   1.19709   1.20594   1.21751
 Alpha virt. eigenvalues --    1.22331   1.23251   1.26561   1.28258   1.30711
 Alpha virt. eigenvalues --    1.32922   1.35186   1.38978   1.42010   1.43571
 Alpha virt. eigenvalues --    1.44650   1.48651   1.49227   1.52948   1.57108
 Alpha virt. eigenvalues --    1.59350   1.64986   1.68064   1.70431   1.71892
 Alpha virt. eigenvalues --    1.75569   1.81736   1.85317   1.86659   1.96799
 Alpha virt. eigenvalues --    1.97246   2.13057   2.37274   2.42026   2.49901
 Alpha virt. eigenvalues --    2.50207   2.52932   2.59540   2.61834   2.64197
 Alpha virt. eigenvalues --    2.68394   2.69076   2.70144   2.72115   2.74672
 Alpha virt. eigenvalues --    2.77464   2.80198   2.82111   2.82476   2.88760
 Alpha virt. eigenvalues --    2.89787   2.93738   2.94247   2.98560   3.00625
 Alpha virt. eigenvalues --    3.03632   3.10401   3.15822   3.19335   3.21593
 Alpha virt. eigenvalues --    3.23019   3.26650   3.29061   3.32317   3.35358
 Alpha virt. eigenvalues --    3.35626   3.39745   3.42540   3.46751   3.50170
 Alpha virt. eigenvalues --    3.51308   3.55265   3.58319   3.62296   3.92477
 Alpha virt. eigenvalues --    4.08867   4.37701   4.49265   4.57299   4.63283
 Alpha virt. eigenvalues --    4.73860   4.95140   5.02608   5.41694   5.49425
 Alpha virt. eigenvalues --    5.70826   6.13737   6.39472   6.64366   6.87110
 Alpha virt. eigenvalues --    6.90398   6.91437   6.98501   7.33842   7.38477
 Alpha virt. eigenvalues --    7.40599   7.46746   7.50197   7.71772   7.76341
 Alpha virt. eigenvalues --    8.41481  14.83241
          Condensed to atoms (all electrons):
               1          2          3          4
     1  O    8.486965  -0.106907  -0.076460   0.075122
     2  Cl  -0.106907  17.037179  -0.001105   0.002647
     3  Cl  -0.076460  -0.001105  17.926788   0.069240
     4  H    0.075122   0.002647   0.069240   0.623996
 Mulliken charges:
               1
     1  O   -0.378720
     2  Cl   0.068187
     3  Cl  -0.918462
     4  H    0.228995
 Sum of Mulliken charges =  -1.00000
 Mulliken charges with hydrogens summed into heavy atoms:
               1
     1  O   -0.149725
     2  Cl   0.068187
     3  Cl  -0.918462
 Electronic spatial extent (au):  <R**2>=            808.9049
 Charge=             -1.0000 electrons
 Dipole moment (field-independent basis, Debye):
    X=              1.8723    Y=             11.0528    Z=              0.5994  Tot=             11.2263
 Quadrupole moment (field-independent basis, Debye-Ang):
   XX=            -38.7458   YY=            -72.1037   ZZ=            -36.0206
   XY=             -8.2832   XZ=             -0.2933   YZ=             -0.3068
 Traceless Quadrupole moment (field-independent basis, Debye-Ang):
   XX=             10.2109   YY=            -23.1470   ZZ=             12.9361
   XY=             -8.2832   XZ=             -0.2933   YZ=             -0.3068
 Octapole moment (field-independent basis, Debye-Ang**2):
  XXX=            -30.8468  YYY=            248.6768  ZZZ=             -1.5793  XYY=             10.8446
  XXY=             53.2884  XXZ=             -1.1471  XZZ=            -12.2736  YZZ=             48.3157
  YYZ=             -2.3518  XYZ=             -0.4001
 Hexadecapole moment (field-independent basis, Debye-Ang**3):
 XXXX=           -301.4621 YYYY=          -1178.2430 ZZZZ=            -52.0799 XXXY=            -98.1610
 XXXZ=             -0.5798 YYYX=           -158.6567 YYYZ=              8.4063 ZZZX=              0.1105
 ZZZY=              1.9796 XXYY=           -217.5032 XXZZ=            -63.8415 YYZZ=           -156.6095
 XXYZ=              0.9036 YYXZ=              1.4200 ZZXY=            -31.2689
 N-N= 1.210309944678D+02 E-N=-2.619805427855D+03  KE= 9.950454263480D+02
 No NMR shielding tensors so no spin-rotation constants.
 Leave Link  601 at Fri Nov  5 15:25:40 2021, MaxMem= 16106127360 cpu:               4.3 elap:               0.2
 (Enter /sw/contrib/gaussian/g16/B01/g16/l607.exe)
 ******************************Gaussian NBO Version 3.1******************************
             N A T U R A L   A T O M I C   O R B I T A L   A N D
          N A T U R A L   B O N D   O R B I T A L   A N A L Y S I S
 ******************************Gaussian NBO Version 3.1******************************
       /RESON  / : Allow strongly delocalized NBO set

 Analyzing the MP2 density

 Job title: title                                                           

 Storage needed:     86521 in NPA,    114817 in NBO (********** available)
 GSVD:  LWork=        1191 too small for GESVD, short by       52514 words or       52514 for optimal perf.


 NATURAL POPULATIONS:  Natural atomic orbital occupancies 
                                                          
   NAO  Atom  No  lang   Type(AO)    Occupancy
 --------------------------------------------
     1    O    1  S      Cor( 1S)     1.99969
     2    O    1  S      Val( 2S)     1.79131
     3    O    1  S      Ryd( 3S)     0.00902
     4    O    1  S      Ryd( 4S)     0.00105
     5    O    1  S      Ryd( 5S)     0.00015
     6    O    1  px     Val( 2p)     1.20791
     7    O    1  px     Ryd( 3p)     0.00641
     8    O    1  px     Ryd( 4p)     0.00060
     9    O    1  px     Ryd( 5p)     0.00030
    10    O    1  py     Val( 2p)     1.78452
    11    O    1  py     Ryd( 3p)     0.01515
    12    O    1  py     Ryd( 4p)     0.00070
    13    O    1  py     Ryd( 5p)     0.00036
    14    O    1  pz     Val( 2p)     1.80950
    15    O    1  pz     Ryd( 3p)     0.01612
    16    O    1  pz     Ryd( 4p)     0.00071
    17    O    1  pz     Ryd( 5p)     0.00024
    18    O    1  dxy    Ryd( 3d)     0.00878
    19    O    1  dxy    Ryd( 4d)     0.00052
    20    O    1  dxy    Ryd( 5d)     0.00013
    21    O    1  dxz    Ryd( 3d)     0.00907
    22    O    1  dxz    Ryd( 4d)     0.00054
    23    O    1  dxz    Ryd( 5d)     0.00009
    24    O    1  dyz    Ryd( 3d)     0.01188
    25    O    1  dyz    Ryd( 4d)     0.00054
    26    O    1  dyz    Ryd( 5d)     0.00015
    27    O    1  dx2y2  Ryd( 3d)     0.01055
    28    O    1  dx2y2  Ryd( 4d)     0.00046
    29    O    1  dx2y2  Ryd( 5d)     0.00026
    30    O    1  dz2    Ryd( 3d)     0.00927
    31    O    1  dz2    Ryd( 4d)     0.00056
    32    O    1  dz2    Ryd( 5d)     0.00020
    33    O    1  f(0)   Ryd( 4f)     0.00058
    34    O    1  f(0)   Ryd( 5f)     0.00011
    35    O    1  f(C1)  Ryd( 4f)     0.00058
    36    O    1  f(C1)  Ryd( 5f)     0.00012
    37    O    1  f(S1)  Ryd( 4f)     0.00060
    38    O    1  f(S1)  Ryd( 5f)     0.00012
    39    O    1  f(C2)  Ryd( 4f)     0.00063
    40    O    1  f(C2)  Ryd( 5f)     0.00013
    41    O    1  f(S2)  Ryd( 4f)     0.00060
    42    O    1  f(S2)  Ryd( 5f)     0.00014
    43    O    1  f(C3)  Ryd( 4f)     0.00060
    44    O    1  f(C3)  Ryd( 5f)     0.00012
    45    O    1  f(S3)  Ryd( 4f)     0.00064
    46    O    1  f(S3)  Ryd( 5f)     0.00013

    47   Cl    2  S      Cor( 1S)     2.00000
    48   Cl    2  S      Cor( 2S)     1.99982
    49   Cl    2  S      Val( 3S)     1.88707
    50   Cl    2  S      Ryd( 4S)     0.00833
    51   Cl    2  S      Ryd( 5S)     0.00055
    52   Cl    2  S      Ryd( 6S)     0.00017
    53   Cl    2  px     Cor( 2p)     1.99997
    54   Cl    2  px     Val( 3p)     0.90411
    55   Cl    2  px     Ryd( 4p)     0.00663
    56   Cl    2  px     Ryd( 5p)     0.00052
    57   Cl    2  px     Ryd( 6p)     0.00019
    58   Cl    2  py     Cor( 2p)     2.00003
    59   Cl    2  py     Val( 3p)     1.95382
    60   Cl    2  py     Ryd( 4p)     0.00997
    61   Cl    2  py     Ryd( 5p)     0.00058
    62   Cl    2  py     Ryd( 6p)     0.00008
    63   Cl    2  pz     Cor( 2p)     2.00003
    64   Cl    2  pz     Val( 3p)     1.95429
    65   Cl    2  pz     Ryd( 4p)     0.01020
    66   Cl    2  pz     Ryd( 5p)     0.00060
    67   Cl    2  pz     Ryd( 6p)     0.00003
    68   Cl    2  dxy    Ryd( 3d)     0.01834
    69   Cl    2  dxy    Ryd( 4d)     0.00093
    70   Cl    2  dxy    Ryd( 5d)     0.00034
    71   Cl    2  dxz    Ryd( 3d)     0.01912
    72   Cl    2  dxz    Ryd( 4d)     0.00094
    73   Cl    2  dxz    Ryd( 5d)     0.00035
    74   Cl    2  dyz    Ryd( 3d)     0.01685
    75   Cl    2  dyz    Ryd( 4d)     0.00072
    76   Cl    2  dyz    Ryd( 5d)     0.00018
    77   Cl    2  dx2y2  Ryd( 3d)     0.01862
    78   Cl    2  dx2y2  Ryd( 4d)     0.00050
    79   Cl    2  dx2y2  Ryd( 5d)     0.00016
    80   Cl    2  dz2    Ryd( 3d)     0.01732
    81   Cl    2  dz2    Ryd( 4d)     0.00063
    82   Cl    2  dz2    Ryd( 5d)     0.00017
    83   Cl    2  f(0)   Ryd( 4f)     0.00128
    84   Cl    2  f(0)   Ryd( 5f)     0.00013
    85   Cl    2  f(C1)  Ryd( 4f)     0.00141
    86   Cl    2  f(C1)  Ryd( 5f)     0.00013
    87   Cl    2  f(S1)  Ryd( 4f)     0.00126
    88   Cl    2  f(S1)  Ryd( 5f)     0.00013
    89   Cl    2  f(C2)  Ryd( 4f)     0.00130
    90   Cl    2  f(C2)  Ryd( 5f)     0.00014
    91   Cl    2  f(S2)  Ryd( 4f)     0.00119
    92   Cl    2  f(S2)  Ryd( 5f)     0.00013
    93   Cl    2  f(C3)  Ryd( 4f)     0.00158
    94   Cl    2  f(C3)  Ryd( 5f)     0.00014
    95   Cl    2  f(S3)  Ryd( 4f)     0.00133
    96   Cl    2  f(S3)  Ryd( 5f)     0.00014

    97   Cl    3  S      Cor( 1S)     2.00001
    98   Cl    3  S      Cor( 2S)     2.00000
    99   Cl    3  S      Val( 3S)     1.97865
   100   Cl    3  S      Ryd( 4S)     0.00308
   101   Cl    3  S      Ryd( 5S)     0.00031
   102   Cl    3  S      Ryd( 6S)     0.00011
   103   Cl    3  px     Cor( 2p)     2.00003
   104   Cl    3  px     Val( 3p)     1.95075
   105   Cl    3  px     Ryd( 4p)     0.01342
   106   Cl    3  px     Ryd( 5p)     0.00058
   107   Cl    3  px     Ryd( 6p)     0.00006
   108   Cl    3  py     Cor( 2p)     2.00002
   109   Cl    3  py     Val( 3p)     1.92528
   110   Cl    3  py     Ryd( 4p)     0.01208
   111   Cl    3  py     Ryd( 5p)     0.00056
   112   Cl    3  py     Ryd( 6p)     0.00005
   113   Cl    3  pz     Cor( 2p)     2.00002
   114   Cl    3  pz     Val( 3p)     1.94606
   115   Cl    3  pz     Ryd( 4p)     0.01338
   116   Cl    3  pz     Ryd( 5p)     0.00058
   117   Cl    3  pz     Ryd( 6p)     0.00004
   118   Cl    3  dxy    Ryd( 3d)     0.01859
   119   Cl    3  dxy    Ryd( 4d)     0.00088
   120   Cl    3  dxy    Ryd( 5d)     0.00012
   121   Cl    3  dxz    Ryd( 3d)     0.01841
   122   Cl    3  dxz    Ryd( 4d)     0.00099
   123   Cl    3  dxz    Ryd( 5d)     0.00011
   124   Cl    3  dyz    Ryd( 3d)     0.01875
   125   Cl    3  dyz    Ryd( 4d)     0.00091
   126   Cl    3  dyz    Ryd( 5d)     0.00014
   127   Cl    3  dx2y2  Ryd( 3d)     0.01841
   128   Cl    3  dx2y2  Ryd( 4d)     0.00092
   129   Cl    3  dx2y2  Ryd( 5d)     0.00015
   130   Cl    3  dz2    Ryd( 3d)     0.01838
   131   Cl    3  dz2    Ryd( 4d)     0.00096
   132   Cl    3  dz2    Ryd( 5d)     0.00011
   133   Cl    3  f(0)   Ryd( 4f)     0.00130
   134   Cl    3  f(0)   Ryd( 5f)     0.00015
   135   Cl    3  f(C1)  Ryd( 4f)     0.00129
   136   Cl    3  f(C1)  Ryd( 5f)     0.00015
   137   Cl    3  f(S1)  Ryd( 4f)     0.00129
   138   Cl    3  f(S1)  Ryd( 5f)     0.00016
   139   Cl    3  f(C2)  Ryd( 4f)     0.00129
   140   Cl    3  f(C2)  Ryd( 5f)     0.00016
   141   Cl    3  f(S2)  Ryd( 4f)     0.00130
   142   Cl    3  f(S2)  Ryd( 5f)     0.00015
   143   Cl    3  f(C3)  Ryd( 4f)     0.00129
   144   Cl    3  f(C3)  Ryd( 5f)     0.00016
   145   Cl    3  f(S3)  Ryd( 4f)     0.00129
   146   Cl    3  f(S3)  Ryd( 5f)     0.00017

   147    H    4  S      Val( 1S)     0.48087
   148    H    4  S      Ryd( 2S)     0.00541
   149    H    4  S      Ryd( 3S)     0.00027
   150    H    4  S      Ryd( 4S)     0.00014
   151    H    4  px     Ryd( 2p)     0.00274
   152    H    4  px     Ryd( 3p)     0.00045
   153    H    4  px     Ryd( 4p)     0.00010
   154    H    4  py     Ryd( 2p)     0.00590
   155    H    4  py     Ryd( 3p)     0.00064
   156    H    4  py     Ryd( 4p)     0.00029
   157    H    4  pz     Ryd( 2p)     0.00341
   158    H    4  pz     Ryd( 3p)     0.00055
   159    H    4  pz     Ryd( 4p)     0.00019
   160    H    4  dxy    Ryd( 3d)     0.00023
   161    H    4  dxy    Ryd( 4d)     0.00009
   162    H    4  dxz    Ryd( 3d)     0.00017
   163    H    4  dxz    Ryd( 4d)     0.00007
   164    H    4  dyz    Ryd( 3d)     0.00031
   165    H    4  dyz    Ryd( 4d)     0.00009
   166    H    4  dx2y2  Ryd( 3d)     0.00027
   167    H    4  dx2y2  Ryd( 4d)     0.00011
   168    H    4  dz2    Ryd( 3d)     0.00023
   169    H    4  dz2    Ryd( 4d)     0.00011


 Summary of Natural Population Analysis:                  
                                                          
                                       Natural Population 
                Natural  -----------------------------------------------
    Atom  No    Charge         Core      Valence    Rydberg      Total
 -----------------------------------------------------------------------
      O    1   -0.70187      1.99969     6.59325    0.10892     8.70187
     Cl    2    0.15755      9.99985     6.69929    0.14331    16.84245
     Cl    3   -0.95306     10.00008     7.80073    0.15224    17.95306
      H    4    0.49737      0.00000     0.48087    0.02175     0.50263
 =======================================================================
   * Total *   -1.00000     21.99962    21.57414    0.42623    44.00000

                                 Natural Population      
 --------------------------------------------------------
   Core                      21.99962 ( 99.9983% of  22)
   Valence                   21.57414 ( 98.0643% of  22)
   Natural Minimal Basis     43.57377 ( 99.0313% of  44)
   Natural Rydberg Basis      0.42623 (  0.9687% of  44)
 --------------------------------------------------------

    Atom  No          Natural Electron Configuration
 ----------------------------------------------------------------------------
      O    1      [core]2S( 1.79)2p( 4.80)3S( 0.01)3p( 0.04)3d( 0.05)
     Cl    2      [core]3S( 1.89)3p( 4.81)4S( 0.01)3d( 0.09)4p( 0.03)4f( 0.01)
     Cl    3      [core]3S( 1.98)3p( 5.82)3d( 0.09)4p( 0.04)4f( 0.01)
      H    4            1S( 0.48)2S( 0.01)2p( 0.01)


 NATURAL BOND ORBITAL ANALYSIS:

                       Occupancies       Lewis Structure    Low   High
           Occ.    -------------------  -----------------   occ   occ
  Cycle   Thresh.   Lewis   Non-Lewis     CR  BD  3C  LP    (L)   (NL)   Dev
 =============================================================================
   1(1)    1.90    43.51396   0.48604     11   2   0   9     0      0    0.05
 -----------------------------------------------------------------------------

 Structure accepted: No low occupancy Lewis orbitals

 --------------------------------------------------------
   Core                     21.99962 ( 99.998% of  22)
   Valence Lewis            21.51434 ( 97.792% of  22)
  ==================       ============================
   Total Lewis              43.51396 ( 98.895% of  44)
  -----------------------------------------------------
   Valence non-Lewis         0.10786 (  0.245% of  44)
   Rydberg non-Lewis         0.37818 (  0.859% of  44)
  ==================       ============================
   Total non-Lewis           0.48604 (  1.105% of  44)
 --------------------------------------------------------


       (Occupancy)   Bond orbital/ Coefficients/ Hybrids
 ---------------------------------------------------------------------------------
     1. (1.93900) BD ( 1) O   1 -Cl   2  
                ( 58.86%)   0.7672* O   1 s(  9.63%)p 9.33( 89.81%)d 0.06(  0.54%)
                                                  f 0.00(  0.02%)
                                            0.0003  0.3074 -0.0407 -0.0125 -0.0016
                                            0.9466 -0.0217 -0.0090 -0.0094  0.0067
                                           -0.0219 -0.0041 -0.0000  0.0232  0.0194
                                            0.0036 -0.0004 -0.0149 -0.0003  0.0024
                                            0.0200  0.0028 -0.0002 -0.0132 -0.0015
                                            0.0012  0.0578  0.0052  0.0013 -0.0348
                                           -0.0031 -0.0005 -0.0001  0.0003 -0.0072
                                            0.0000 -0.0000 -0.0005  0.0007 -0.0013
                                           -0.0067  0.0017  0.0088 -0.0003 -0.0005
                                            0.0015
                ( 41.14%)   0.6414*Cl   2 s(  8.21%)p11.03( 90.55%)d 0.14(  1.13%)
                                                  f 0.01(  0.11%)
                                           -0.0000  0.0005  0.2801 -0.0594 -0.0104
                                           -0.0024 -0.0004 -0.9492  0.0659  0.0137
                                           -0.0038 -0.0000 -0.0043 -0.0016  0.0011
                                           -0.0003  0.0000  0.0040 -0.0001 -0.0022
                                            0.0011  0.0055 -0.0008  0.0003 -0.0126
                                           -0.0017 -0.0007 -0.0051 -0.0002  0.0011
                                            0.0904 -0.0109 -0.0006 -0.0524  0.0059
                                           -0.0001 -0.0008  0.0002  0.0197 -0.0025
                                           -0.0000 -0.0000  0.0007 -0.0000  0.0018
                                           -0.0015 -0.0260  0.0036 -0.0007  0.0004
     2. (1.96508) BD ( 1) O   1 - H   4  
                ( 77.44%)   0.8800* O   1 s( 25.39%)p 2.92( 74.07%)d 0.02(  0.53%)
                                                  f 0.00(  0.01%)
                                           -0.0002 -0.5038  0.0050  0.0070 -0.0021
                                            0.1713 -0.0178 -0.0027 -0.0018  0.6181
                                           -0.0112 -0.0061 -0.0011 -0.5734  0.0070
                                            0.0057  0.0039  0.0062  0.0028  0.0002
                                           -0.0048 -0.0026 -0.0005  0.0634  0.0037
                                           -0.0005  0.0307  0.0028  0.0021 -0.0150
                                           -0.0026 -0.0021  0.0071 -0.0006 -0.0002
                                            0.0007  0.0052  0.0008  0.0035  0.0019
                                           -0.0016 -0.0018  0.0002 -0.0015  0.0030
                                           -0.0019
                ( 22.56%)   0.4750* H   4 s( 99.81%)p 0.00(  0.19%)d 0.00(  0.00%)
                                           -0.9989 -0.0198 -0.0008 -0.0003 -0.0112
                                           -0.0068  0.0028  0.0013 -0.0232 -0.0060
                                           -0.0266  0.0201  0.0045  0.0009  0.0018
                                           -0.0012 -0.0017  0.0018 -0.0001  0.0000
                                           -0.0013  0.0009  0.0015
     3. (1.99969) CR ( 1) O   1           s(100.00%)p 0.00(  0.00%)
                                            1.0000 -0.0004  0.0000  0.0000  0.0000
                                           -0.0002  0.0000  0.0000  0.0000  0.0001
                                            0.0000 -0.0000 -0.0000 -0.0000 -0.0000
                                            0.0000  0.0000  0.0000  0.0000  0.0000
                                           -0.0000 -0.0000 -0.0000  0.0000  0.0000
                                           -0.0000 -0.0000 -0.0000  0.0000  0.0000
                                            0.0000 -0.0000  0.0000 -0.0000  0.0000
                                           -0.0000  0.0000  0.0000  0.0000  0.0000
                                            0.0000 -0.0000 -0.0000  0.0000  0.0000
                                           -0.0000
     4. (2.00000) CR ( 1)Cl   2           s(100.00%)
                                            1.0000  0.0000  0.0000 -0.0000 -0.0000
                                           -0.0000 -0.0000 -0.0000  0.0000  0.0000
                                           -0.0000 -0.0000 -0.0000 -0.0000  0.0000
                                           -0.0000  0.0000  0.0000  0.0000 -0.0000
                                            0.0000  0.0000 -0.0000  0.0000 -0.0000
                                           -0.0000 -0.0000 -0.0000 -0.0000  0.0000
                                            0.0000 -0.0000 -0.0000 -0.0000  0.0000
                                           -0.0000 -0.0000  0.0000  0.0000 -0.0000
                                           -0.0000 -0.0000  0.0000 -0.0000  0.0000
                                           -0.0000 -0.0000  0.0000 -0.0000  0.0000
     5. (1.99982) CR ( 2)Cl   2           s(100.00%)p 0.00(  0.00%)
                                            0.0000  1.0000 -0.0004  0.0000  0.0000
                                            0.0000  0.0000  0.0004 -0.0000 -0.0000
                                            0.0000  0.0000  0.0000  0.0000 -0.0000
                                            0.0000 -0.0000 -0.0000 -0.0000  0.0000
                                           -0.0000 -0.0000  0.0000 -0.0000  0.0000
                                            0.0000  0.0000  0.0000  0.0000 -0.0000
                                           -0.0000  0.0000  0.0000  0.0000 -0.0000
                                           -0.0000  0.0000 -0.0000 -0.0000  0.0000
                                            0.0000 -0.0000 -0.0000 -0.0000 -0.0000
                                            0.0000  0.0000 -0.0000  0.0000 -0.0000
     6. (1.99997) CR ( 3)Cl   2           s(  0.00%)p 1.00(100.00%)
                                           -0.0000  0.0000  0.0001 -0.0000 -0.0000
                                           -0.0000  1.0000 -0.0004  0.0000  0.0000
                                           -0.0000 -0.0000 -0.0000 -0.0000  0.0000
                                           -0.0000  0.0000  0.0000  0.0000 -0.0000
                                            0.0000  0.0000 -0.0000  0.0000 -0.0000
                                           -0.0000 -0.0000 -0.0000 -0.0000  0.0000
                                            0.0000 -0.0000 -0.0000 -0.0000  0.0000
                                           -0.0000 -0.0000  0.0000  0.0000 -0.0000
                                            0.0000 -0.0000  0.0000 -0.0000  0.0000
                                           -0.0000 -0.0000  0.0000 -0.0000  0.0000
     7. (2.00003) CR ( 4)Cl   2           s(  0.00%)p 1.00(100.00%)
                                           -0.0000  0.0000  0.0000  0.0000  0.0000
                                           -0.0000 -0.0000 -0.0000  0.0000  0.0000
                                           -0.0000  1.0000  0.0002  0.0000  0.0000
                                           -0.0000  0.0000 -0.0000 -0.0000  0.0000
                                           -0.0000  0.0000  0.0000  0.0000  0.0000
                                            0.0000  0.0000  0.0000  0.0000 -0.0000
                                           -0.0000 -0.0000 -0.0000 -0.0000 -0.0000
                                           -0.0000  0.0000 -0.0000  0.0000 -0.0000
                                           -0.0000 -0.0000  0.0000 -0.0000 -0.0000
                                            0.0000 -0.0000  0.0000  0.0000 -0.0000
     8. (2.00003) CR ( 5)Cl   2           s(  0.00%)p 1.00(100.00%)
                                            0.0000 -0.0000 -0.0000  0.0000  0.0000
                                           -0.0000  0.0000  0.0000 -0.0000  0.0000
                                           -0.0000  0.0000 -0.0000 -0.0000  0.0000
                                           -0.0000  1.0000  0.0002  0.0000  0.0000
                                           -0.0000  0.0000  0.0000  0.0000  0.0000
                                            0.0000  0.0000  0.0000  0.0000  0.0000
                                           -0.0000  0.0000  0.0000  0.0000  0.0000
                                            0.0000 -0.0000 -0.0000 -0.0000  0.0000
                                           -0.0000  0.0000  0.0000 -0.0000  0.0000
                                            0.0000  0.0000  0.0000 -0.0000 -0.0000
     9. (2.00001) CR ( 1)Cl   3           s(100.00%)
                                            1.0000 -0.0000  0.0000  0.0000 -0.0000
                                            0.0000  0.0000  0.0000  0.0000 -0.0000
                                            0.0000  0.0000  0.0000  0.0000 -0.0000
                                            0.0000  0.0000  0.0000  0.0000 -0.0000
                                            0.0000  0.0000  0.0000  0.0000  0.0000
                                            0.0000  0.0000  0.0000  0.0000  0.0000
                                           -0.0000 -0.0000  0.0000 -0.0000 -0.0000
                                            0.0000 -0.0000 -0.0000 -0.0000 -0.0000
                                           -0.0000 -0.0000 -0.0000 -0.0000  0.0000
                                            0.0000 -0.0000 -0.0000 -0.0000 -0.0000
    10. (2.00000) CR ( 2)Cl   3           s(100.00%)
                                           -0.0000  1.0000  0.0000  0.0000 -0.0000
                                            0.0000  0.0000  0.0000 -0.0000 -0.0000
                                            0.0000  0.0000  0.0000  0.0000 -0.0000
                                            0.0000  0.0000  0.0000  0.0000 -0.0000
                                            0.0000  0.0000  0.0000  0.0000  0.0000
                                            0.0000  0.0000  0.0000  0.0000  0.0000
                                           -0.0000 -0.0000  0.0000 -0.0000 -0.0000
                                            0.0000 -0.0000 -0.0000 -0.0000 -0.0000
                                           -0.0000 -0.0000 -0.0000 -0.0000  0.0000
                                            0.0000 -0.0000 -0.0000 -0.0000 -0.0000
    11. (2.00003) CR ( 3)Cl   3           s(  0.00%)p 1.00(100.00%)
                                            0.0000  0.0000 -0.0000  0.0000 -0.0000
                                            0.0000  1.0000  0.0000  0.0000  0.0000
                                           -0.0000 -0.0000 -0.0000 -0.0000  0.0000
                                           -0.0000 -0.0000 -0.0000 -0.0000  0.0000
                                           -0.0000  0.0000  0.0000  0.0000  0.0000
                                            0.0000  0.0000 -0.0000 -0.0000 -0.0000
                                            0.0000  0.0000 -0.0000  0.0000 -0.0000
                                           -0.0000  0.0000  0.0000 -0.0000 -0.0000
                                           -0.0000  0.0000  0.0000  0.0000  0.0000
                                            0.0000 -0.0000 -0.0000  0.0000  0.0000
    12. (2.00002) CR ( 4)Cl   3           s(  0.00%)p 1.00(100.00%)
                                            0.0000  0.0000 -0.0000 -0.0000 -0.0000
                                           -0.0000 -0.0000 -0.0000 -0.0000  0.0000
                                           -0.0000  1.0000 -0.0001 -0.0000  0.0000
                                           -0.0000 -0.0000 -0.0000 -0.0000  0.0000
                                           -0.0000 -0.0000 -0.0000 -0.0000 -0.0000
                                           -0.0000 -0.0000 -0.0000 -0.0000 -0.0000
                                            0.0000  0.0000 -0.0000  0.0000  0.0000
                                           -0.0000  0.0000  0.0000  0.0000  0.0000
                                           -0.0000  0.0000  0.0000  0.0000 -0.0000
                                           -0.0000  0.0000  0.0000  0.0000  0.0000
    13. (2.00002) CR ( 5)Cl   3           s(  0.00%)p 1.00(100.00%)
                                            0.0000  0.0000 -0.0000 -0.0000  0.0000
                                           -0.0000 -0.0000 -0.0000  0.0000  0.0000
                                           -0.0000 -0.0000 -0.0001  0.0000  0.0000
                                           -0.0000  1.0000  0.0000 -0.0000  0.0000
                                           -0.0000 -0.0000 -0.0000 -0.0000 -0.0000
                                           -0.0000 -0.0000 -0.0000 -0.0000 -0.0000
                                            0.0000  0.0000 -0.0000  0.0000  0.0000
                                            0.0000  0.0000  0.0000  0.0000  0.0000
                                            0.0000  0.0000  0.0000  0.0000 -0.0000
                                           -0.0000  0.0000  0.0000  0.0000  0.0000
    14. (1.96881) LP ( 1) O   1           s( 65.09%)p 0.53( 34.82%)d 0.00(  0.09%)
                                                  f 0.00(  0.00%)
                                            0.0002  0.8067  0.0110  0.0063 -0.0008
                                           -0.2546 -0.0030 -0.0041 -0.0018  0.3844
                                            0.0067  0.0046  0.0028 -0.3680 -0.0050
                                           -0.0037 -0.0010  0.0161  0.0010 -0.0027
                                           -0.0180 -0.0025  0.0011  0.0156  0.0003
                                           -0.0014  0.0058 -0.0003 -0.0030 -0.0045
                                           -0.0004  0.0011  0.0028 -0.0004 -0.0015
                                            0.0011  0.0009  0.0001 -0.0012  0.0008
                                            0.0026 -0.0010  0.0023 -0.0015  0.0030
                                           -0.0010
    15. (1.95365) LP ( 2) O   1           s(  0.02%)p99.99( 99.75%)d 9.97(  0.22%)
                                                  f 0.70(  0.02%)
                                           -0.0000  0.0005  0.0136  0.0055 -0.0009
                                           -0.0219 -0.0026 -0.0005 -0.0016  0.6820
                                            0.0128  0.0038  0.0029  0.7289  0.0163
                                            0.0054  0.0051  0.0218  0.0033 -0.0008
                                            0.0232  0.0039 -0.0003  0.0055  0.0033
                                            0.0042  0.0107 -0.0035 -0.0065  0.0290
                                           -0.0009 -0.0066 -0.0007  0.0006 -0.0006
                                           -0.0005 -0.0065  0.0002  0.0082 -0.0010
                                           -0.0002  0.0004 -0.0003 -0.0010  0.0058
                                           -0.0020
    16. (1.97464) LP ( 1)Cl   2           s( 92.05%)p 0.09(  7.93%)d 0.00(  0.02%)
                                                  f 0.00(  0.00%)
                                            0.0000  0.0003  0.9594  0.0070  0.0012
                                            0.0003  0.0000  0.2807 -0.0058 -0.0026
                                            0.0010 -0.0000 -0.0076  0.0021  0.0004
                                           -0.0004  0.0000  0.0213  0.0007  0.0001
                                            0.0002  0.0005 -0.0001 -0.0003  0.0003
                                            0.0004  0.0005 -0.0009 -0.0003  0.0002
                                           -0.0111  0.0006 -0.0001  0.0081  0.0008
                                            0.0003 -0.0003  0.0001 -0.0023 -0.0003
                                           -0.0001  0.0001  0.0002 -0.0000  0.0005
                                           -0.0003  0.0030  0.0002 -0.0005  0.0003
    17. (1.95621) LP ( 2)Cl   2           s(  0.02%)p99.99( 99.92%)d 2.42(  0.05%)
                                                  f 0.40(  0.01%)
                                            0.0000  0.0000  0.0119 -0.0077 -0.0034
                                            0.0017 -0.0000  0.0038  0.0003 -0.0008
                                            0.0009  0.0001 -0.6048 -0.0079 -0.0025
                                            0.0003  0.0001 -0.7957 -0.0122 -0.0036
                                            0.0016 -0.0050 -0.0110 -0.0054 -0.0051
                                           -0.0139 -0.0070 -0.0056 -0.0051 -0.0015
                                            0.0032  0.0024  0.0016 -0.0001  0.0009
                                            0.0002  0.0032  0.0003  0.0006 -0.0004
                                            0.0017 -0.0003 -0.0064  0.0017  0.0002
                                           -0.0003  0.0007 -0.0005 -0.0052  0.0011
    18. (1.95518) LP ( 3)Cl   2           s(  0.04%)p99.99( 99.91%)d 0.93(  0.04%)
                                                  f 0.20(  0.01%)
                                            0.0000 -0.0000  0.0200  0.0052  0.0035
                                           -0.0014  0.0000 -0.0012 -0.0002 -0.0003
                                           -0.0008 -0.0001  0.7958  0.0102  0.0014
                                           -0.0002  0.0001 -0.6046 -0.0096 -0.0015
                                            0.0004 -0.0011  0.0119  0.0064  0.0023
                                           -0.0083 -0.0049 -0.0008 -0.0021 -0.0012
                                           -0.0080 -0.0051 -0.0029 -0.0029 -0.0034
                                           -0.0003  0.0036 -0.0004  0.0009 -0.0002
                                           -0.0006 -0.0008 -0.0040  0.0004 -0.0009
                                            0.0004 -0.0008 -0.0000  0.0074 -0.0013
    19. (1.97986) LP ( 1)Cl   3           s( 98.10%)p 0.02(  1.90%)d 0.00(  0.00%)
                                                  f 0.00(  0.00%)
                                            0.0000  0.0000  0.9905 -0.0002  0.0000
                                           -0.0001  0.0000 -0.0289  0.0002 -0.0001
                                            0.0000  0.0000 -0.1236  0.0012 -0.0004
                                            0.0004  0.0000 -0.0536  0.0007 -0.0001
                                            0.0003  0.0007  0.0003  0.0000  0.0002
                                            0.0001 -0.0000  0.0010  0.0005 -0.0000
                                           -0.0013 -0.0006  0.0001 -0.0008 -0.0003
                                            0.0000 -0.0003 -0.0003 -0.0001 -0.0000
                                           -0.0002 -0.0001 -0.0004 -0.0004  0.0002
                                            0.0001 -0.0003 -0.0002 -0.0003 -0.0002
    20. (1.95208) LP ( 2)Cl   3           s(  0.00%)p 1.00( 99.99%)d 0.00(  0.01%)
                                                  f 0.00(  0.00%)
                                           -0.0000 -0.0000  0.0038  0.0005 -0.0006
                                            0.0009 -0.0000  0.9690  0.0003  0.0008
                                           -0.0001  0.0000 -0.0978 -0.0001 -0.0001
                                           -0.0000  0.0000 -0.2266  0.0003 -0.0001
                                            0.0003  0.0071  0.0022  0.0003  0.0037
                                            0.0020  0.0011 -0.0015 -0.0001  0.0002
                                            0.0019  0.0004 -0.0001 -0.0014 -0.0006
                                           -0.0002 -0.0001 -0.0001 -0.0003 -0.0002
                                           -0.0005 -0.0003  0.0006  0.0003  0.0014
                                            0.0010 -0.0015 -0.0010  0.0009  0.0007
    21. (1.95148) LP ( 3)Cl   3           s(  0.00%)p 1.00( 99.99%)d 0.00(  0.01%)
                                                  f 0.00(  0.00%)
                                            0.0000  0.0000  0.0014  0.0007 -0.0018
                                            0.0019  0.0000 -0.1634 -0.0002 -0.0001
                                            0.0001 -0.0000  0.4338 -0.0013  0.0000
                                            0.0001  0.0000 -0.8860  0.0009 -0.0006
                                            0.0005 -0.0009 -0.0002 -0.0001 -0.0017
                                           -0.0005 -0.0002 -0.0028  0.0001  0.0009
                                           -0.0021 -0.0003  0.0006 -0.0051 -0.0024
                                           -0.0010  0.0000 -0.0001 -0.0004 -0.0003
                                           -0.0020 -0.0013  0.0001 -0.0001 -0.0006
                                           -0.0004  0.0000  0.0000 -0.0006 -0.0003
    22. (1.91833) LP ( 4)Cl   3           s(  1.89%)p51.77( 98.07%)d 0.02(  0.03%)
                                                  f 0.00(  0.00%)
                                           -0.0000 -0.0000  0.1376  0.0011 -0.0003
                                            0.0009  0.0000  0.1827 -0.0000 -0.0001
                                            0.0004  0.0001  0.8870  0.0001 -0.0013
                                            0.0002  0.0000  0.4008  0.0030 -0.0005
                                            0.0008  0.0044  0.0015  0.0004  0.0029
                                            0.0009  0.0003  0.0134  0.0040  0.0012
                                           -0.0094 -0.0021  0.0003 -0.0032 -0.0009
                                           -0.0000 -0.0020 -0.0013 -0.0002 -0.0002
                                           -0.0005 -0.0005 -0.0026 -0.0016  0.0012
                                            0.0008 -0.0014 -0.0010 -0.0016 -0.0008
    23. (0.01940) RY*( 1) O   1           s(  0.25%)p99.99( 98.00%)d 6.72(  1.69%)
                                                  f 0.22(  0.06%)
                                           -0.0000 -0.0008  0.0499  0.0050  0.0016
                                            0.0040 -0.0234 -0.0004 -0.0051 -0.0183
                                            0.6772 -0.0278 -0.0083 -0.0199  0.7200
                                           -0.0281 -0.0022  0.0641  0.0175  0.0044
                                            0.0666  0.0212  0.0077  0.0109  0.0066
                                            0.0075  0.0327 -0.0011 -0.0067  0.0784
                                            0.0045 -0.0076 -0.0049  0.0037  0.0020
                                           -0.0002 -0.0057  0.0060  0.0107 -0.0089
                                           -0.0009  0.0010  0.0034 -0.0013  0.0121
                                           -0.0096
    24. (0.01512) RY*( 2) O   1           s( 28.82%)p 2.35( 67.77%)d 0.11(  3.11%)
                                                  f 0.01(  0.30%)
                                           -0.0000  0.0003  0.5332 -0.0623 -0.0014
                                            0.0414 -0.3758 -0.0039  0.0279 -0.0130
                                            0.5075 -0.0050 -0.0280  0.0061 -0.5243
                                            0.0082  0.0228  0.1044  0.0155  0.0038
                                           -0.1255 -0.0226 -0.0099  0.0580  0.0045
                                           -0.0083 -0.0071  0.0063  0.0043  0.0002
                                            0.0010 -0.0002  0.0074 -0.0063 -0.0208
                                            0.0095 -0.0165  0.0081 -0.0217  0.0094
                                            0.0189 -0.0101  0.0249 -0.0110  0.0151
                                           -0.0081
    25. (0.00764) RY*( 3) O   1           s( 13.43%)p 0.43(  5.81%)d 5.90( 79.15%)
                                                  f 0.12(  1.62%)
                                            0.0000  0.0134  0.3628 -0.0488  0.0096
                                           -0.0184 -0.1446  0.0038  0.0201 -0.0047
                                           -0.1439  0.0109 -0.0584 -0.0027  0.1084
                                           -0.0103  0.0162 -0.7534  0.0030 -0.0101
                                            0.3703  0.0083  0.0085  0.1503 -0.0032
                                            0.0105  0.1584  0.0099  0.0226  0.1950
                                           -0.0061  0.0028 -0.0014 -0.0003  0.0088
                                            0.0008  0.0053  0.0031  0.0455 -0.0184
                                           -0.0554  0.0227 -0.0219  0.0033 -0.0902
                                            0.0379
    26. (0.00703) RY*( 4) O   1           s(  1.19%)p 0.32(  0.38%)d81.09( 96.69%)
                                                  f 1.45(  1.73%)
                                           -0.0000  0.0064  0.1086 -0.0088 -0.0027
                                           -0.0044 -0.0139  0.0043  0.0093 -0.0114
                                           -0.0432 -0.0080 -0.0018 -0.0121 -0.0335
                                           -0.0074  0.0123  0.3512 -0.0270  0.0017
                                            0.8178 -0.0369  0.0046  0.1200 -0.0082
                                            0.0028 -0.2414  0.0132 -0.0018 -0.3154
                                            0.0174 -0.0089 -0.0761  0.0325  0.0241
                                           -0.0096  0.0216 -0.0093  0.0640 -0.0269
                                           -0.0161  0.0053 -0.0054 -0.0016  0.0582
                                           -0.0262
    27. (0.00627) RY*( 5) O   1           s(  0.17%)p25.19(  4.17%)d99.99( 94.16%)
                                                  f 9.08(  1.50%)
                                           -0.0000  0.0011  0.0367 -0.0173 -0.0019
                                           -0.0097 -0.1047  0.0017  0.0203 -0.0369
                                           -0.1679  0.0140 -0.0096 -0.0178 -0.0012
                                           -0.0018  0.0070  0.4505 -0.0297  0.0047
                                            0.1881 -0.0257 -0.0068  0.0372  0.0025
                                            0.0041  0.5320 -0.0292  0.0179  0.6430
                                           -0.0482  0.0173  0.0343 -0.0169  0.0236
                                           -0.0109 -0.0602  0.0288  0.0587 -0.0283
                                            0.0185 -0.0078  0.0562 -0.0217  0.0117
                                           -0.0040
    28. (0.00606) RY*( 6) O   1           s(  1.98%)p13.60( 26.95%)d35.07( 69.50%)
                                                  f 0.79(  1.57%)
                                           -0.0000  0.0133  0.1368 -0.0234 -0.0194
                                           -0.0176 -0.3235  0.0002  0.0342 -0.0464
                                           -0.2849  0.0160  0.0110  0.0476  0.2768
                                           -0.0227 -0.0157  0.1655 -0.0031  0.0111
                                           -0.2840  0.0185 -0.0056  0.6986 -0.0455
                                            0.0247  0.0984  0.0036 -0.0012 -0.2924
                                            0.0199 -0.0042  0.0368 -0.0201 -0.0410
                                            0.0144  0.0677 -0.0325  0.0316 -0.0160
                                            0.0553 -0.0223  0.0375 -0.0135  0.0027
                                           -0.0024
    29. (0.00567) RY*( 7) O   1           s(  0.93%)p13.60( 12.65%)d90.55( 84.22%)
                                                  f 2.36(  2.20%)
                                           -0.0000  0.0184  0.0922 -0.0177  0.0124
                                            0.0716  0.3404 -0.0042 -0.0487 -0.0053
                                            0.0227 -0.0006 -0.0009 -0.0066 -0.0503
                                           -0.0003  0.0059  0.0334 -0.0130 -0.0090
                                           -0.0613  0.0143  0.0103  0.4465 -0.0688
                                           -0.0011 -0.5964  0.0494  0.0092  0.5216
                                           -0.0493 -0.0063  0.0349 -0.0158  0.0825
                                           -0.0313 -0.0073  0.0042 -0.0147  0.0060
                                            0.0304 -0.0111 -0.0960  0.0372  0.0250
                                           -0.0102
    30. (0.00271) RY*( 8) O   1           s(  6.96%)p 6.31( 43.96%)d 6.94( 48.33%)
                                                  f 0.11(  0.75%)
                                            0.0000 -0.0042  0.2589 -0.0498  0.0111
                                            0.0203 -0.4682  0.0321  0.0318  0.0184
                                           -0.3404  0.0389 -0.0877 -0.0203  0.2927
                                           -0.0613  0.0518  0.1319 -0.0305  0.0158
                                           -0.1094  0.0300 -0.0082 -0.4500  0.1269
                                           -0.0332 -0.4462  0.0412 -0.0749  0.1559
                                            0.0169  0.0324  0.0027  0.0100  0.0188
                                           -0.0081 -0.0438  0.0358 -0.0323  0.0255
                                           -0.0131 -0.0055 -0.0372  0.0122  0.0170
                                           -0.0072
    31. (0.00247) RY*( 9) O   1           s( 41.24%)p 1.06( 43.84%)d 0.34( 14.22%)
                                                  f 0.02(  0.71%)
                                           -0.0000 -0.0027  0.6251 -0.1468 -0.0064
                                            0.0202  0.6096 -0.0166  0.0196 -0.0000
                                           -0.1509  0.0330 -0.1451 -0.0021  0.1295
                                           -0.0464  0.0433  0.1458 -0.0464  0.0076
                                           -0.1347  0.0428 -0.0010 -0.1437  0.0881
                                           -0.0017  0.1677 -0.0005  0.0600 -0.1786
                                            0.0812 -0.0133  0.0111 -0.0037 -0.0362
                                            0.0377 -0.0362  0.0307 -0.0081  0.0082
                                            0.0068 -0.0061  0.0219 -0.0349  0.0043
                                           -0.0019
    32. (0.00076) RY*(10) O   1           s( 53.21%)p 0.59( 31.28%)d 0.19( 10.26%)
                                                  f 0.10(  5.25%)
                                           -0.0000 -0.0019  0.0573  0.7270  0.0160
                                            0.0124  0.0023 -0.1313 -0.2330 -0.0090
                                            0.0146  0.2750 -0.1499  0.0016 -0.0302
                                           -0.3585  0.1154  0.0107 -0.1420 -0.0593
                                           -0.0036  0.0404  0.0276  0.0263 -0.0227
                                            0.1131  0.0229 -0.0206 -0.0842 -0.0155
                                            0.2177  0.0818  0.0740 -0.0476  0.0190
                                           -0.0005 -0.1514  0.0423  0.0534 -0.0131
                                           -0.0761  0.0219 -0.0759  0.0164 -0.0660
                                           -0.0018
    33. (0.00068) RY*(11) O   1           s(  3.70%)p 3.31( 12.23%)d19.57( 72.36%)
                                                  f 3.17( 11.71%)
                                           -0.0000  0.0009  0.0895  0.1686 -0.0232
                                            0.0070  0.0338 -0.0061 -0.0281 -0.0066
                                           -0.0194 -0.1034  0.2570 -0.0002  0.0242
                                           -0.0449  0.2015 -0.0143 -0.1586 -0.0483
                                            0.0017 -0.1465 -0.0175  0.0001  0.2083
                                            0.0057 -0.0167 -0.5268 -0.0990 -0.0216
                                           -0.5848 -0.0229  0.0347 -0.0058 -0.2777
                                            0.0460  0.0555 -0.0099 -0.0388  0.0114
                                            0.0791 -0.0185 -0.1510  0.0189  0.0429
                                           -0.0157
    34. (0.00064) RY*(12) O   1           s(  0.25%)p99.99( 80.90%)d31.26(  7.71%)
                                                  f45.22( 11.15%)
                                           -0.0000  0.0022  0.0114  0.0477 -0.0072
                                            0.0029  0.0169  0.0130  0.0903  0.0010
                                           -0.0283 -0.6960  0.1860  0.0024 -0.0277
                                           -0.5150  0.1209 -0.0363  0.1540 -0.0136
                                           -0.0151  0.0293 -0.0105  0.0047  0.0961
                                            0.0096 -0.0020 -0.0134 -0.0268  0.0220
                                            0.1978  0.0281 -0.0697 -0.0171  0.1490
                                           -0.0163 -0.0562 -0.0061  0.1330  0.0138
                                            0.1330 -0.0230  0.1563 -0.0177  0.1387
                                            0.0238
    35. (0.00057) RY*(13) O   1           s(  3.68%)p 3.57( 13.13%)d11.65( 42.88%)
                                                  f10.95( 40.31%)
                                           -0.0000  0.0040 -0.0069  0.1691  0.0904
                                            0.0091  0.0160  0.0388  0.0552 -0.0066
                                            0.0077  0.0676 -0.0339 -0.0000 -0.0014
                                            0.3404 -0.0687 -0.0403  0.1570 -0.0372
                                            0.0501 -0.1075  0.0535  0.0465  0.5305
                                            0.0302 -0.0179 -0.1277 -0.0700  0.0162
                                            0.2774  0.0303  0.1537  0.0064  0.1144
                                           -0.0068 -0.0171  0.0028 -0.0669 -0.0095
                                            0.5915 -0.0324  0.1009 -0.0059 -0.0166
                                           -0.0043
    36. (0.00051) RY*(14) O   1           s(  0.06%)p88.41(  5.48%)d99.99( 56.63%)
                                                  f99.99( 37.83%)
                                           -0.0000  0.0003  0.0210  0.0005 -0.0133
                                           -0.0006  0.0010 -0.0138 -0.0104  0.0060
                                            0.0025 -0.2073  0.0946  0.0069  0.0280
                                            0.0406  0.0074  0.0080 -0.5434  0.0622
                                            0.0006 -0.4859  0.0653 -0.0078 -0.0664
                                            0.0022 -0.0130  0.0563 -0.0317 -0.0069
                                            0.1302 -0.0308  0.2186  0.0159  0.2085
                                           -0.0090  0.1162 -0.0002 -0.3382 -0.0153
                                           -0.1056 -0.0007  0.2222 -0.0029 -0.3123
                                           -0.0211
    37. (0.00049) RY*(15) O   1           s(  0.48%)p25.31( 12.11%)d32.94( 15.77%)
                                                  f99.99( 71.64%)
                                           -0.0000 -0.0018  0.0396  0.0545 -0.0157
                                            0.0008  0.0142 -0.2397 -0.0120 -0.0026
                                           -0.0016  0.1881  0.1102 -0.0013  0.0073
                                            0.0974  0.0791 -0.0195  0.0182 -0.0260
                                           -0.0330  0.2321 -0.0641  0.0002  0.0816
                                           -0.0314 -0.0392 -0.1947 -0.0225 -0.0161
                                           -0.2172  0.0467 -0.1548 -0.0132  0.5390
                                            0.0208  0.1203  0.0010  0.0937  0.0182
                                           -0.1809 -0.0107  0.5845  0.0196  0.0528
                                           -0.0089
    38. (0.00048) RY*(16) O   1           s(  1.53%)p38.64( 59.26%)d 2.32(  3.56%)
                                                  f23.25( 35.65%)
                                           -0.0000  0.0048  0.0533  0.1039  0.0409
                                            0.0053 -0.0032  0.7476 -0.1504 -0.0031
                                           -0.0104  0.0116  0.0292  0.0007  0.0133
                                            0.0909  0.0378 -0.0190 -0.0005 -0.0687
                                           -0.0241 -0.0452 -0.0043 -0.0067 -0.0834
                                            0.0263  0.0589 -0.0789  0.0723 -0.0529
                                           -0.0369 -0.0327  0.1460  0.0098  0.3970
                                            0.0413 -0.0631 -0.0005 -0.0421  0.0017
                                           -0.1302  0.0001 -0.1265 -0.0154  0.3686
                                            0.0309
    39. (0.00049) RY*(17) O   1           s(  0.28%)p14.53(  4.07%)d99.99( 28.98%)
                                                  f99.99( 66.66%)
                                            0.0000  0.0002 -0.0001  0.0047  0.0527
                                            0.0029 -0.0187  0.1657 -0.0758  0.0070
                                            0.0228  0.0037  0.0129 -0.0012 -0.0152
                                           -0.0650 -0.0443  0.0028 -0.4380  0.0351
                                           -0.0324  0.2210 -0.0597 -0.0260 -0.0106
                                           -0.0357  0.0503  0.1357  0.0848 -0.0113
                                           -0.1141 -0.0034 -0.5126 -0.0404  0.2212
                                            0.0273  0.1578  0.0130  0.1390  0.0127
                                            0.4387  0.0146 -0.2282 -0.0221 -0.2502
                                           -0.0126
    40. (0.00047) RY*(18) O   1           s(  4.41%)p10.68( 47.11%)d 3.84( 16.96%)
                                                  f 7.14( 31.51%)
                                           -0.0000  0.0037  0.0756  0.1893  0.0505
                                           -0.0026 -0.0132 -0.0511 -0.0665 -0.0060
                                           -0.0326 -0.4057  0.0996 -0.0048  0.0207
                                            0.5247 -0.1119  0.0254 -0.1743  0.0146
                                           -0.0155  0.3371 -0.0389  0.0072 -0.0633
[...]
   151. (0.00046) RY*( 6) H   4           s(  2.99%)p28.12( 84.08%)d 4.32( 12.93%)
                                            0.0023  0.1391 -0.0556  0.0863 -0.0379
                                           -0.2847  0.0316 -0.0898 -0.6636  0.4383
                                            0.1355 -0.3072 -0.0635 -0.1011  0.0690
                                           -0.0632 -0.0262 -0.1253 -0.0962 -0.1936
                                           -0.1298 -0.1697  0.0391
   152. (0.00036) RY*( 7) H   4           s(  2.25%)p31.78( 71.64%)d11.58( 26.11%)
                                           -0.0059 -0.0413 -0.0221  0.1425 -0.0489
                                           -0.6424 -0.0550 -0.0611  0.0970 -0.4060
                                            0.1623 -0.2936 -0.0879  0.0110 -0.1845
                                            0.0600  0.1037 -0.3106  0.0808  0.2616
                                            0.1128  0.1271  0.1107
   153. (0.00025) RY*( 8) H   4           s(  6.32%)p 1.51(  9.56%)d13.30( 84.12%)
                                            0.0041  0.0250  0.2454 -0.0485  0.0716
                                           -0.0756  0.0105  0.0448 -0.2354 -0.0046
                                           -0.0016 -0.0773  0.1458  0.5412 -0.0356
                                            0.6243 -0.0208  0.3438 -0.0648  0.1848
                                            0.0095 -0.0069 -0.0121
   154. (0.00025) RY*( 9) H   4           s( 19.36%)p 2.01( 38.94%)d 2.15( 41.70%)
                                            0.0069 -0.0611  0.3667  0.2352 -0.0342
                                            0.2900 -0.0567 -0.0220 -0.2437 -0.0010
                                            0.0014  0.2213 -0.4383 -0.1205  0.1045
                                            0.0848 -0.1553 -0.3236 -0.1135  0.4830
                                            0.0742  0.0030  0.0622
   155. (0.00022) RY*(10) H   4           s( 10.45%)p 2.99( 31.28%)d 5.58( 58.28%)
                                            0.0065  0.0107  0.2466 -0.2086 -0.1012
                                            0.0285 -0.2341  0.0825 -0.2938 -0.2886
                                            0.0194 -0.1409  0.2243 -0.5509 -0.0713
                                           -0.1111  0.0006  0.4593  0.0549  0.1811
                                            0.1069 -0.0047  0.0598
   156. (0.00018) RY*(11) H   4           s( 18.95%)p 3.08( 58.44%)d 1.19( 22.61%)
                                           -0.0199 -0.0862  0.4234 -0.0486  0.0269
                                            0.2269 -0.0369  0.1088  0.2699  0.0421
                                           -0.0158 -0.6194 -0.2459  0.0734 -0.0625
                                           -0.0331 -0.0741 -0.0251 -0.0771 -0.3216
                                            0.1345 -0.0879  0.2729
   157. (0.00016) RY*(12) H   4           s(  3.19%)p15.95( 50.93%)d14.36( 45.87%)
                                           -0.0109  0.0018  0.1485 -0.0988 -0.0559
                                           -0.0168 -0.2031 -0.0561  0.3197  0.3758
                                           -0.1019 -0.2147  0.4020 -0.1659  0.0042
                                            0.1359  0.0223 -0.2823 -0.0050  0.3544
                                           -0.1351 -0.3029 -0.3112
   158. (0.00012) RY*(13) H   4           s( 54.20%)p 0.31( 16.92%)d 0.53( 28.87%)
                                            0.0020  0.0313  0.4220  0.6025  0.0283
                                            0.0599  0.1734 -0.0413 -0.0716 -0.0764
                                            0.0101 -0.0074  0.3492  0.0836  0.0473
                                           -0.2006  0.0941 -0.0143  0.4025 -0.1484
                                           -0.0635  0.1036 -0.1773
   159. (0.00012) RY*(14) H   4           s(  0.70%)p21.85( 15.24%)d99.99( 84.06%)
                                            0.0082  0.0674 -0.0046  0.0485 -0.0233
                                           -0.0734  0.1776 -0.0199 -0.0284 -0.2207
                                           -0.1063  0.2133  0.0907 -0.0337  0.0061
                                            0.1109 -0.0760 -0.0968  0.0946 -0.1495
                                            0.3787 -0.7819  0.1610
   160. (0.00009) RY*(15) H   4           s(  0.98%)p44.17( 43.22%)d57.04( 55.80%)
   161. (0.00007) RY*(16) H   4           s(  0.76%)p 3.62(  2.75%)d99.99( 96.49%)
   162. (0.00008) RY*(17) H   4           s(  0.55%)p22.97( 12.60%)d99.99( 86.85%)
   163. (0.00005) RY*(18) H   4           s( 41.09%)p 0.40( 16.54%)d 1.03( 42.36%)
   164. (0.00005) RY*(19) H   4           s(  0.81%)p25.14( 20.36%)d97.36( 78.83%)
   165. (0.00005) RY*(20) H   4           s(  0.26%)p69.63( 17.83%)d99.99( 81.91%)
   166. (0.00004) RY*(21) H   4           s(  6.99%)p 2.91( 20.31%)d10.40( 72.70%)
   167. (0.00003) RY*(22) H   4           s( 12.91%)p 2.68( 34.62%)d 4.06( 52.46%)
   168. (0.05867) BD*( 1) O   1 -Cl   2  
                ( 41.14%)   0.6414* O   1 s(  9.63%)p 9.33( 89.81%)d 0.06(  0.54%)
                                                  f 0.00(  0.02%)
                                           -0.0003 -0.3074  0.0407  0.0125  0.0016
                                           -0.9466  0.0217  0.0090  0.0094 -0.0067
                                            0.0219  0.0041  0.0000 -0.0232 -0.0194
                                           -0.0036  0.0004  0.0149  0.0003 -0.0024
                                           -0.0200 -0.0028  0.0002  0.0132  0.0015
                                           -0.0012 -0.0578 -0.0052 -0.0013  0.0348
                                            0.0031  0.0005  0.0001 -0.0003  0.0072
                                           -0.0000  0.0000  0.0005 -0.0007  0.0013
                                            0.0067 -0.0017 -0.0088  0.0003  0.0005
                                           -0.0015
                ( 58.86%)  -0.7672*Cl   2 s(  8.21%)p11.03( 90.55%)d 0.14(  1.13%)
                                                  f 0.01(  0.11%)
                                            0.0000 -0.0005 -0.2801  0.0594  0.0104
                                            0.0024  0.0004  0.9492 -0.0659 -0.0137
                                            0.0038  0.0000  0.0043  0.0016 -0.0011
                                            0.0003 -0.0000 -0.0040  0.0001  0.0022
                                           -0.0011 -0.0055  0.0008 -0.0003  0.0126
                                            0.0017  0.0007  0.0051  0.0002 -0.0011
                                           -0.0904  0.0109  0.0006  0.0524 -0.0059
                                            0.0001  0.0008 -0.0002 -0.0197  0.0025
                                            0.0000  0.0000 -0.0007  0.0000 -0.0018
                                            0.0015  0.0260 -0.0036  0.0007 -0.0004
   169. (0.04919) BD*( 1) O   1 - H   4  
                ( 22.56%)   0.4750* O   1 s( 25.39%)p 2.92( 74.07%)d 0.02(  0.53%)
                                                  f 0.00(  0.01%)
                                            0.0002  0.5038 -0.0050 -0.0070  0.0021
                                           -0.1713  0.0178  0.0027  0.0018 -0.6181
                                            0.0112  0.0061  0.0011  0.5734 -0.0070
                                           -0.0057 -0.0039 -0.0062 -0.0028 -0.0002
                                            0.0048  0.0026  0.0005 -0.0634 -0.0037
                                            0.0005 -0.0307 -0.0028 -0.0021  0.0150
                                            0.0026  0.0021 -0.0071  0.0006  0.0002
                                           -0.0007 -0.0052 -0.0008 -0.0035 -0.0019
                                            0.0016  0.0018 -0.0002  0.0015 -0.0030
                                            0.0019
                ( 77.44%)  -0.8800* H   4 s( 99.81%)p 0.00(  0.19%)d 0.00(  0.00%)
                                            0.9989  0.0198  0.0008  0.0003  0.0112
                                            0.0068 -0.0028 -0.0013  0.0232  0.0060
                                            0.0266 -0.0201 -0.0045 -0.0009 -0.0018
                                            0.0012  0.0017 -0.0018  0.0001 -0.0000
                                            0.0013 -0.0009 -0.0015


 NHO Directionality and "Bond Bending" (deviations from line of nuclear centers)

         [Thresholds for printing:  angular deviation  >  1.0 degree]
                                    hybrid p-character > 25.0%
                                    orbital occupancy  >  0.10e

                                Line of Centers        Hybrid 1              Hybrid 2
                                ---------------  -------------------   ------------------
                NBO               Theta   Phi    Theta   Phi    Dev    Theta   Phi    Dev
 ========================================================================================
     1. BD (   1) O   1 -Cl   2    90.0    0.0    87.1  358.8   3.1      --     --    --
     2. BD (   1) O   1 - H   4    50.0  257.5    48.0  256.0   2.3      --     --    --
    14. LP (   1) O   1             --     --    128.3  123.5   --       --     --    --
    15. LP (   2) O   1             --     --     42.9   92.2   --       --     --    --
    17. LP (   2)Cl   2             --     --    142.8  270.4   --       --     --    --
    18. LP (   3)Cl   2             --     --    127.3   90.2   --       --     --    --
    20. LP (   2)Cl   3             --     --    103.1  354.2   --       --     --    --
    21. LP (   3)Cl   3             --     --    152.4  110.7   --       --     --    --
    22. LP (   4)Cl   3             --     --     65.9   78.3   --       --     --    --


 Natural Bond Orbitals (Summary):

           NBO                  Occupancy  
 -----------------------------------------------
 Molecular unit  1  (HOCl)
     1. BD (   1) O   1 -Cl   2          1.93900
     2. BD (   1) O   1 - H   4          1.96508
     3. CR (   1) O   1                  1.99969
     4. CR (   1)Cl   2                  2.00000
     5. CR (   2)Cl   2                  1.99982
     6. CR (   3)Cl   2                  1.99997
     7. CR (   4)Cl   2                  2.00003
     8. CR (   5)Cl   2                  2.00003
    14. LP (   1) O   1                  1.96881
    15. LP (   2) O   1                  1.95365
    16. LP (   1)Cl   2                  1.97464
    17. LP (   2)Cl   2                  1.95621
    18. LP (   3)Cl   2                  1.95518
    23. RY*(   1) O   1                  0.01940
    24. RY*(   2) O   1                  0.01512
    25. RY*(   3) O   1                  0.00764
    26. RY*(   4) O   1                  0.00703
    27. RY*(   5) O   1                  0.00627
    28. RY*(   6) O   1                  0.00606
    29. RY*(   7) O   1                  0.00567
    30. RY*(   8) O   1                  0.00271
    31. RY*(   9) O   1                  0.00247
    32. RY*(  10) O   1                  0.00076
    33. RY*(  11) O   1                  0.00068
    34. RY*(  12) O   1                  0.00064
    35. RY*(  13) O   1                  0.00057
    36. RY*(  14) O   1                  0.00051
    37. RY*(  15) O   1                  0.00049
    38. RY*(  16) O   1                  0.00048
    39. RY*(  17) O   1                  0.00049
    40. RY*(  18) O   1                  0.00047
    41. RY*(  19) O   1                  0.00044
    42. RY*(  20) O   1                  0.00045
    43. RY*(  21) O   1                  0.00044
    44. RY*(  22) O   1                  0.00041
    45. RY*(  23) O   1                  0.00034
    46. RY*(  24) O   1                  0.00030
    47. RY*(  25) O   1                  0.00024
    48. RY*(  26) O   1                  0.00019
    49. RY*(  27) O   1                  0.00014
    50. RY*(  28) O   1                  0.00012
    51. RY*(  29) O   1                  0.00012
    52. RY*(  30) O   1                  0.00012
    53. RY*(  31) O   1                  0.00010
    54. RY*(  32) O   1                  0.00008
    55. RY*(  33) O   1                  0.00007
    56. RY*(  34) O   1                  0.00007
    57. RY*(  35) O   1                  0.00008
    58. RY*(  36) O   1                  0.00008
    59. RY*(  37) O   1                  0.00006
    60. RY*(  38) O   1                  0.00004
    61. RY*(  39) O   1                  0.00004
    62. RY*(  40) O   1                  0.00004
    63. RY*(  41) O   1                  0.00002
    64. RY*(   1)Cl   2                  0.02216
    65. RY*(   2)Cl   2                  0.01740
    66. RY*(   3)Cl   2                  0.01682
    67. RY*(   4)Cl   2                  0.01632
    68. RY*(   5)Cl   2                  0.01166
    69. RY*(   6)Cl   2                  0.00920
    70. RY*(   7)Cl   2                  0.00900
    71. RY*(   8)Cl   2                  0.00629
    72. RY*(   9)Cl   2                  0.00174
    73. RY*(  10)Cl   2                  0.00126
    74. RY*(  11)Cl   2                  0.00126
    75. RY*(  12)Cl   2                  0.00119
    76. RY*(  13)Cl   2                  0.00119
    77. RY*(  14)Cl   2                  0.00116
    78. RY*(  15)Cl   2                  0.00109
    79. RY*(  16)Cl   2                  0.00094
    80. RY*(  17)Cl   2                  0.00076
    81. RY*(  18)Cl   2                  0.00074
    82. RY*(  19)Cl   2                  0.00062
    83. RY*(  20)Cl   2                  0.00054
    84. RY*(  21)Cl   2                  0.00041
    85. RY*(  22)Cl   2                  0.00038
    86. RY*(  23)Cl   2                  0.00033
    87. RY*(  24)Cl   2                  0.00030
    88. RY*(  25)Cl   2                  0.00019
    89. RY*(  26)Cl   2                  0.00015
    90. RY*(  27)Cl   2                  0.00013
    91. RY*(  28)Cl   2                  0.00013
    92. RY*(  29)Cl   2                  0.00014
    93. RY*(  30)Cl   2                  0.00011
    94. RY*(  31)Cl   2                  0.00011
    95. RY*(  32)Cl   2                  0.00011
    96. RY*(  33)Cl   2                  0.00009
    97. RY*(  34)Cl   2                  0.00009
    98. RY*(  35)Cl   2                  0.00010
    99. RY*(  36)Cl   2                  0.00010
   100. RY*(  37)Cl   2                  0.00006
   101. RY*(  38)Cl   2                  0.00005
   102. RY*(  39)Cl   2                  0.00003
   103. RY*(  40)Cl   2                  0.00003
   104. RY*(  41)Cl   2                  0.00001
   146. RY*(   1) H   4                  0.00787
   147. RY*(   2) H   4                  0.00476
   148. RY*(   3) H   4                  0.00295
   149. RY*(   4) H   4                  0.00244
   150. RY*(   5) H   4                  0.00054
   151. RY*(   6) H   4                  0.00046
   152. RY*(   7) H   4                  0.00036
   153. RY*(   8) H   4                  0.00025
   154. RY*(   9) H   4                  0.00025
   155. RY*(  10) H   4                  0.00022
   156. RY*(  11) H   4                  0.00018
   157. RY*(  12) H   4                  0.00016
   158. RY*(  13) H   4                  0.00012
   159. RY*(  14) H   4                  0.00012
   160. RY*(  15) H   4                  0.00009
   161. RY*(  16) H   4                  0.00007
   162. RY*(  17) H   4                  0.00008
   163. RY*(  18) H   4                  0.00005
   164. RY*(  19) H   4                  0.00005
   165. RY*(  20) H   4                  0.00005
   166. RY*(  21) H   4                  0.00004
   167. RY*(  22) H   4                  0.00003
   168. BD*(   1) O   1 -Cl   2          0.05867
   169. BD*(   1) O   1 - H   4          0.04919
       -------------------------------
              Total Lewis   25.71212  ( 98.7145%)
        Valence non-Lewis    0.10786  (  0.4141%)
        Rydberg non-Lewis    0.22696  (  0.8714%)
       -------------------------------
            Total unit  1   26.04694  (100.0000%)
           Charge unit  1   -0.04694

 Molecular unit  2  (Cl)
     9. CR (   1)Cl   3                  2.00001
    10. CR (   2)Cl   3                  2.00000
    11. CR (   3)Cl   3                  2.00003
    12. CR (   4)Cl   3                  2.00002
    13. CR (   5)Cl   3                  2.00002
    19. LP (   1)Cl   3                  1.97986
    20. LP (   2)Cl   3                  1.95208
    21. LP (   3)Cl   3                  1.95148
    22. LP (   4)Cl   3                  1.91833
   105. RY*(   1)Cl   3                  0.01855
   106. RY*(   2)Cl   3                  0.01849
   107. RY*(   3)Cl   3                  0.01836
   108. RY*(   4)Cl   3                  0.01836
   109. RY*(   5)Cl   3                  0.01818
   110. RY*(   6)Cl   3                  0.01348
   111. RY*(   7)Cl   3                  0.01345
   112. RY*(   8)Cl   3                  0.01185
   113. RY*(   9)Cl   3                  0.00331
   114. RY*(  10)Cl   3                  0.00129
   115. RY*(  11)Cl   3                  0.00130
   116. RY*(  12)Cl   3                  0.00129
   117. RY*(  13)Cl   3                  0.00130
   118. RY*(  14)Cl   3                  0.00129
   119. RY*(  15)Cl   3                  0.00130
   120. RY*(  16)Cl   3                  0.00127
   121. RY*(  17)Cl   3                  0.00101
   122. RY*(  18)Cl   3                  0.00100
   123. RY*(  19)Cl   3                  0.00084
   124. RY*(  20)Cl   3                  0.00082
   125. RY*(  21)Cl   3                  0.00078
   126. RY*(  22)Cl   3                  0.00056
   127. RY*(  23)Cl   3                  0.00056
   128. RY*(  24)Cl   3                  0.00053
   129. RY*(  25)Cl   3                  0.00025
   130. RY*(  26)Cl   3                  0.00016
   131. RY*(  27)Cl   3                  0.00016
   132. RY*(  28)Cl   3                  0.00016
   133. RY*(  29)Cl   3                  0.00014
   134. RY*(  30)Cl   3                  0.00014
   135. RY*(  31)Cl   3                  0.00014
   136. RY*(  32)Cl   3                  0.00015
   137. RY*(  33)Cl   3                  0.00013
   138. RY*(  34)Cl   3                  0.00011
   139. RY*(  35)Cl   3                  0.00010
   140. RY*(  36)Cl   3                  0.00010
   141. RY*(  37)Cl   3                  0.00011
   142. RY*(  38)Cl   3                  0.00008
   143. RY*(  39)Cl   3                  0.00004
   144. RY*(  40)Cl   3                  0.00002
   145. RY*(  41)Cl   3                  0.00002
       -------------------------------
              Total Lewis   17.80184  ( 99.1577%)
        Valence non-Lewis    0.00000  (  0.0000%)
        Rydberg non-Lewis    0.15122  (  0.8423%)
       -------------------------------
            Total unit  2   17.95306  (100.0000%)
           Charge unit  2   -0.95306
 Leave Link  607 at Fri Nov  5 15:25:43 2021, MaxMem= 16106127360 cpu:              69.2 elap:               2.5
 (Enter /sw/contrib/gaussian/g16/B01/g16/l9999.exe)
 1\1\GINC-N2113\SP\RMP2-FC\Aug-CC-pVTZ\Cl2H1O1(1-)\CGAVINH\05-Nov-2021\
 0\\#p pop=NBO SP NoSymm mp2/aug-cc-pvtz density=current\\title\\-1,1\O
 \X,1,10.\Cl,1,1.69700154,2,90.\Cl,1,2.93100907,2,90.,3,102.48429983,0\
 H,1,0.96862334,2,50.,3,102.48429983,0\\Version=ES64L-G16RevB.01\HF=-99
 4.5097687\MP2=-995.1737178\RMSD=5.731e-09\Dipole=1.5240218,2.1786844,0
 .2631872\Quadrupole=7.5915179,-17.2091943,9.6176763,-6.1583888,-0.2180
 685,-0.2281153\PG=C01 [X(Cl2H1O1)]\\@


 A MAN IS NEVER SO BRILLIANT AS WHEN HE TAKES THE WORDS RIGHT OUT
 OF YOUR MOUTH. -- ARNOT SHEPPARD, JR.
 Job cpu time:       0 days  0 hours  4 minutes 24.1 seconds.
 Elapsed time:       0 days  0 hours  0 minutes 14.7 seconds.
 File lengths (MBytes):  RWF=     14 Int=      0 D2E=      0 Chk=      8 Scr=      1
 Normal termination of Gaussian 16 at Fri Nov  5 15:25:43 2021.
