 Entering Gaussian System, Link 0=g16
 Input=hod_opt.gjf
 Output=hod_opt.log
 Initial command:
 /sw/contrib/gaussian/g16/B01/g16/l1.exe "/scr/Gau-32509.inp" -scrdir="/scr/"
 Entering Link 1 = /sw/contrib/gaussian/g16/B01/g16/l1.exe PID=     32510.
  
 Copyright (c) 1988-2017, Gaussian, Inc.  All Rights Reserved.
  
 This is part of the Gaussian(R) 16 program.  It is based on
 the Gaussian(R) 09 system (copyright 2009, Gaussian, Inc.),
 the Gaussian(R) 03 system (copyright 2003, Gaussian, Inc.),
 the Gaussian(R) 98 system (copyright 1998, Gaussian, Inc.),
 the Gaussian(R) 94 system (copyright 1995, Gaussian, Inc.),
 the Gaussian 92(TM) system (copyright 1992, Gaussian, Inc.),
 the Gaussian 90(TM) system (copyright 1990, Gaussian, Inc.),
 the Gaussian 88(TM) system (copyright 1988, Gaussian, Inc.),
 the Gaussian 86(TM) system (copyright 1986, Carnegie Mellon
 University), and the Gaussian 82(TM) system (copyright 1983,
 Carnegie Mellon University). Gaussian is a federally registered
 trademark of Gaussian, Inc.
  
 This software contains proprietary and confidential information,
 including trade secrets, belonging to Gaussian, Inc.
  
 This software is provided under written license and may be
 used, copied, transmitted, or stored only in accord with that
 written license.
  
 The following legend is applicable only to US Government
 contracts under FAR:
  
                    RESTRICTED RIGHTS LEGEND
  
 Use, reproduction and disclosure by the US Government is
 subject to restrictions as set forth in subparagraphs (a)
 and (c) of the Commercial Computer Software - Restricted
 Rights clause in FAR 52.227-19.
  
 Gaussian, Inc.
 340 Quinnipiac St., Bldg. 40, Wallingford CT 06492
  
  
 ---------------------------------------------------------------
 Warning -- This program may not be used in any manner that
 competes with the business of Gaussian, Inc. or will provide
 assistance to any competitor of Gaussian, Inc.  The licensee
 of this program is prohibited from giving any competitor of
 Gaussian, Inc. access to this program.  By using this program,
 the user acknowledges that Gaussian, Inc. is engaged in the
 business of creating and licensing software in the field of
 computational chemistry and represents and warrants to the
 licensee that it is not a competitor of Gaussian, Inc. and that
 it will not use this program in any manner prohibited above.
 ---------------------------------------------------------------
  

 Cite this work as:
 Gaussian 16, Revision B.01,
 M. J. Frisch, G. W. Trucks, H. B. Schlegel, G. E. Scuseria, 
 M. A. Robb, J. R. Cheeseman, G. Scalmani, V. Barone, 
 G. A. Petersson, H. Nakatsuji, X. Li, M. Caricato, A. V. Marenich, 
 J. Bloino, B. G. Janesko, R. Gomperts, B. Mennucci, H. P. Hratchian, 
 J. V. Ortiz, A. F. Izmaylov, J. L. Sonnenberg, D. Williams-Young, 
 F. Ding, F. Lipparini, F. Egidi, J. Goings, B. Peng, A. Petrone, 
 T. Henderson, D. Ranasinghe, V. G. Zakrzewski, J. Gao, N. Rega, 
 G. Zheng, W. Liang, M. Hada, M. Ehara, K. Toyota, R. Fukuda, 
 J. Hasegawa, M. Ishida, T. Nakajima, Y. Honda, O. Kitao, H. Nakai, 
 T. Vreven, K. Throssell, J. A. Montgomery, Jr., J. E. Peralta, 
 F. Ogliaro, M. J. Bearpark, J. J. Heyd, E. N. Brothers, K. N. Kudin, 
 V. N. Staroverov, T. A. Keith, R. Kobayashi, J. Normand, 
 K. Raghavachari, A. P. Rendell, J. C. Burant, S. S. Iyengar, 
 J. Tomasi, M. Cossi, J. M. Millam, M. Klene, C. Adamo, R. Cammi, 
 J. W. Ochterski, R. L. Martin, K. Morokuma, O. Farkas, 
 J. B. Foresman, and D. J. Fox, Gaussian, Inc., Wallingford CT, 2016.
 
 ******************************************
 Gaussian 16:  ES64L-G16RevB.01 20-Dec-2017
                16-Nov-2021 
 ******************************************
 %nproc=28
 Will use up to   28 processors via shared memory.
 %mem=120GB
 %chk=/gscratch/ilahie/mccoygrp/coire_hocl/oop_s_rOH_f/hod_opt.chk
 -------------------------------------------------
 #p opt=(z-matrix) mp2/aug-cc-pvtz density=current
 -------------------------------------------------
 1/10=7,18=40,38=1/1,3;
 2/12=2,17=6,18=5,29=3,40=1/2;
 3/5=16,6=1,7=10,11=9,25=1,30=1,71=1/1,2,3;
 4//1;
 5/5=2,38=5/2;
 8/6=4,10=1/1;
 9/15=2,16=-3/6;
 10/5=1/2;
 6/7=2,8=2,9=2,10=2,22=-1/1;
 7/12=2,29=1/1,2,3,16;
 1/10=7,18=40/3(2);
 2/29=3/2;
 99//99;
 2/29=3/2;
 3/5=16,6=1,7=10,11=9,25=1,30=1,71=1/1,2,3;
 4/5=5,16=3,69=1/1;
 5/5=2,38=5/2;
 8/6=4,10=1/1;
 9/15=2,16=-3/6;
 10/5=1/2;
 7/12=2/1,2,3,16;
 1/18=40/3(-8);
 2/29=3/2;
 6/7=2,8=2,9=2,10=2,22=-1/1;
 99/9=10/99;
 Leave Link    1 at Tue Nov 16 16:04:17 2021, MaxMem= 16106127360 cpu:               3.5 elap:               0.1
 (Enter /sw/contrib/gaussian/g16/B01/g16/l101.exe)
 -----
 title
 -----
 Symbolic Z-matrix:
 Charge =  0 Multiplicity = 1
 O
 H(iso=2)             1    rOD
 H                    1    rOH      2    aHOCl
       Variables:
  rOD                   1.                       
  rOH                   1.                       
  aHOCl               103.53016                  
 
 ITRead=  0  0  0
 MicOpt= -1 -1 -1
 NAtoms=      3 NQM=        3 NQMF=       0 NMMI=      0 NMMIF=      0
                NMic=       0 NMicF=      0.
                    Isotopes and Nuclear Properties:
 (Nuclear quadrupole moments (NQMom) in fm**2, nuclear magnetic moments (NMagM)
  in nuclear magnetons)

  Atom         1           2           3
 IAtWgt=          16           2           1
 AtmWgt=  15.9949146   2.0141018   1.0078250
 NucSpn=           0           2           1
 AtZEff=  -0.0000000  -0.0000000  -0.0000000
 NQMom=    0.0000000   0.2860000   0.0000000
 NMagM=    0.0000000   0.8574380   2.7928460
 AtZNuc=   8.0000000   1.0000000   1.0000000
 Leave Link  101 at Tue Nov 16 16:04:17 2021, MaxMem= 16106127360 cpu:               3.0 elap:               0.1
 (Enter /sw/contrib/gaussian/g16/B01/g16/l103.exe)

 GradGradGradGradGradGradGradGradGradGradGradGradGradGradGradGradGradGrad
 Berny optimization.
 Initialization pass.
                       ----------------------------
                       !    Initial Parameters    !
                       ! (Angstroms and Degrees)  !
 ----------------------                            ----------------------
 !      Name          Value   Derivative information (Atomic Units)     !
 ------------------------------------------------------------------------
 !       rOD         1.0      estimate D2E/DX2                          !
 !       rOH         1.0      estimate D2E/DX2                          !
 !      aHOCl      103.5302   estimate D2E/DX2                          !
 ------------------------------------------------------------------------
 Trust Radius=3.00D-01 FncErr=1.00D-07 GrdErr=1.00D-07 EigMax=2.50D+02 EigMin=1.00D-04
 Number of steps in this run=     20 maximum allowed number of steps=    100.
 GradGradGradGradGradGradGradGradGradGradGradGradGradGradGradGradGradGrad

 Leave Link  103 at Tue Nov 16 16:04:17 2021, MaxMem= 16106127360 cpu:               0.6 elap:               0.0
 (Enter /sw/contrib/gaussian/g16/B01/g16/l202.exe)
 ---------------------------------------------------------------------------------------------------
                            Z-MATRIX (ANGSTROMS AND DEGREES)
   CD    Cent   Atom    N1       Length/X        N2       Alpha/Y        N3        Beta/Z          J
 ---------------------------------------------------------------------------------------------------
      1      1  O 
      2      2  H        1   1.000000(     1)
      3      3  H        1   1.000000(     2)      2  103.530(     3)
 ---------------------------------------------------------------------------------------------------
                         Z-Matrix orientation:                         
 ---------------------------------------------------------------------
 Center     Atomic      Atomic             Coordinates (Angstroms)
 Number     Number       Type             X           Y           Z
 ---------------------------------------------------------------------
      1          8           0        0.000000    0.000000    0.000000
      2          1           0        0.000000    0.000000    1.000000
      3          1           0        0.972247    0.000000   -0.233957
 ---------------------------------------------------------------------
                    Distance matrix (angstroms):
                    1          2          3
     1  O    0.000000
     2  H    1.000000   0.000000
     3  H    1.000000   1.570960   0.000000
 Stoichiometry    H2O
 Framework group  C2V[C2(O),SGV(H2)]
 Deg. of freedom     2
 Full point group                 C2V     NOp   4
 Largest Abelian subgroup         C2V     NOp   4
 Largest concise Abelian subgroup C2      NOp   2
                         Standard orientation:                         
 ---------------------------------------------------------------------
 Center     Atomic      Atomic             Coordinates (Angstroms)
 Number     Number       Type             X           Y           Z
 ---------------------------------------------------------------------
      1          8           0        0.000000   -0.000000    0.123777
      2          1           0       -0.000000    0.785480   -0.495110
      3          1           0       -0.000000   -0.785480   -0.495110
 ---------------------------------------------------------------------
 Rotational constants (GHZ):         625.3665001         253.0675960         180.1614914
 Leave Link  202 at Tue Nov 16 16:04:17 2021, MaxMem= 16106127360 cpu:               1.2 elap:               0.1
 (Enter /sw/contrib/gaussian/g16/B01/g16/l301.exe)
 Standard basis: Aug-CC-pVTZ (5D, 7F)
 Ernie: Thresh=  0.10000D-02 Tol=  0.10000D-05 Strict=F.
 Ernie:  3 primitive shells out of 52 were deleted.
 There are    42 symmetry adapted cartesian basis functions of A1  symmetry.
 There are    12 symmetry adapted cartesian basis functions of A2  symmetry.
 There are    20 symmetry adapted cartesian basis functions of B1  symmetry.
 There are    31 symmetry adapted cartesian basis functions of B2  symmetry.
 There are    35 symmetry adapted basis functions of A1  symmetry.
 There are    12 symmetry adapted basis functions of A2  symmetry.
 There are    18 symmetry adapted basis functions of B1  symmetry.
 There are    27 symmetry adapted basis functions of B2  symmetry.
    92 basis functions,   126 primitive gaussians,   105 cartesian basis functions
     5 alpha electrons        5 beta electrons
       nuclear repulsion energy         8.8036850247 Hartrees.
 IExCor=    0 DFT=F Ex=HF Corr=None ExCW=0 ScaHFX=  1.000000
 ScaDFX=  1.000000  1.000000  1.000000  1.000000 ScalE2=  1.000000  1.000000
 IRadAn=      5 IRanWt=     -1 IRanGd=            0 ICorTp=0 IEmpDi=  4
 NAtoms=    3 NActive=    3 NUniq=    2 SFac= 2.25D+00 NAtFMM=   60 NAOKFM=F Big=F
 Integral buffers will be    131072 words long.
 Raffenetti 1 integral format.
 Two-electron integral symmetry is turned on.
 Leave Link  301 at Tue Nov 16 16:04:17 2021, MaxMem= 16106127360 cpu:               1.5 elap:               0.1
 (Enter /sw/contrib/gaussian/g16/B01/g16/l302.exe)
 NPDir=0 NMtPBC=     1 NCelOv=     1 NCel=       1 NClECP=     1 NCelD=      1
         NCelK=      1 NCelE2=     1 NClLst=     1 CellRange=     0.0.
 One-electron integrals computed using PRISM.
 One-electron integral symmetry used in STVInt
 NBasis=    92 RedAO= T EigKep=  4.24D-04  NBF=    35    12    18    27
 NBsUse=    92 1.00D-06 EigRej= -1.00D+00 NBFU=    35    12    18    27
 Leave Link  302 at Tue Nov 16 16:04:17 2021, MaxMem= 16106127360 cpu:               4.8 elap:               0.2
 (Enter /sw/contrib/gaussian/g16/B01/g16/l303.exe)
 DipDrv:  MaxL=1.
 Leave Link  303 at Tue Nov 16 16:04:17 2021, MaxMem= 16106127360 cpu:               0.7 elap:               0.1
 (Enter /sw/contrib/gaussian/g16/B01/g16/l401.exe)
 ExpMin= 2.53D-02 ExpMax= 1.53D+04 ExpMxC= 5.22D+02 IAcc=3 IRadAn=         5 AccDes= 0.00D+00
 Harris functional with IExCor=  205 and IRadAn=       5 diagonalized for initial guess.
 HarFok:  IExCor=  205 AccDes= 0.00D+00 IRadAn=         5 IDoV= 1 UseB2=F ITyADJ=14
 ICtDFT=  3500011 ScaDFX=  1.000000  1.000000  1.000000  1.000000
 FoFCou: FMM=F IPFlag=           0 FMFlag=      100000 FMFlg1=           0
         NFxFlg=           0 DoJE=T BraDBF=F KetDBF=T FulRan=T
         wScrn=  0.000000 ICntrl=       500 IOpCl=  0 I1Cent=   200000004 NGrid=           0
         NMat0=    1 NMatS0=      1 NMatT0=    0 NMatD0=    1 NMtDS0=    0 NMtDT0=    0
 Petite list used in FoFCou.
 Harris En= -76.1481664728909    
 JPrj=0 DoOrth=F DoCkMO=F.
 Initial guess orbital symmetries:
       Occupied  (A1) (A1) (B2) (A1) (B1)
       Virtual   (A1) (B2) (A1) (B1) (B2) (A1) (B2) (A1) (A2) (A1)
                 (B1) (A1) (B2) (B2) (B2) (A1) (A1) (B1) (A2) (A1)
                 (B1) (A1) (B2) (B1) (A2) (A1) (B2) (A1) (B2) (B1)
                 (B2) (A1) (A2) (B2) (A2) (A1) (B1) (A1) (B2) (B2)
                 (A1) (B1) (A2) (A1) (A1) (B1) (B2) (A1) (B1) (B2)
                 (A1) (B2) (A2) (B2) (A1) (B1) (A2) (A1) (B2) (B1)
                 (B2) (A2) (B1) (A1) (A1) (B2) (A2) (B2) (A1) (B2)
                 (B1) (A1) (A1) (B2) (B1) (A1) (B1) (B1) (B2) (A2)
                 (A1) (A2) (A1) (A1) (B2) (B2) (A1)
 The electronic state of the initial guess is 1-A1.
 Leave Link  401 at Tue Nov 16 16:04:18 2021, MaxMem= 16106127360 cpu:               5.4 elap:               0.2
 (Enter /sw/contrib/gaussian/g16/B01/g16/l502.exe)
 Keep R1 ints in memory in symmetry-blocked form, NReq=22813274.
 FoFCou: FMM=F IPFlag=           0 FMFlag=           0 FMFlg1=           0
         NFxFlg=           0 DoJE=F BraDBF=F KetDBF=F FulRan=T
         wScrn=  0.000000 ICntrl=       600 IOpCl=  0 I1Cent=           0 NGrid=           0
         NMat0=    1 NMatS0=   4278 NMatT0=    0 NMatD0=    1 NMtDS0=    0 NMtDT0=    0
 Petite list used in FoFCou.
 Closed shell SCF:
 Using DIIS extrapolation, IDIIS=  1040.
 NGot= 16106127360 LenX= 16103758030 LenY= 16103746564
 Requested convergence on RMS density matrix=1.00D-08 within 128 cycles.
 Requested convergence on MAX density matrix=1.00D-06.
 Requested convergence on             energy=1.00D-06.
 No special actions if energy rises.

 Cycle   1  Pass 1  IDiag  1:
 E= -75.9688290493119    
 DIIS: error= 5.81D-02 at cycle   1 NSaved=   1.
 NSaved= 1 IEnMin= 1 EnMin= -75.9688290493119     IErMin= 1 ErrMin= 5.81D-02
 ErrMax= 5.81D-02  0.00D+00 EMaxC= 1.00D-01 BMatC= 1.95D-01 BMatP= 1.95D-01
 IDIUse=3 WtCom= 4.19D-01 WtEn= 5.81D-01
 Coeff-Com:  0.100D+01
 Coeff-En:   0.100D+01
 Coeff:      0.100D+01
 Gap=     0.454 Goal=   None    Shift=    0.000
 GapD=    0.454 DampG=2.000 DampE=0.500 DampFc=1.0000 IDamp=-1.
 RMSDP=2.11D-03 MaxDP=4.68D-02              OVMax= 1.26D-01

 Cycle   2  Pass 1  IDiag  1:
 E= -76.0164279395269     Delta-E=       -0.047598890215 Rises=F Damp=F
 DIIS: error= 4.10D-02 at cycle   2 NSaved=   2.
 NSaved= 2 IEnMin= 2 EnMin= -76.0164279395269     IErMin= 2 ErrMin= 4.10D-02
 ErrMax= 4.10D-02  0.00D+00 EMaxC= 1.00D-01 BMatC= 6.02D-02 BMatP= 1.95D-01
 IDIUse=3 WtCom= 5.90D-01 WtEn= 4.10D-01
 Coeff-Com:  0.329D+00 0.671D+00
 Coeff-En:   0.230D+00 0.770D+00
 Coeff:      0.289D+00 0.711D+00
 Gap=     0.562 Goal=   None    Shift=    0.000
 RMSDP=1.32D-03 MaxDP=3.48D-02 DE=-4.76D-02 OVMax= 6.62D-02

 Cycle   3  Pass 1  IDiag  1:
 E= -76.0526353410667     Delta-E=       -0.036207401540 Rises=F Damp=F
 DIIS: error= 8.28D-03 at cycle   3 NSaved=   3.
 NSaved= 3 IEnMin= 3 EnMin= -76.0526353410667     IErMin= 3 ErrMin= 8.28D-03
 ErrMax= 8.28D-03  0.00D+00 EMaxC= 1.00D-01 BMatC= 2.89D-03 BMatP= 6.02D-02
 IDIUse=3 WtCom= 9.17D-01 WtEn= 8.28D-02
 Coeff-Com: -0.318D-01 0.148D+00 0.884D+00
 Coeff-En:   0.000D+00 0.000D+00 0.100D+01
 Coeff:     -0.292D-01 0.136D+00 0.893D+00
 Gap=     0.533 Goal=   None    Shift=    0.000
 RMSDP=2.25D-04 MaxDP=4.18D-03 DE=-3.62D-02 OVMax= 1.35D-02

 Cycle   4  Pass 1  IDiag  1:
 E= -76.0544895907991     Delta-E=       -0.001854249732 Rises=F Damp=F
 DIIS: error= 8.13D-04 at cycle   4 NSaved=   4.
 NSaved= 4 IEnMin= 4 EnMin= -76.0544895907991     IErMin= 4 ErrMin= 8.13D-04
 ErrMax= 8.13D-04  0.00D+00 EMaxC= 1.00D-01 BMatC= 1.74D-05 BMatP= 2.89D-03
 IDIUse=3 WtCom= 9.92D-01 WtEn= 8.13D-03
 Coeff-Com:  0.720D-02-0.573D-01-0.248D+00 0.130D+01
 Coeff-En:   0.000D+00 0.000D+00 0.000D+00 0.100D+01
 Coeff:      0.714D-02-0.569D-01-0.246D+00 0.130D+01
 Gap=     0.535 Goal=   None    Shift=    0.000
 RMSDP=4.25D-05 MaxDP=7.89D-04 DE=-1.85D-03 OVMax= 2.51D-03

 Cycle   5  Pass 1  IDiag  1:
 E= -76.0545201923043     Delta-E=       -0.000030601505 Rises=F Damp=F
 DIIS: error= 2.28D-04 at cycle   5 NSaved=   5.
 NSaved= 5 IEnMin= 5 EnMin= -76.0545201923043     IErMin= 5 ErrMin= 2.28D-04
 ErrMax= 2.28D-04  0.00D+00 EMaxC= 1.00D-01 BMatC= 8.89D-07 BMatP= 1.74D-05
 IDIUse=3 WtCom= 9.98D-01 WtEn= 2.28D-03
 Coeff-Com:  0.576D-03 0.521D-03-0.188D-02-0.253D+00 0.125D+01
 Coeff-En:   0.000D+00 0.000D+00 0.000D+00 0.000D+00 0.100D+01
 Coeff:      0.574D-03 0.520D-03-0.188D-02-0.253D+00 0.125D+01
 Gap=     0.536 Goal=   None    Shift=    0.000
 RMSDP=1.28D-05 MaxDP=2.83D-04 DE=-3.06D-05 OVMax= 8.62D-04

 Cycle   6  Pass 1  IDiag  1:
 E= -76.0545224611958     Delta-E=       -0.000002268891 Rises=F Damp=F
 DIIS: error= 3.65D-05 at cycle   6 NSaved=   6.
 NSaved= 6 IEnMin= 6 EnMin= -76.0545224611958     IErMin= 6 ErrMin= 3.65D-05
 ErrMax= 3.65D-05  0.00D+00 EMaxC= 1.00D-01 BMatC= 2.84D-08 BMatP= 8.89D-07
 IDIUse=1 WtCom= 1.00D+00 WtEn= 0.00D+00
 Coeff-Com: -0.353D-03 0.180D-02 0.790D-02 0.106D-01-0.322D+00 0.130D+01
 Coeff:     -0.353D-03 0.180D-02 0.790D-02 0.106D-01-0.322D+00 0.130D+01
 Gap=     0.536 Goal=   None    Shift=    0.000
 RMSDP=2.75D-06 MaxDP=6.95D-05 DE=-2.27D-06 OVMax= 1.91D-04

 Cycle   7  Pass 1  IDiag  1:
 E= -76.0545225494532     Delta-E=       -0.000000088257 Rises=F Damp=F
 DIIS: error= 5.71D-06 at cycle   7 NSaved=   7.
 NSaved= 7 IEnMin= 7 EnMin= -76.0545225494532     IErMin= 7 ErrMin= 5.71D-06
 ErrMax= 5.71D-06  0.00D+00 EMaxC= 1.00D-01 BMatC= 1.31D-09 BMatP= 2.84D-08
 IDIUse=1 WtCom= 1.00D+00 WtEn= 0.00D+00
 Coeff-Com:  0.344D-04-0.378D-03-0.167D-02 0.153D-01-0.177D-01-0.180D+00
 Coeff-Com:  0.118D+01
 Coeff:      0.344D-04-0.378D-03-0.167D-02 0.153D-01-0.177D-01-0.180D+00
 Coeff:      0.118D+01
 Gap=     0.536 Goal=   None    Shift=    0.000
 RMSDP=3.87D-07 MaxDP=9.07D-06 DE=-8.83D-08 OVMax= 3.21D-05

 Cycle   8  Pass 1  IDiag  1:
 E= -76.0545225521782     Delta-E=       -0.000000002725 Rises=F Damp=F
 DIIS: error= 1.36D-06 at cycle   8 NSaved=   8.
 NSaved= 8 IEnMin= 8 EnMin= -76.0545225521782     IErMin= 8 ErrMin= 1.36D-06
 ErrMax= 1.36D-06  0.00D+00 EMaxC= 1.00D-01 BMatC= 6.86D-11 BMatP= 1.31D-09
 IDIUse=1 WtCom= 1.00D+00 WtEn= 0.00D+00
 Coeff-Com:  0.791D-05 0.144D-04 0.130D-03-0.506D-02 0.201D-01-0.799D-02
 Coeff-Com: -0.372D+00 0.137D+01
 Coeff:      0.791D-05 0.144D-04 0.130D-03-0.506D-02 0.201D-01-0.799D-02
 Coeff:     -0.372D+00 0.137D+01
 Gap=     0.536 Goal=   None    Shift=    0.000
 RMSDP=1.26D-07 MaxDP=2.67D-06 DE=-2.73D-09 OVMax= 8.22D-06

 Cycle   9  Pass 1  IDiag  1:
 E= -76.0545225523550     Delta-E=       -0.000000000177 Rises=F Damp=F
 DIIS: error= 2.24D-07 at cycle   9 NSaved=   9.
 NSaved= 9 IEnMin= 9 EnMin= -76.0545225523550     IErMin= 9 ErrMin= 2.24D-07
 ErrMax= 2.24D-07  0.00D+00 EMaxC= 1.00D-01 BMatC= 1.38D-12 BMatP= 6.86D-11
 IDIUse=1 WtCom= 1.00D+00 WtEn= 0.00D+00
 Coeff-Com: -0.248D-05 0.240D-05-0.143D-04 0.104D-02-0.435D-02 0.302D-02
 Coeff-Com:  0.894D-01-0.419D+00 0.133D+01
 Coeff:     -0.248D-05 0.240D-05-0.143D-04 0.104D-02-0.435D-02 0.302D-02
 Coeff:      0.894D-01-0.419D+00 0.133D+01
 Gap=     0.536 Goal=   None    Shift=    0.000
 RMSDP=2.27D-08 MaxDP=4.29D-07 DE=-1.77D-10 OVMax= 1.12D-06

 Cycle  10  Pass 1  IDiag  1:
 E= -76.0545225523587     Delta-E=       -0.000000000004 Rises=F Damp=F
 DIIS: error= 4.70D-08 at cycle  10 NSaved=  10.
 NSaved=10 IEnMin=10 EnMin= -76.0545225523587     IErMin=10 ErrMin= 4.70D-08
 ErrMax= 4.70D-08  0.00D+00 EMaxC= 1.00D-01 BMatC= 5.71D-14 BMatP= 1.38D-12
 IDIUse=1 WtCom= 1.00D+00 WtEn= 0.00D+00
 Coeff-Com:  0.736D-06-0.150D-05 0.124D-05-0.257D-03 0.112D-02-0.127D-02
 Coeff-Com: -0.204D-01 0.113D+00-0.524D+00 0.143D+01
 Coeff:      0.736D-06-0.150D-05 0.124D-05-0.257D-03 0.112D-02-0.127D-02
 Coeff:     -0.204D-01 0.113D+00-0.524D+00 0.143D+01
 Gap=     0.536 Goal=   None    Shift=    0.000
 RMSDP=5.76D-09 MaxDP=1.53D-07 DE=-3.71D-12 OVMax= 3.25D-07

 SCF Done:  E(RHF) =  -76.0545225524     A.U. after   10 cycles
            NFock= 10  Conv=0.58D-08     -V/T= 2.0033
 KE= 7.580285779194D+01 PE=-1.981442757234D+02 EE= 3.748321035440D+01
 Leave Link  502 at Tue Nov 16 16:04:18 2021, MaxMem= 16106127360 cpu:              15.0 elap:               0.6
 (Enter /sw/contrib/gaussian/g16/B01/g16/l801.exe)
 ExpMin= 2.53D-02 ExpMax= 1.53D+04 ExpMxC= 5.22D+02 IAcc=3 IRadAn=         5 AccDes= 0.00D+00
 HarFok:  IExCor=  205 AccDes= 0.00D+00 IRadAn=         5 IDoV=-2 UseB2=F ITyADJ=14
 ICtDFT= 12500011 ScaDFX=  1.000000  1.000000  1.000000  1.000000
 Largest valence mixing into a core orbital is  1.13D-04
 Largest core mixing into a valence orbital is  1.83D-05
 Range of M.O.s used for correlation:     2    92
 NBasis=    92 NAE=     5 NBE=     5 NFC=     1 NFV=     0
 NROrb=     91 NOA=     4 NOB=     4 NVA=    87 NVB=    87

 **** Warning!!: The largest alpha MO coefficient is  0.14558281D+02

 Leave Link  801 at Tue Nov 16 16:04:19 2021, MaxMem= 16106127360 cpu:               5.4 elap:               0.3
 (Enter /sw/contrib/gaussian/g16/B01/g16/l906.exe)
 Frozen-core derivative calculation, NFC=   1 NFV=   0.
 FulOut=F Deriv=T AODrv=T NAtomX=     3
   MMem=        1444  MDisk=           4 MDiskD=           4
  W3Min=       48300 MinDsk=      199415 NBas6D=         105
 NBas2D=        5790    NTT=        5565    LW2=     3500000
    MDV= 16106014498 MDiskM=      766857 NBas2p=        3790
 Fully direct method using O(ONN) memory.
 IMap=   1   2   3   4   5
 JobTyp=1 Pass  1:  I=   2 to   5 NPSUse= 28 ParTrn=T ParDer=T DoDerP=T.
 Spin components of T(2) and E(2):
     alpha-alpha T2 =       0.8491819244D-02 E2=     -0.3297304698D-01
     alpha-beta  T2 =       0.4960122607D-01 E2=     -0.2059575098D+00
     beta-beta   T2 =       0.8491819244D-02 E2=     -0.3297304698D-01
 The integrals were generated   1 times.
 ANorm=    0.1032755956D+01
 E2 =    -0.2719036038D+00 EUMP2 =    -0.76326426156126D+02
 Leave Link  906 at Tue Nov 16 16:04:20 2021, MaxMem= 16106127360 cpu:              20.6 elap:               0.8
 (Enter /sw/contrib/gaussian/g16/B01/g16/l1002.exe)
 Minotr:  Closed shell wavefunction.
          Computing MP2/KS-MP2 derivatives.
          Using Z-Vector for PSCF gradient.
          Skipping F1 and S1 gradient terms here.
          IDoAtm=111
          Frozen-core window.
          Direct CPHF calculation.
          Differentiating once with respect to electric field.
                with respect to dipole field.
          Differentiating once with respect to nuclear coordinates.
          Using symmetry in CPHF.
          Requested convergence is 1.0D-10 RMS, and 1.0D-09 maximum.
          NewPWx=F KeepS1=T KeepF1=T KeepIn=T MapXYZ=F SortEE=F KeepMc=T.
 Keep R1 ints in memory in symmetry-blocked form, NReq=22814278.
 FoFCou: FMM=F IPFlag=           0 FMFlag=           0 FMFlg1=           0
         NFxFlg=           0 DoJE=F BraDBF=F KetDBF=F FulRan=T
         wScrn=  0.000000 ICntrl=       600 IOpCl=  0 I1Cent=           0 NGrid=           0
         NMat0=    1 NMatS0=   4278 NMatT0=    0 NMatD0=    1 NMtDS0=    0 NMtDT0=    0
 Petite list used in FoFCou.
          MDV=   16106127360 using IRadAn=       5.
          Solving linear equations separately, MaxMat=       0.
          There are     1 degrees of freedom in the 1st order CPHF.  IDoFFX=0 NUNeed=     1.
 LinEq1:  Iter=  0 NonCon=     1 RMS=4.94D-03 Max=5.35D-02 NDo=     1
 AX will form     1 AO Fock derivatives at one time.
 LinEq1:  Iter=  1 NonCon=     1 RMS=7.03D-04 Max=5.39D-03 NDo=     1
 LinEq1:  Iter=  2 NonCon=     1 RMS=2.62D-04 Max=2.26D-03 NDo=     1
 LinEq1:  Iter=  3 NonCon=     1 RMS=7.08D-05 Max=5.32D-04 NDo=     1
 LinEq1:  Iter=  4 NonCon=     1 RMS=1.09D-05 Max=8.02D-05 NDo=     1
 LinEq1:  Iter=  5 NonCon=     1 RMS=1.70D-06 Max=1.16D-05 NDo=     1
 LinEq1:  Iter=  6 NonCon=     1 RMS=2.73D-07 Max=2.14D-06 NDo=     1
 LinEq1:  Iter=  7 NonCon=     1 RMS=3.34D-08 Max=2.76D-07 NDo=     1
 LinEq1:  Iter=  8 NonCon=     1 RMS=3.85D-09 Max=4.07D-08 NDo=     1
 LinEq1:  Iter=  9 NonCon=     1 RMS=3.84D-10 Max=2.62D-09 NDo=     1
 LinEq1:  Iter= 10 NonCon=     0 RMS=3.10D-11 Max=2.84D-10 NDo=     1
 Linear equations converged to 1.000D-10 1.000D-09 after    10 iterations.
 End of Minotr F.D. properties file   721 does not exist.
 End of Minotr F.D. properties file   722 does not exist.
 End of Minotr F.D. properties file   788 does not exist.
 Leave Link 1002 at Tue Nov 16 16:04:21 2021, MaxMem= 16106127360 cpu:              17.8 elap:               0.8
 (Enter /sw/contrib/gaussian/g16/B01/g16/l601.exe)
 Copying SCF densities to generalized density rwf, IOpCl= 0 IROHF=0.

 **********************************************************************

            Population analysis using the MP2 Density.

 **********************************************************************

 Orbital symmetries:
       Occupied  (A1) (A1) (B2) (A1) (B1)
       Virtual   (A1) (B2) (A1) (B1) (A1) (B2) (B2) (A1) (A2) (B1)
                 (A1) (B2) (A1) (B2) (B2) (A1) (A1) (A2) (B1) (A1)
                 (B1) (A1) (B2) (A2) (B1) (B2) (A1) (A1) (B2) (B1)
                 (B2) (A2) (A1) (B2) (A2) (A1) (B1) (B2) (A1) (B2)
                 (A1) (B1) (A2) (A1) (A1) (B1) (B2) (A1) (B2) (B1)
                 (A1) (B2) (A2) (B2) (A1) (A2) (B1) (A1) (B2) (B1)
                 (A2) (B1) (A1) (B2) (A1) (B2) (A2) (B2) (A1) (B2)
                 (B1) (A1) (A1) (B2) (B1) (A1) (B1) (B2) (A2) (B1)
                 (A1) (A2) (A1) (B2) (A1) (B2) (A1)
 The electronic state is 1-A1.
 Alpha  occ. eigenvalues --  -20.57499  -1.33328  -0.69328  -0.57861  -0.50734
 Alpha virt. eigenvalues --    0.02880   0.04756   0.13554   0.16075   0.17384
 Alpha virt. eigenvalues --    0.18314   0.22315   0.24332   0.26539   0.29760
 Alpha virt. eigenvalues --    0.30838   0.36447   0.42930   0.45789   0.59689
 Alpha virt. eigenvalues --    0.65538   0.70599   0.72418   0.73318   0.81825
 Alpha virt. eigenvalues --    0.84290   0.90054   0.90379   0.91804   0.92223
 Alpha virt. eigenvalues --    0.92763   0.95612   1.00699   1.03099   1.07589
 Alpha virt. eigenvalues --    1.09906   1.16714   1.16926   1.27560   1.49566
 Alpha virt. eigenvalues --    1.53646   1.55905   1.79165   1.82516   1.93451
 Alpha virt. eigenvalues --    2.07804   2.25823   2.30626   2.33157   2.41113
 Alpha virt. eigenvalues --    2.41262   2.44257   2.49648   2.70389   2.70410
 Alpha virt. eigenvalues --    2.73216   2.80188   2.86256   3.58908   3.67972
 Alpha virt. eigenvalues --    3.98846   4.03987   4.13289   4.19219   4.25750
 Alpha virt. eigenvalues --    4.35799   4.37540   4.37673   4.47887   4.66973
 Alpha virt. eigenvalues --    4.73725   5.04340   5.05333   5.17574   5.19859
 Alpha virt. eigenvalues --    5.40160   5.58312   6.13437   6.52139   6.69700
 Alpha virt. eigenvalues --    6.83572   7.07484   7.20204   7.21493   7.23343
 Alpha virt. eigenvalues --    7.32152   7.35311   7.42374   7.82168   7.83522
 Alpha virt. eigenvalues --    8.59396  14.58029
          Condensed to atoms (all electrons):
               1          2          3
     1  O    8.073181   0.201235   0.201235
     2  H    0.201235   0.535360   0.025579
     3  H    0.201235   0.025579   0.535360
 Mulliken charges:
               1
     1  O   -0.475652
     2  H    0.237826
     3  H    0.237826
 Sum of Mulliken charges =   0.00000
 Mulliken charges with hydrogens summed into heavy atoms:
               1
     1  O    0.000000
 Electronic spatial extent (au):  <R**2>=             20.6127
 Charge=             -0.0000 electrons
 Dipole moment (field-independent basis, Debye):
    X=             -0.0000    Y=              0.0000    Z=             -1.8872  Tot=              1.8872
 Quadrupole moment (field-independent basis, Debye-Ang):
   XX=             -7.9594   YY=             -4.4065   ZZ=             -6.4884
   XY=              0.0000   XZ=              0.0000   YZ=             -0.0000
 Traceless Quadrupole moment (field-independent basis, Debye-Ang):
   XX=             -1.6746   YY=              1.8783   ZZ=             -0.2037
   XY=              0.0000   XZ=              0.0000   YZ=             -0.0000
 Octapole moment (field-independent basis, Debye-Ang**2):
  XXX=              0.0000  YYY=              0.0000  ZZZ=             -0.8992  XYY=             -0.0000
  XXY=              0.0000  XXZ=             -0.1554  XZZ=              0.0000  YZZ=              0.0000
  YYZ=             -1.4344  XYZ=             -0.0000
 Hexadecapole moment (field-independent basis, Debye-Ang**3):
 XXXX=             -7.9276 YYYY=             -6.9008 ZZZZ=             -8.3900 XXXY=             -0.0000
 XXXZ=             -0.0000 YYYX=             -0.0000 YYYZ=             -0.0000 ZZZX=             -0.0000
 ZZZY=              0.0000 XXYY=             -2.8513 XXZZ=             -2.7784 YYZZ=             -2.1636
 XXYZ=              0.0000 YYXZ=              0.0000 ZZXY=              0.0000
 N-N= 8.803685024733D+00 E-N=-1.981939709719D+02  KE= 7.612546008014D+01
 Symmetry A1   KE= 6.800093956676D+01
 Symmetry A2   KE= 2.527142463099D-02
 Symmetry B1   KE= 4.448753520496D+00
 Symmetry B2   KE= 3.650495568250D+00
 No NMR shielding tensors so no spin-rotation constants.
 Leave Link  601 at Tue Nov 16 16:04:22 2021, MaxMem= 16106127360 cpu:               8.4 elap:               0.4
 (Enter /sw/contrib/gaussian/g16/B01/g16/l701.exe)
 ... and contract with generalized density number  2.
 Compute integral first derivatives.
 Leave Link  701 at Tue Nov 16 16:04:22 2021, MaxMem= 16106127360 cpu:               4.8 elap:               0.2
 (Enter /sw/contrib/gaussian/g16/B01/g16/l702.exe)
 L702 exits ... SP integral derivatives will be done elsewhere.
 Leave Link  702 at Tue Nov 16 16:04:22 2021, MaxMem= 16106127360 cpu:               0.6 elap:               0.0
 (Enter /sw/contrib/gaussian/g16/B01/g16/l703.exe)
 Integral derivatives from FoFJK, PRISM(SPDF).
 Compute integral first derivatives, UseDBF=F ICtDFT=           0.
 Calling FoFJK, ICntrl=  10002127 FMM=F ISym2X=1 I1Cent= 0 IOpClX= 0 NMat=1 NMatS=1 NMatT=0.
 FoFJK:  IHMeth= 1 ICntrl=10002127 DoSepK=F KAlg= 0 I1Cent=           0 FoldK=F
 IRaf=         0 NMat=       1 IRICut=       1 DoRegI=T DoRafI=F ISym2E= 1 IDoP0=0 IntGTp=1.
 FoFCou: FMM=F IPFlag=           0 FMFlag=      100000 FMFlg1=         800
         NFxFlg=           0 DoJE=F BraDBF=F KetDBF=F FulRan=T
         wScrn=  0.000000 ICntrl=  10002127 IOpCl=  0 I1Cent=           0 NGrid=           0
         NMat0=    1 NMatS0=      1 NMatT0=    0 NMatD0=    1 NMtDS0=    0 NMtDT0=    0
 Petite list used in FoFCou.
 Leave Link  703 at Tue Nov 16 16:04:22 2021, MaxMem= 16106127360 cpu:              12.3 elap:               0.5
 (Enter /sw/contrib/gaussian/g16/B01/g16/l716.exe)
 Dipole        =-4.97774084D-17 2.22044605D-16-7.42499392D-01
 ***** Axes restored to original set *****
 -------------------------------------------------------------------
 Center     Atomic                   Forces (Hartrees/Bohr)
 Number     Number              X              Y              Z
 -------------------------------------------------------------------
      1        8           0.030983737    0.000000000    0.024412390
      2        1           0.001539737   -0.000000000   -0.033822382
      3        1          -0.032523474   -0.000000000    0.009409992
 -------------------------------------------------------------------
 Cartesian Forces:  Max     0.033822382 RMS     0.020679043
 -----------------------------------------------------------------------------------------------
                       Internal Coordinate Forces (Hartree/Bohr or radian)
  Cent   Atom   N1       Length/X         N2         Alpha/Y        N3         Beta/Z          J
 -----------------------------------------------------------------------------------------------
      1  O 
      2  H        1  -0.033822(     1)
      3  H        1  -0.033822(     2)      2  -0.002910(     3)
 -----------------------------------------------------------------------------------------------
 Internal  Forces:  Max     0.033822382 RMS     0.027666907
 Force constants in Cartesian coordinates: 
                1             2             3             4             5 
      1  0.519002D+00
      2  0.000000D+00  0.100000D+01
      3 -0.547213D-01  0.000000D+00  0.545338D+00
      4 -0.552869D-01  0.000000D+00 -0.435611D-01  0.448046D-01
      5  0.000000D+00  0.000000D+00  0.000000D+00  0.000000D+00  0.100000D+01
      6  0.000000D+00  0.000000D+00 -0.476883D+00  0.000000D+00  0.000000D+00
      7 -0.463715D+00  0.000000D+00  0.982824D-01  0.104823D-01  0.000000D+00
      8  0.000000D+00  0.000000D+00  0.000000D+00  0.000000D+00  0.000000D+00
      9  0.547213D-01  0.000000D+00 -0.684548D-01  0.435611D-01  0.000000D+00
                6             7             8             9 
      6  0.476883D+00
      7  0.000000D+00  0.453233D+00
      8  0.000000D+00  0.000000D+00  0.100000D+01
      9  0.000000D+00 -0.982824D-01  0.000000D+00  0.684548D-01
 Force constants in internal coordinates: 
                1             2             3 
      1  0.476883D+00
      2  0.000000D+00  0.476883D+00
      3  0.000000D+00  0.000000D+00  0.160000D+00
 Leave Link  716 at Tue Nov 16 16:04:23 2021, MaxMem= 16106127360 cpu:               3.3 elap:               0.2
 (Enter /sw/contrib/gaussian/g16/B01/g16/l103.exe)

 GradGradGradGradGradGradGradGradGradGradGradGradGradGradGradGradGradGrad
 Berny optimization.
 Search for a local minimum.
 Step number   1 out of a maximum of   20
 All quantities printed in internal units (Hartrees-Bohrs-Radians)
 Second derivative matrix not updated -- first step.
 The second derivative matrix:
                          rOD       rOH      aHOCl
           rOD          0.47688
           rOH          0.00000   0.47688
           aHOCl       -0.00000   0.00000   0.16000
 ITU=  0
     Eigenvalues ---    0.16000   0.47688   0.47688
 RFO step:  Lambda=-4.80118194D-03 EMin= 1.60000000D-01
 Linear search not attempted -- first point.
 Variable       Old X    -DE/DX   Delta X   Delta X   Delta X     New X
                                 (Linear)    (Quad)   (Total)
   rOD        1.88973  -0.03382   0.00000  -0.07022  -0.07022   1.81951
   rOH        1.88973  -0.03382   0.00000  -0.07022  -0.07022   1.81951
  aHOCl       1.80694  -0.00291   0.00000  -0.01766  -0.01766   1.78929
         Item               Value     Threshold  Converged?
 Maximum Force            0.033822     0.000450     NO 
 RMS     Force            0.027667     0.000300     NO 
 Maximum Displacement     0.070217     0.001800     NO 
 RMS     Displacement     0.058231     0.001200     NO 
 Predicted change in Energy=-2.425009D-03
 Lowest energy point so far.  Saving SCF results.
 GradGradGradGradGradGradGradGradGradGradGradGradGradGradGradGradGradGrad

 Leave Link  103 at Tue Nov 16 16:04:23 2021, MaxMem= 16106127360 cpu:               0.8 elap:               0.1
 (Enter /sw/contrib/gaussian/g16/B01/g16/l202.exe)
 ---------------------------------------------------------------------------------------------------
                            Z-MATRIX (ANGSTROMS AND DEGREES)
   CD    Cent   Atom    N1       Length/X        N2       Alpha/Y        N3        Beta/Z          J
 ---------------------------------------------------------------------------------------------------
      1      1  O 
      2      2  H        1   0.962843(     1)
      3      3  H        1   0.962843(     2)      2  102.519(     3)
 ---------------------------------------------------------------------------------------------------
                         Z-Matrix orientation:                         
 ---------------------------------------------------------------------
 Center     Atomic      Atomic             Coordinates (Angstroms)
 Number     Number       Type             X           Y           Z
 ---------------------------------------------------------------------
      1          8           0        0.000000    0.000000    0.000000
      2          1           0        0.000000    0.000000    0.962843
      3          1           0        0.939952    0.000000   -0.208702
 ---------------------------------------------------------------------
                    Distance matrix (angstroms):
                    1          2          3
     1  O    0.000000
     2  H    0.962843   0.000000
     3  H    0.962843   1.502008   0.000000
 Stoichiometry    H2O
 Framework group  C2V[C2(O),SGV(H2)]
 Deg. of freedom     2
 Full point group                 C2V     NOp   4
 RotChk:  IX=0 Diff= 1.25D-02
 Largest Abelian subgroup         C2V     NOp   4
 Largest concise Abelian subgroup C2      NOp   2
                         Standard orientation:                         
 ---------------------------------------------------------------------
 Center     Atomic      Atomic             Coordinates (Angstroms)
 Number     Number       Type             X           Y           Z
 ---------------------------------------------------------------------
      1          8           0        0.000000    0.000000    0.120509
      2          1           0        0.000000    0.751004   -0.482035
      3          1           0       -0.000000   -0.751004   -0.482035
 ---------------------------------------------------------------------
 Rotational constants (GHZ):         663.2123762         275.3908313         194.5897970
 Leave Link  202 at Tue Nov 16 16:04:23 2021, MaxMem= 16106127360 cpu:               2.5 elap:               0.1
 (Enter /sw/contrib/gaussian/g16/B01/g16/l301.exe)
 Standard basis: Aug-CC-pVTZ (5D, 7F)
 Ernie: Thresh=  0.10000D-02 Tol=  0.10000D-05 Strict=F.
 Ernie:  3 primitive shells out of 52 were deleted.
 There are    42 symmetry adapted cartesian basis functions of A1  symmetry.
 There are    12 symmetry adapted cartesian basis functions of A2  symmetry.
 There are    20 symmetry adapted cartesian basis functions of B1  symmetry.
 There are    31 symmetry adapted cartesian basis functions of B2  symmetry.
 There are    35 symmetry adapted basis functions of A1  symmetry.
 There are    12 symmetry adapted basis functions of A2  symmetry.
 There are    18 symmetry adapted basis functions of B1  symmetry.
 There are    27 symmetry adapted basis functions of B2  symmetry.
    92 basis functions,   126 primitive gaussians,   105 cartesian basis functions
     5 alpha electrons        5 beta electrons
       nuclear repulsion energy         9.1458932278 Hartrees.
 IExCor=    0 DFT=F Ex=HF Corr=None ExCW=0 ScaHFX=  1.000000
 ScaDFX=  1.000000  1.000000  1.000000  1.000000 ScalE2=  1.000000  1.000000
 IRadAn=      5 IRanWt=     -1 IRanGd=            0 ICorTp=0 IEmpDi=  4
 NAtoms=    3 NActive=    3 NUniq=    2 SFac= 2.25D+00 NAtFMM=   60 NAOKFM=F Big=F
 Integral buffers will be    131072 words long.
 Raffenetti 1 integral format.
 Two-electron integral symmetry is turned on.
 Leave Link  301 at Tue Nov 16 16:04:23 2021, MaxMem= 16106127360 cpu:               1.6 elap:               0.1
 (Enter /sw/contrib/gaussian/g16/B01/g16/l302.exe)
 NPDir=0 NMtPBC=     1 NCelOv=     1 NCel=       1 NClECP=     1 NCelD=      1
         NCelK=      1 NCelE2=     1 NClLst=     1 CellRange=     0.0.
 One-electron integrals computed using PRISM.
 One-electron integral symmetry used in STVInt
 NBasis=    92 RedAO= T EigKep=  3.93D-04  NBF=    35    12    18    27
 NBsUse=    92 1.00D-06 EigRej= -1.00D+00 NBFU=    35    12    18    27
 Leave Link  302 at Tue Nov 16 16:04:23 2021, MaxMem= 16106127360 cpu:               4.4 elap:               0.2
 (Enter /sw/contrib/gaussian/g16/B01/g16/l303.exe)
 DipDrv:  MaxL=1.
 Leave Link  303 at Tue Nov 16 16:04:23 2021, MaxMem= 16106127360 cpu:               0.8 elap:               0.1
 (Enter /sw/contrib/gaussian/g16/B01/g16/l401.exe)
 Initial guess from the checkpoint file:  "/gscratch/ilahie/mccoygrp/coire_hocl/oop_s_rOH_f/hod_opt.chk"
 B after Tr=     0.000000    0.000000   -0.000000
         Rot=    1.000000   -0.000000    0.000000   -0.000000 Ang=   0.00 deg.
 Guess basis will be translated and rotated to current coordinates.
 JPrj=2 DoOrth=T DoCkMO=T.
 Initial guess orbital symmetries:
       Occupied  (A1) (A1) (B2) (A1) (B1)
       Virtual   (A1) (B2) (A1) (B1) (A1) (B2) (B2) (A1) (A2) (B1)
                 (A1) (B2) (A1) (B2) (B2) (A1) (A1) (A2) (B1) (A1)
                 (B1) (A1) (B2) (A2) (B1) (B2) (A1) (A1) (B2) (B1)
                 (B2) (A2) (A1) (B2) (A2) (A1) (B1) (B2) (A1) (B2)
                 (A1) (B1) (A2) (A1) (A1) (B1) (B2) (A1) (B2) (B1)
                 (A1) (B2) (A2) (B2) (A1) (A2) (B1) (A1) (B2) (B1)
                 (A2) (B1) (A1) (B2) (A1) (B2) (A2) (B2) (A1) (B2)
                 (B1) (A1) (A1) (B2) (B1) (A1) (B1) (B2) (A2) (B1)
                 (A1) (A2) (A1) (B2) (A1) (B2) (A1)
 The electronic state of the initial guess is 1-A1.
 Generating alternative initial guess.
 ExpMin= 2.53D-02 ExpMax= 1.53D+04 ExpMxC= 5.22D+02 IAcc=3 IRadAn=         5 AccDes= 0.00D+00
 Harris functional with IExCor=  205 and IRadAn=       5 diagonalized for initial guess.
 HarFok:  IExCor=  205 AccDes= 0.00D+00 IRadAn=         5 IDoV= 1 UseB2=F ITyADJ=14
 ICtDFT=  3500011 ScaDFX=  1.000000  1.000000  1.000000  1.000000
 FoFCou: FMM=F IPFlag=           0 FMFlag=      100000 FMFlg1=           0
         NFxFlg=           0 DoJE=T BraDBF=F KetDBF=T FulRan=T
         wScrn=  0.000000 ICntrl=       500 IOpCl=  0 I1Cent=   200000004 NGrid=           0
         NMat0=    1 NMatS0=      1 NMatT0=    0 NMatD0=    1 NMtDS0=    0 NMtDT0=    0
 Petite list used in FoFCou.
 Harris En= -76.1528039221320    
 Leave Link  401 at Tue Nov 16 16:04:24 2021, MaxMem= 16106127360 cpu:               7.3 elap:               0.3
 (Enter /sw/contrib/gaussian/g16/B01/g16/l502.exe)
 Keep R1 ints in memory in symmetry-blocked form, NReq=22813450.
 FoFCou: FMM=F IPFlag=           0 FMFlag=           0 FMFlg1=           0
         NFxFlg=           0 DoJE=F BraDBF=F KetDBF=F FulRan=T
         wScrn=  0.000000 ICntrl=       600 IOpCl=  0 I1Cent=           0 NGrid=           0
         NMat0=    1 NMatS0=   4278 NMatT0=    0 NMatD0=    1 NMtDS0=    0 NMtDT0=    0
 Petite list used in FoFCou.
 Closed shell SCF:
 Using DIIS extrapolation, IDIIS=  1040.
 NGot= 16106127360 LenX= 16103758030 LenY= 16103746564
 Requested convergence on RMS density matrix=1.00D-08 within 128 cycles.
 Requested convergence on MAX density matrix=1.00D-06.
 Requested convergence on             energy=1.00D-06.
 No special actions if energy rises.

 Cycle   1  Pass 1  IDiag  1:
 E= -76.0591726810839    
 DIIS: error= 4.32D-03 at cycle   1 NSaved=   1.
 NSaved= 1 IEnMin= 1 EnMin= -76.0591726810839     IErMin= 1 ErrMin= 4.32D-03
 ErrMax= 4.32D-03  0.00D+00 EMaxC= 1.00D-01 BMatC= 1.12D-03 BMatP= 1.12D-03
 IDIUse=3 WtCom= 9.57D-01 WtEn= 4.32D-02
 Coeff-Com:  0.100D+01
 Coeff-En:   0.100D+01
 Coeff:      0.100D+01
 Gap=     0.558 Goal=   None    Shift=    0.000
 GapD=    0.558 DampG=2.000 DampE=1.000 DampFc=2.0000 IDamp=-1.
 RMSDP=3.32D-04 MaxDP=6.63D-03              OVMax= 8.91D-03

 Cycle   2  Pass 1  IDiag  1:
 E= -76.0598904402521     Delta-E=       -0.000717759168 Rises=F Damp=F
 DIIS: error= 1.98D-03 at cycle   2 NSaved=   2.
 NSaved= 2 IEnMin= 2 EnMin= -76.0598904402521     IErMin= 2 ErrMin= 1.98D-03
 ErrMax= 1.98D-03  0.00D+00 EMaxC= 1.00D-01 BMatC= 1.11D-04 BMatP= 1.12D-03
 IDIUse=3 WtCom= 9.80D-01 WtEn= 1.98D-02
 Coeff-Com:  0.103D+00 0.897D+00
 Coeff-En:   0.000D+00 0.100D+01
 Coeff:      0.101D+00 0.899D+00
 Gap=     0.538 Goal=   None    Shift=    0.000
 RMSDP=7.06D-05 MaxDP=1.69D-03 DE=-7.18D-04 OVMax= 3.36D-03

 Cycle   3  Pass 1  IDiag  1:
 E= -76.0599539570021     Delta-E=       -0.000063516750 Rises=F Damp=F
 DIIS: error= 6.51D-04 at cycle   3 NSaved=   3.
 NSaved= 3 IEnMin= 3 EnMin= -76.0599539570021     IErMin= 3 ErrMin= 6.51D-04
 ErrMax= 6.51D-04  0.00D+00 EMaxC= 1.00D-01 BMatC= 2.03D-05 BMatP= 1.11D-04
 IDIUse=3 WtCom= 9.93D-01 WtEn= 6.51D-03
 Coeff-Com: -0.465D-01 0.253D+00 0.793D+00
 Coeff-En:   0.000D+00 0.000D+00 0.100D+01
 Coeff:     -0.462D-01 0.252D+00 0.795D+00
 Gap=     0.540 Goal=   None    Shift=    0.000
 RMSDP=2.59D-05 MaxDP=4.56D-04 DE=-6.35D-05 OVMax= 1.64D-03

 Cycle   4  Pass 1  IDiag  1:
 E= -76.0599698789564     Delta-E=       -0.000015921954 Rises=F Damp=F
 DIIS: error= 1.54D-04 at cycle   4 NSaved=   4.
 NSaved= 4 IEnMin= 4 EnMin= -76.0599698789564     IErMin= 4 ErrMin= 1.54D-04
 ErrMax= 1.54D-04  0.00D+00 EMaxC= 1.00D-01 BMatC= 6.01D-07 BMatP= 2.03D-05
 IDIUse=3 WtCom= 9.98D-01 WtEn= 1.54D-03
 Coeff-Com: -0.111D-02-0.643D-01-0.304D-01 0.110D+01
 Coeff-En:   0.000D+00 0.000D+00 0.000D+00 0.100D+01
 Coeff:     -0.111D-02-0.642D-01-0.303D-01 0.110D+01
 Gap=     0.540 Goal=   None    Shift=    0.000
 RMSDP=7.75D-06 MaxDP=1.65D-04 DE=-1.59D-05 OVMax= 5.92D-04

 Cycle   5  Pass 1  IDiag  1:
 E= -76.0599710985907     Delta-E=       -0.000001219634 Rises=F Damp=F
 DIIS: error= 3.43D-05 at cycle   5 NSaved=   5.
 NSaved= 5 IEnMin= 5 EnMin= -76.0599710985907     IErMin= 5 ErrMin= 3.43D-05
 ErrMax= 3.43D-05  0.00D+00 EMaxC= 1.00D-01 BMatC= 4.61D-08 BMatP= 6.01D-07
 IDIUse=1 WtCom= 1.00D+00 WtEn= 0.00D+00
 Coeff-Com:  0.358D-02-0.895D-02-0.582D-01-0.211D+00 0.127D+01
 Coeff:      0.358D-02-0.895D-02-0.582D-01-0.211D+00 0.127D+01
 Gap=     0.540 Goal=   None    Shift=    0.000
 RMSDP=3.81D-06 MaxDP=1.09D-04 DE=-1.22D-06 OVMax= 2.78D-04

 Cycle   6  Pass 1  IDiag  1:
 E= -76.0599712407718     Delta-E=       -0.000000142181 Rises=F Damp=F
 DIIS: error= 7.31D-06 at cycle   6 NSaved=   6.
 NSaved= 6 IEnMin= 6 EnMin= -76.0599712407718     IErMin= 6 ErrMin= 7.31D-06
 ErrMax= 7.31D-06  0.00D+00 EMaxC= 1.00D-01 BMatC= 1.89D-09 BMatP= 4.61D-08
 IDIUse=1 WtCom= 1.00D+00 WtEn= 0.00D+00
 Coeff-Com: -0.130D-02 0.581D-02 0.225D-01 0.412D-01-0.500D+00 0.143D+01
 Coeff:     -0.130D-02 0.581D-02 0.225D-01 0.412D-01-0.500D+00 0.143D+01
 Gap=     0.540 Goal=   None    Shift=    0.000
 RMSDP=7.45D-07 MaxDP=2.34D-05 DE=-1.42D-07 OVMax= 5.30D-05

 Cycle   7  Pass 1  IDiag  1:
 E= -76.0599712464442     Delta-E=       -0.000000005672 Rises=F Damp=F
 DIIS: error= 9.18D-07 at cycle   7 NSaved=   7.
 NSaved= 7 IEnMin= 7 EnMin= -76.0599712464442     IErMin= 7 ErrMin= 9.18D-07
 ErrMax= 9.18D-07  0.00D+00 EMaxC= 1.00D-01 BMatC= 3.91D-11 BMatP= 1.89D-09
 IDIUse=1 WtCom= 1.00D+00 WtEn= 0.00D+00
 Coeff-Com:  0.276D-03-0.130D-02-0.487D-02-0.995D-02 0.124D+00-0.447D+00
 Coeff-Com:  0.134D+01
 Coeff:      0.276D-03-0.130D-02-0.487D-02-0.995D-02 0.124D+00-0.447D+00
 Coeff:      0.134D+01
 Gap=     0.540 Goal=   None    Shift=    0.000
 RMSDP=1.39D-07 MaxDP=3.20D-06 DE=-5.67D-09 OVMax= 6.50D-06

 Cycle   8  Pass 1  IDiag  1:
 E= -76.0599712465420     Delta-E=       -0.000000000098 Rises=F Damp=F
 DIIS: error= 1.41D-07 at cycle   8 NSaved=   8.
 NSaved= 8 IEnMin= 8 EnMin= -76.0599712465420     IErMin= 8 ErrMin= 1.41D-07
 ErrMax= 1.41D-07  0.00D+00 EMaxC= 1.00D-01 BMatC= 5.54D-13 BMatP= 3.91D-11
 IDIUse=1 WtCom= 1.00D+00 WtEn= 0.00D+00
 Coeff-Com: -0.540D-04 0.277D-03 0.982D-03 0.173D-02-0.245D-01 0.984D-01
 Coeff-Com: -0.376D+00 0.130D+01
 Coeff:     -0.540D-04 0.277D-03 0.982D-03 0.173D-02-0.245D-01 0.984D-01
 Coeff:     -0.376D+00 0.130D+01
 Gap=     0.540 Goal=   None    Shift=    0.000
 RMSDP=2.55D-08 MaxDP=6.61D-07 DE=-9.78D-11 OVMax= 8.86D-07

 Cycle   9  Pass 1  IDiag  1:
 E= -76.0599712465434     Delta-E=       -0.000000000001 Rises=F Damp=F
 DIIS: error= 2.33D-08 at cycle   9 NSaved=   9.
 NSaved= 9 IEnMin= 9 EnMin= -76.0599712465434     IErMin= 9 ErrMin= 2.33D-08
 ErrMax= 2.33D-08  0.00D+00 EMaxC= 1.00D-01 BMatC= 1.29D-14 BMatP= 5.54D-13
 IDIUse=1 WtCom= 1.00D+00 WtEn= 0.00D+00
 Coeff-Com:  0.105D-04-0.517D-04-0.192D-03-0.415D-03 0.504D-02-0.203D-01
 Coeff-Com:  0.846D-01-0.391D+00 0.132D+01
 Coeff:      0.105D-04-0.517D-04-0.192D-03-0.415D-03 0.504D-02-0.203D-01
 Coeff:      0.846D-01-0.391D+00 0.132D+01
 Gap=     0.540 Goal=   None    Shift=    0.000
 RMSDP=1.44D-09 MaxDP=2.33D-08 DE=-1.38D-12 OVMax= 1.04D-07

 SCF Done:  E(RHF) =  -76.0599712465     A.U. after    9 cycles
            NFock=  9  Conv=0.14D-08     -V/T= 2.0016
 KE= 7.594011775092D+01 PE=-1.988911123689D+02 EE= 3.774513014359D+01
 Leave Link  502 at Tue Nov 16 16:04:24 2021, MaxMem= 16106127360 cpu:              11.9 elap:               0.5
 (Enter /sw/contrib/gaussian/g16/B01/g16/l801.exe)
 ExpMin= 2.53D-02 ExpMax= 1.53D+04 ExpMxC= 5.22D+02 IAcc=3 IRadAn=         5 AccDes= 0.00D+00
 HarFok:  IExCor=  205 AccDes= 0.00D+00 IRadAn=         5 IDoV=-2 UseB2=F ITyADJ=14
 ICtDFT= 12500011 ScaDFX=  1.000000  1.000000  1.000000  1.000000
 Largest valence mixing into a core orbital is  1.11D-04
 Largest core mixing into a valence orbital is  1.72D-05
 Range of M.O.s used for correlation:     2    92
 NBasis=    92 NAE=     5 NBE=     5 NFC=     1 NFV=     0
 NROrb=     91 NOA=     4 NOB=     4 NVA=    87 NVB=    87

 **** Warning!!: The largest alpha MO coefficient is  0.15759441D+02

 Leave Link  801 at Tue Nov 16 16:04:24 2021, MaxMem= 16106127360 cpu:               2.1 elap:               0.1
 (Enter /sw/contrib/gaussian/g16/B01/g16/l906.exe)
 Frozen-core derivative calculation, NFC=   1 NFV=   0.
 FulOut=F Deriv=T AODrv=T NAtomX=     3
   MMem=        1444  MDisk=           4 MDiskD=           4
  W3Min=       48300 MinDsk=      199415 NBas6D=         105
 NBas2D=        5790    NTT=        5565    LW2=     3500000
    MDV= 16106014498 MDiskM=      766857 NBas2p=        3790
 Fully direct method using O(ONN) memory.
 IMap=   1   2   3   4   5
 JobTyp=1 Pass  1:  I=   2 to   5 NPSUse= 28 ParTrn=T ParDer=T DoDerP=T.
 Spin components of T(2) and E(2):
     alpha-alpha T2 =       0.8180924633D-02 E2=     -0.3264211430D-01
     alpha-beta  T2 =       0.4751428797D-01 E2=     -0.2036761018D+00
     beta-beta   T2 =       0.8180924633D-02 E2=     -0.3264211430D-01
 The integrals were generated   1 times.
 ANorm=    0.1031443715D+01
 E2 =    -0.2689603303D+00 EUMP2 =    -0.76328931576893D+02
 Leave Link  906 at Tue Nov 16 16:04:25 2021, MaxMem= 16106127360 cpu:              17.9 elap:               0.7
 (Enter /sw/contrib/gaussian/g16/B01/g16/l1002.exe)
 Minotr:  Closed shell wavefunction.
          Computing MP2/KS-MP2 derivatives.
          Using Z-Vector for PSCF gradient.
          Skipping F1 and S1 gradient terms here.
          IDoAtm=111
          Frozen-core window.
          Direct CPHF calculation.
          Differentiating once with respect to electric field.
                with respect to dipole field.
          Differentiating once with respect to nuclear coordinates.
          Using symmetry in CPHF.
          Requested convergence is 1.0D-10 RMS, and 1.0D-09 maximum.
          NewPWx=F KeepS1=T KeepF1=T KeepIn=T MapXYZ=F SortEE=F KeepMc=T.
 Keep R1 ints in memory in symmetry-blocked form, NReq=22814278.
 FoFCou: FMM=F IPFlag=           0 FMFlag=           0 FMFlg1=           0
         NFxFlg=           0 DoJE=F BraDBF=F KetDBF=F FulRan=T
         wScrn=  0.000000 ICntrl=       600 IOpCl=  0 I1Cent=           0 NGrid=           0
         NMat0=    1 NMatS0=   4278 NMatT0=    0 NMatD0=    1 NMtDS0=    0 NMtDT0=    0
 Petite list used in FoFCou.
          MDV=   16106127360 using IRadAn=       5.
          Solving linear equations separately, MaxMat=       0.
          There are     1 degrees of freedom in the 1st order CPHF.  IDoFFX=0 NUNeed=     1.
 LinEq1:  Iter=  0 NonCon=     1 RMS=4.67D-03 Max=4.94D-02 NDo=     1
 AX will form     1 AO Fock derivatives at one time.
 LinEq1:  Iter=  1 NonCon=     1 RMS=6.37D-04 Max=4.89D-03 NDo=     1
 LinEq1:  Iter=  2 NonCon=     1 RMS=2.32D-04 Max=2.00D-03 NDo=     1
 LinEq1:  Iter=  3 NonCon=     1 RMS=6.28D-05 Max=4.69D-04 NDo=     1
 LinEq1:  Iter=  4 NonCon=     1 RMS=9.68D-06 Max=6.59D-05 NDo=     1
 LinEq1:  Iter=  5 NonCon=     1 RMS=1.58D-06 Max=1.08D-05 NDo=     1
 LinEq1:  Iter=  6 NonCon=     1 RMS=2.41D-07 Max=1.75D-06 NDo=     1
 LinEq1:  Iter=  7 NonCon=     1 RMS=2.80D-08 Max=2.37D-07 NDo=     1
 LinEq1:  Iter=  8 NonCon=     1 RMS=3.33D-09 Max=3.48D-08 NDo=     1
 LinEq1:  Iter=  9 NonCon=     1 RMS=3.26D-10 Max=2.15D-09 NDo=     1
 LinEq1:  Iter= 10 NonCon=     0 RMS=2.47D-11 Max=2.19D-10 NDo=     1
 Linear equations converged to 1.000D-10 1.000D-09 after    10 iterations.
 End of Minotr F.D. properties file   721 does not exist.
 End of Minotr F.D. properties file   722 does not exist.
 End of Minotr F.D. properties file   788 does not exist.
 Leave Link 1002 at Tue Nov 16 16:04:26 2021, MaxMem= 16106127360 cpu:              26.3 elap:               1.0
 (Enter /sw/contrib/gaussian/g16/B01/g16/l701.exe)
 ... and contract with generalized density number  2.
 Compute integral first derivatives.
 Leave Link  701 at Tue Nov 16 16:04:26 2021, MaxMem= 16106127360 cpu:               4.0 elap:               0.2
 (Enter /sw/contrib/gaussian/g16/B01/g16/l702.exe)
 L702 exits ... SP integral derivatives will be done elsewhere.
 Leave Link  702 at Tue Nov 16 16:04:26 2021, MaxMem= 16106127360 cpu:               0.5 elap:               0.0
 (Enter /sw/contrib/gaussian/g16/B01/g16/l703.exe)
 Integral derivatives from FoFJK, PRISM(SPDF).
 Compute integral first derivatives, UseDBF=F ICtDFT=           0.
 Calling FoFJK, ICntrl=  10002127 FMM=F ISym2X=1 I1Cent= 0 IOpClX= 0 NMat=1 NMatS=1 NMatT=0.
 FoFJK:  IHMeth= 1 ICntrl=10002127 DoSepK=F KAlg= 0 I1Cent=           0 FoldK=F
 IRaf=         0 NMat=       1 IRICut=       1 DoRegI=T DoRafI=F ISym2E= 1 IDoP0=0 IntGTp=1.
 FoFCou: FMM=F IPFlag=           0 FMFlag=      100000 FMFlg1=         800
         NFxFlg=           0 DoJE=F BraDBF=F KetDBF=F FulRan=T
         wScrn=  0.000000 ICntrl=  10002127 IOpCl=  0 I1Cent=           0 NGrid=           0
         NMat0=    1 NMatS0=      1 NMatT0=    0 NMatD0=    1 NMtDS0=    0 NMtDT0=    0
 Petite list used in FoFCou.
 Leave Link  703 at Tue Nov 16 16:04:27 2021, MaxMem= 16106127360 cpu:              11.6 elap:               0.4
 (Enter /sw/contrib/gaussian/g16/B01/g16/l716.exe)
 Dipole        =-4.43689088D-17 2.22044605D-16-7.40937386D-01
 ***** Axes restored to original set *****
 -------------------------------------------------------------------
 Center     Atomic                   Forces (Hartrees/Bohr)
 Number     Number              X              Y              Z
 -------------------------------------------------------------------
      1        8           0.003422803    0.000000000    0.002746178
      2        1          -0.002350826   -0.000000000   -0.000576118
      3        1          -0.001071977   -0.000000000   -0.002170060
 -------------------------------------------------------------------
 Cartesian Forces:  Max     0.003422803 RMS     0.001855133
 -----------------------------------------------------------------------------------------------
                       Internal Coordinate Forces (Hartree/Bohr or radian)
  Cent   Atom   N1       Length/X         N2         Alpha/Y        N3         Beta/Z          J
 -----------------------------------------------------------------------------------------------
      1  O 
      2  H        1  -0.000576(     1)
      3  H        1  -0.000576(     2)      2   0.004277(     3)
 -----------------------------------------------------------------------------------------------
 Internal  Forces:  Max     0.004277349 RMS     0.002513931
 Leave Link  716 at Tue Nov 16 16:04:27 2021, MaxMem= 16106127360 cpu:               2.7 elap:               0.1
 (Enter /sw/contrib/gaussian/g16/B01/g16/l103.exe)

 GradGradGradGradGradGradGradGradGradGradGradGradGradGradGradGradGradGrad
 Berny optimization.
 Search for a local minimum.
 Step number   2 out of a maximum of   20
 All quantities printed in internal units (Hartrees-Bohrs-Radians)
 Update second derivatives using D2CorN and points    1    2
 DE= -2.51D-03 DEPred=-2.43D-03 R= 1.03D+00
 TightC=F SS=  1.41D+00  RLast= 1.01D-01 DXNew= 5.0454D-01 3.0258D-01
 Trust test= 1.03D+00 RLast= 1.01D-01 DXMaxT set to 3.03D-01
 The second derivative matrix:
                          rOD       rOH      aHOCl
           rOD          0.47523
           rOH         -0.00165   0.47523
           aHOCl        0.01485   0.01485   0.16757
 ITU=  1  0
     Eigenvalues ---    0.16614   0.47502   0.47688
 RFO step:  Lambda=-1.13107898D-04 EMin= 1.66136928D-01
 Quartic linear search produced a step of  0.00099.
 Variable       Old X    -DE/DX   Delta X   Delta X   Delta X     New X
                                 (Linear)    (Quad)   (Total)
   rOD        1.81951  -0.00058  -0.00007  -0.00195  -0.00202   1.81749
   rOH        1.81951  -0.00058  -0.00007  -0.00195  -0.00202   1.81749
  aHOCl       1.78929   0.00428  -0.00002   0.02590   0.02589   1.81517
         Item               Value     Threshold  Converged?
 Maximum Force            0.004277     0.000450     NO 
 RMS     Force            0.002514     0.000300     NO 
 Maximum Displacement     0.025885     0.001800     NO 
 RMS     Displacement     0.015035     0.001200     NO 
 Predicted change in Energy=-5.652790D-05
 Lowest energy point so far.  Saving SCF results.
 GradGradGradGradGradGradGradGradGradGradGradGradGradGradGradGradGradGrad

 Leave Link  103 at Tue Nov 16 16:04:27 2021, MaxMem= 16106127360 cpu:               0.8 elap:               0.1
 (Enter /sw/contrib/gaussian/g16/B01/g16/l202.exe)
 ---------------------------------------------------------------------------------------------------
                            Z-MATRIX (ANGSTROMS AND DEGREES)
   CD    Cent   Atom    N1       Length/X        N2       Alpha/Y        N3        Beta/Z          J
 ---------------------------------------------------------------------------------------------------
      1      1  O 
      2      2  H        1   0.961774(     1)
      3      3  H        1   0.961774(     2)      2  104.002(     3)
 ---------------------------------------------------------------------------------------------------
                         Z-Matrix orientation:                         
 ---------------------------------------------------------------------
 Center     Atomic      Atomic             Coordinates (Angstroms)
 Number     Number       Type             X           Y           Z
 ---------------------------------------------------------------------
      1          8           0        0.000000    0.000000    0.000000
      2          1           0        0.000000    0.000000    0.961774
      3          1           0        0.933199    0.000000   -0.232701
 ---------------------------------------------------------------------
                    Distance matrix (angstroms):
                    1          2          3
     1  O    0.000000
     2  H    0.961774   0.000000
     3  H    0.961774   1.515794   0.000000
 Stoichiometry    H2O
 Framework group  C2V[C2(O),SGV(H2)]
 Deg. of freedom     2
 Full point group                 C2V     NOp   4
 RotChk:  IX=0 Diff= 1.83D-02
 Largest Abelian subgroup         C2V     NOp   4
 Largest concise Abelian subgroup C2      NOp   2
                         Standard orientation:                         
 ---------------------------------------------------------------------
 Center     Atomic      Atomic             Coordinates (Angstroms)
 Number     Number       Type             X           Y           Z
 ---------------------------------------------------------------------
      1          8           0       -0.000000   -0.000000    0.118423
      2          1           0        0.000000    0.757897   -0.473693
      3          1           0       -0.000000   -0.757897   -0.473693
 ---------------------------------------------------------------------
 Rotational constants (GHZ):         681.6116500         272.4535867         194.6486798
 Leave Link  202 at Tue Nov 16 16:04:27 2021, MaxMem= 16106127360 cpu:               1.3 elap:               0.1
 (Enter /sw/contrib/gaussian/g16/B01/g16/l301.exe)
 Standard basis: Aug-CC-pVTZ (5D, 7F)
 Ernie: Thresh=  0.10000D-02 Tol=  0.10000D-05 Strict=F.
 Ernie:  3 primitive shells out of 52 were deleted.
 There are    42 symmetry adapted cartesian basis functions of A1  symmetry.
 There are    12 symmetry adapted cartesian basis functions of A2  symmetry.
 There are    20 symmetry adapted cartesian basis functions of B1  symmetry.
 There are    31 symmetry adapted cartesian basis functions of B2  symmetry.
 There are    35 symmetry adapted basis functions of A1  symmetry.
 There are    12 symmetry adapted basis functions of A2  symmetry.
 There are    18 symmetry adapted basis functions of B1  symmetry.
 There are    27 symmetry adapted basis functions of B2  symmetry.
    92 basis functions,   126 primitive gaussians,   105 cartesian basis functions
     5 alpha electrons        5 beta electrons
       nuclear repulsion energy         9.1524576807 Hartrees.
 IExCor=    0 DFT=F Ex=HF Corr=None ExCW=0 ScaHFX=  1.000000
 ScaDFX=  1.000000  1.000000  1.000000  1.000000 ScalE2=  1.000000  1.000000
 IRadAn=      5 IRanWt=     -1 IRanGd=            0 ICorTp=0 IEmpDi=  4
 NAtoms=    3 NActive=    3 NUniq=    2 SFac= 2.25D+00 NAtFMM=   60 NAOKFM=F Big=F
 Integral buffers will be    131072 words long.
 Raffenetti 1 integral format.
 Two-electron integral symmetry is turned on.
 Leave Link  301 at Tue Nov 16 16:04:27 2021, MaxMem= 16106127360 cpu:               1.9 elap:               0.1
 (Enter /sw/contrib/gaussian/g16/B01/g16/l302.exe)
 NPDir=0 NMtPBC=     1 NCelOv=     1 NCel=       1 NClECP=     1 NCelD=      1
         NCelK=      1 NCelE2=     1 NClLst=     1 CellRange=     0.0.
 One-electron integrals computed using PRISM.
 One-electron integral symmetry used in STVInt
 NBasis=    92 RedAO= T EigKep=  3.89D-04  NBF=    35    12    18    27
 NBsUse=    92 1.00D-06 EigRej= -1.00D+00 NBFU=    35    12    18    27
 Leave Link  302 at Tue Nov 16 16:04:27 2021, MaxMem= 16106127360 cpu:               5.8 elap:               0.2
 (Enter /sw/contrib/gaussian/g16/B01/g16/l303.exe)
 DipDrv:  MaxL=1.
 Leave Link  303 at Tue Nov 16 16:04:27 2021, MaxMem= 16106127360 cpu:               0.9 elap:               0.1
 (Enter /sw/contrib/gaussian/g16/B01/g16/l401.exe)
 Initial guess from the checkpoint file:  "/gscratch/ilahie/mccoygrp/coire_hocl/oop_s_rOH_f/hod_opt.chk"
 B after Tr=    -0.000000    0.000000    0.000000
         Rot=    1.000000   -0.000000   -0.000000    0.000000 Ang=   0.00 deg.
 Guess basis will be translated and rotated to current coordinates.
 JPrj=2 DoOrth=T DoCkMO=T.
 Initial guess orbital symmetries:
       Occupied  (A1) (A1) (B2) (A1) (B1)
       Virtual   (A1) (B2) (A1) (B1) (A1) (B2) (B2) (A1) (A2) (B1)
                 (A1) (B2) (A1) (B2) (B2) (A1) (A1) (A2) (B1) (A1)
                 (B1) (A1) (B2) (B1) (A2) (B2) (A1) (A1) (B2) (B1)
                 (B2) (A2) (A1) (B2) (A2) (A1) (B1) (A1) (B2) (B2)
                 (A1) (B1) (A2) (A1) (A1) (B1) (B2) (A1) (B2) (B1)
                 (A1) (B2) (A2) (B2) (A1) (A2) (B1) (A1) (B2) (B1)
                 (A1) (A2) (B1) (B2) (A1) (B2) (A2) (B2) (B2) (A1)
                 (B1) (A1) (A1) (B2) (B1) (A1) (B1) (B1) (B2) (A2)
                 (A1) (A2) (A1) (A1) (B2) (B2) (A1)
 The electronic state of the initial guess is 1-A1.
 Generating alternative initial guess.
 ExpMin= 2.53D-02 ExpMax= 1.53D+04 ExpMxC= 5.22D+02 IAcc=3 IRadAn=         5 AccDes= 0.00D+00
 Harris functional with IExCor=  205 and IRadAn=       5 diagonalized for initial guess.
 HarFok:  IExCor=  205 AccDes= 0.00D+00 IRadAn=         5 IDoV= 1 UseB2=F ITyADJ=14
 ICtDFT=  3500011 ScaDFX=  1.000000  1.000000  1.000000  1.000000
 FoFCou: FMM=F IPFlag=           0 FMFlag=      100000 FMFlg1=           0
         NFxFlg=           0 DoJE=T BraDBF=F KetDBF=T FulRan=T
         wScrn=  0.000000 ICntrl=       500 IOpCl=  0 I1Cent=   200000004 NGrid=           0
         NMat0=    1 NMatS0=      1 NMatT0=    0 NMatD0=    1 NMtDS0=    0 NMtDT0=    0
 Petite list used in FoFCou.
 Harris En= -76.1531827267392    
 Leave Link  401 at Tue Nov 16 16:04:28 2021, MaxMem= 16106127360 cpu:               7.1 elap:               0.3
 (Enter /sw/contrib/gaussian/g16/B01/g16/l502.exe)
 Keep R1 ints in memory in symmetry-blocked form, NReq=22813450.
 FoFCou: FMM=F IPFlag=           0 FMFlag=           0 FMFlg1=           0
         NFxFlg=           0 DoJE=F BraDBF=F KetDBF=F FulRan=T
         wScrn=  0.000000 ICntrl=       600 IOpCl=  0 I1Cent=           0 NGrid=           0
         NMat0=    1 NMatS0=   4278 NMatT0=    0 NMatD0=    1 NMtDS0=    0 NMtDT0=    0
 Petite list used in FoFCou.
 Closed shell SCF:
 Using DIIS extrapolation, IDIIS=  1040.
 NGot= 16106127360 LenX= 16103758030 LenY= 16103746564
 Requested convergence on RMS density matrix=1.00D-08 within 128 cycles.
 Requested convergence on MAX density matrix=1.00D-06.
 Requested convergence on             energy=1.00D-06.
 No special actions if energy rises.

 Cycle   1  Pass 1  IDiag  1:
 E= -76.0602071128108    
 DIIS: error= 7.79D-04 at cycle   1 NSaved=   1.
 NSaved= 1 IEnMin= 1 EnMin= -76.0602071128108     IErMin= 1 ErrMin= 7.79D-04
 ErrMax= 7.79D-04  0.00D+00 EMaxC= 1.00D-01 BMatC= 3.61D-05 BMatP= 3.61D-05
 IDIUse=3 WtCom= 9.92D-01 WtEn= 7.79D-03
 Coeff-Com:  0.100D+01
 Coeff-En:   0.100D+01
 Coeff:      0.100D+01
 Gap=     0.540 Goal=   None    Shift=    0.000
 RMSDP=5.13D-05 MaxDP=9.99D-04              OVMax= 2.09D-03

 Cycle   2  Pass 1  IDiag  1:
 E= -76.0602382571629     Delta-E=       -0.000031144352 Rises=F Damp=F
 DIIS: error= 1.74D-04 at cycle   2 NSaved=   2.
 NSaved= 2 IEnMin= 2 EnMin= -76.0602382571629     IErMin= 2 ErrMin= 1.74D-04
 ErrMax= 1.74D-04  0.00D+00 EMaxC= 1.00D-01 BMatC= 1.48D-06 BMatP= 3.61D-05
 IDIUse=3 WtCom= 9.98D-01 WtEn= 1.74D-03
 Coeff-Com: -0.155D+00 0.116D+01
 Coeff-En:   0.000D+00 0.100D+01
 Coeff:     -0.155D+00 0.115D+01
 Gap=     0.540 Goal=   None    Shift=    0.000
 RMSDP=1.63D-05 MaxDP=3.73D-04 DE=-3.11D-05 OVMax= 7.33D-04

 Cycle   3  Pass 1  IDiag  1:
 E= -76.0602403539455     Delta-E=       -0.000002096783 Rises=F Damp=F
 DIIS: error= 6.23D-05 at cycle   3 NSaved=   3.
 NSaved= 3 IEnMin= 3 EnMin= -76.0602403539455     IErMin= 3 ErrMin= 6.23D-05
 ErrMax= 6.23D-05  0.00D+00 EMaxC= 1.00D-01 BMatC= 1.55D-07 BMatP= 1.48D-06
 IDIUse=1 WtCom= 1.00D+00 WtEn= 0.00D+00
 Coeff-Com: -0.440D-01 0.191D+00 0.853D+00
 Coeff:     -0.440D-01 0.191D+00 0.853D+00
 Gap=     0.539 Goal=   None    Shift=    0.000
 RMSDP=3.28D-06 MaxDP=6.83D-05 DE=-2.10D-06 OVMax= 1.87D-04

 Cycle   4  Pass 1  IDiag  1:
 E= -76.0602405065140     Delta-E=       -0.000000152569 Rises=F Damp=F
 DIIS: error= 2.54D-05 at cycle   4 NSaved=   4.
 NSaved= 4 IEnMin= 4 EnMin= -76.0602405065140     IErMin= 4 ErrMin= 2.54D-05
 ErrMax= 2.54D-05  0.00D+00 EMaxC= 1.00D-01 BMatC= 2.16D-08 BMatP= 1.55D-07
 IDIUse=1 WtCom= 1.00D+00 WtEn= 0.00D+00
 Coeff-Com:  0.121D-01-0.123D+00 0.170D+00 0.940D+00
 Coeff:      0.121D-01-0.123D+00 0.170D+00 0.940D+00
 Gap=     0.540 Goal=   None    Shift=    0.000
 RMSDP=2.00D-06 MaxDP=5.52D-05 DE=-1.53D-07 OVMax= 9.33D-05

 Cycle   5  Pass 1  IDiag  1:
 E= -76.0602405352674     Delta-E=       -0.000000028753 Rises=F Damp=F
 DIIS: error= 4.29D-06 at cycle   5 NSaved=   5.
 NSaved= 5 IEnMin= 5 EnMin= -76.0602405352674     IErMin= 5 ErrMin= 4.29D-06
 ErrMax= 4.29D-06  0.00D+00 EMaxC= 1.00D-01 BMatC= 6.64D-10 BMatP= 2.16D-08
 IDIUse=1 WtCom= 1.00D+00 WtEn= 0.00D+00
 Coeff-Com:  0.163D-02-0.838D-02-0.472D-01-0.350D-01 0.109D+01
 Coeff:      0.163D-02-0.838D-02-0.472D-01-0.350D-01 0.109D+01
 Gap=     0.539 Goal=   None    Shift=    0.000
 RMSDP=4.83D-07 MaxDP=1.38D-05 DE=-2.88D-08 OVMax= 2.61D-05

 Cycle   6  Pass 1  IDiag  1:
 E= -76.0602405367906     Delta-E=       -0.000000001523 Rises=F Damp=F
 DIIS: error= 1.03D-06 at cycle   6 NSaved=   6.
 NSaved= 6 IEnMin= 6 EnMin= -76.0602405367906     IErMin= 6 ErrMin= 1.03D-06
 ErrMax= 1.03D-06  0.00D+00 EMaxC= 1.00D-01 BMatC= 3.74D-11 BMatP= 6.64D-10
 IDIUse=1 WtCom= 1.00D+00 WtEn= 0.00D+00
 Coeff-Com: -0.972D-03 0.862D-02 0.180D-02-0.424D-01-0.262D+00 0.130D+01
 Coeff:     -0.972D-03 0.862D-02 0.180D-02-0.424D-01-0.262D+00 0.130D+01
 Gap=     0.539 Goal=   None    Shift=    0.000
 RMSDP=1.02D-07 MaxDP=2.07D-06 DE=-1.52D-09 OVMax= 7.35D-06

 Cycle   7  Pass 1  IDiag  1:
 E= -76.0602405369080     Delta-E=       -0.000000000117 Rises=F Damp=F
 DIIS: error= 2.55D-07 at cycle   7 NSaved=   7.
 NSaved= 7 IEnMin= 7 EnMin= -76.0602405369080     IErMin= 7 ErrMin= 2.55D-07
 ErrMax= 2.55D-07  0.00D+00 EMaxC= 1.00D-01 BMatC= 1.53D-12 BMatP= 3.74D-11
 IDIUse=1 WtCom= 1.00D+00 WtEn= 0.00D+00
 Coeff-Com:  0.304D-03-0.288D-02 0.939D-04 0.161D-01 0.735D-01-0.517D+00
 Coeff-Com:  0.143D+01
 Coeff:      0.304D-03-0.288D-02 0.939D-04 0.161D-01 0.735D-01-0.517D+00
 Coeff:      0.143D+01
 Gap=     0.539 Goal=   None    Shift=    0.000
 RMSDP=1.87D-08 MaxDP=4.29D-07 DE=-1.17D-10 OVMax= 1.39D-06

 Cycle   8  Pass 1  IDiag  1:
 E= -76.0602405369127     Delta-E=       -0.000000000005 Rises=F Damp=F
 DIIS: error= 4.34D-08 at cycle   8 NSaved=   8.
 NSaved= 8 IEnMin= 8 EnMin= -76.0602405369127     IErMin= 8 ErrMin= 4.34D-08
 ErrMax= 4.34D-08  0.00D+00 EMaxC= 1.00D-01 BMatC= 5.08D-14 BMatP= 1.53D-12
 IDIUse=1 WtCom= 1.00D+00 WtEn= 0.00D+00
 Coeff-Com: -0.707D-04 0.700D-03-0.699D-04-0.441D-02-0.144D-01 0.137D+00
 Coeff-Com: -0.520D+00 0.140D+01
 Coeff:     -0.707D-04 0.700D-03-0.699D-04-0.441D-02-0.144D-01 0.137D+00
 Coeff:     -0.520D+00 0.140D+01
 Gap=     0.539 Goal=   None    Shift=    0.000
 RMSDP=3.62D-09 MaxDP=7.61D-08 DE=-4.73D-12 OVMax= 2.47D-07

 SCF Done:  E(RHF) =  -76.0602405369     A.U. after    8 cycles
            NFock=  8  Conv=0.36D-08     -V/T= 2.0016
 KE= 7.594170985747D+01 PE=-1.989082213865D+02 EE= 3.775381331147D+01
 Leave Link  502 at Tue Nov 16 16:04:28 2021, MaxMem= 16106127360 cpu:               9.0 elap:               0.3
 (Enter /sw/contrib/gaussian/g16/B01/g16/l801.exe)
 ExpMin= 2.53D-02 ExpMax= 1.53D+04 ExpMxC= 5.22D+02 IAcc=3 IRadAn=         5 AccDes= 0.00D+00
 HarFok:  IExCor=  205 AccDes= 0.00D+00 IRadAn=         5 IDoV=-2 UseB2=F ITyADJ=14
 ICtDFT= 12500011 ScaDFX=  1.000000  1.000000  1.000000  1.000000
 Largest valence mixing into a core orbital is  1.11D-04
 Largest core mixing into a valence orbital is  1.72D-05
 Range of M.O.s used for correlation:     2    92
 NBasis=    92 NAE=     5 NBE=     5 NFC=     1 NFV=     0
 NROrb=     91 NOA=     4 NOB=     4 NVA=    87 NVB=    87

 **** Warning!!: The largest alpha MO coefficient is  0.15858196D+02

 Leave Link  801 at Tue Nov 16 16:04:28 2021, MaxMem= 16106127360 cpu:               1.4 elap:               0.1
 (Enter /sw/contrib/gaussian/g16/B01/g16/l906.exe)
 Frozen-core derivative calculation, NFC=   1 NFV=   0.
 FulOut=F Deriv=T AODrv=T NAtomX=     3
   MMem=        1444  MDisk=           4 MDiskD=           4
  W3Min=       48300 MinDsk=      199415 NBas6D=         105
 NBas2D=        5790    NTT=        5565    LW2=     3500000
    MDV= 16106014498 MDiskM=      766857 NBas2p=        3790
 Fully direct method using O(ONN) memory.
 IMap=   1   2   3   4   5
 JobTyp=1 Pass  1:  I=   2 to   5 NPSUse= 28 ParTrn=T ParDer=T DoDerP=T.
 Spin components of T(2) and E(2):
     alpha-alpha T2 =       0.8162763089D-02 E2=     -0.3261498011D-01
     alpha-beta  T2 =       0.4740977017D-01 E2=     -0.2035213307D+00
     beta-beta   T2 =       0.8162763089D-02 E2=     -0.3261498011D-01
 The integrals were generated   1 times.
 ANorm=    0.1031375439D+01
 E2 =    -0.2687512909D+00 EUMP2 =    -0.76328991827822D+02
 Leave Link  906 at Tue Nov 16 16:04:29 2021, MaxMem= 16106127360 cpu:              17.3 elap:               0.6
 (Enter /sw/contrib/gaussian/g16/B01/g16/l1002.exe)
 Minotr:  Closed shell wavefunction.
          Computing MP2/KS-MP2 derivatives.
          Using Z-Vector for PSCF gradient.
          Skipping F1 and S1 gradient terms here.
          IDoAtm=111
          Frozen-core window.
          Direct CPHF calculation.
          Differentiating once with respect to electric field.
                with respect to dipole field.
          Differentiating once with respect to nuclear coordinates.
          Using symmetry in CPHF.
          Requested convergence is 1.0D-10 RMS, and 1.0D-09 maximum.
          NewPWx=F KeepS1=T KeepF1=T KeepIn=T MapXYZ=F SortEE=F KeepMc=T.
 Keep R1 ints in memory in symmetry-blocked form, NReq=22814278.
 FoFCou: FMM=F IPFlag=           0 FMFlag=           0 FMFlg1=           0
         NFxFlg=           0 DoJE=F BraDBF=F KetDBF=F FulRan=T
         wScrn=  0.000000 ICntrl=       600 IOpCl=  0 I1Cent=           0 NGrid=           0
         NMat0=    1 NMatS0=   4278 NMatT0=    0 NMatD0=    1 NMtDS0=    0 NMtDT0=    0
 Petite list used in FoFCou.
          MDV=   16106127360 using IRadAn=       5.
          Solving linear equations separately, MaxMat=       0.
          There are     1 degrees of freedom in the 1st order CPHF.  IDoFFX=0 NUNeed=     1.
 LinEq1:  Iter=  0 NonCon=     1 RMS=4.65D-03 Max=4.93D-02 NDo=     1
 AX will form     1 AO Fock derivatives at one time.
 LinEq1:  Iter=  1 NonCon=     1 RMS=6.32D-04 Max=4.83D-03 NDo=     1
 LinEq1:  Iter=  2 NonCon=     1 RMS=2.30D-04 Max=1.98D-03 NDo=     1
 LinEq1:  Iter=  3 NonCon=     1 RMS=6.20D-05 Max=4.65D-04 NDo=     1
 LinEq1:  Iter=  4 NonCon=     1 RMS=9.52D-06 Max=6.38D-05 NDo=     1
 LinEq1:  Iter=  5 NonCon=     1 RMS=1.61D-06 Max=1.10D-05 NDo=     1
 LinEq1:  Iter=  6 NonCon=     1 RMS=2.43D-07 Max=1.75D-06 NDo=     1
 LinEq1:  Iter=  7 NonCon=     1 RMS=2.78D-08 Max=2.38D-07 NDo=     1
 LinEq1:  Iter=  8 NonCon=     1 RMS=3.32D-09 Max=3.47D-08 NDo=     1
 LinEq1:  Iter=  9 NonCon=     1 RMS=3.25D-10 Max=2.14D-09 NDo=     1
 LinEq1:  Iter= 10 NonCon=     0 RMS=2.45D-11 Max=2.15D-10 NDo=     1
 Linear equations converged to 1.000D-10 1.000D-09 after    10 iterations.
 End of Minotr F.D. properties file   721 does not exist.
 End of Minotr F.D. properties file   722 does not exist.
 End of Minotr F.D. properties file   788 does not exist.
 Leave Link 1002 at Tue Nov 16 16:04:29 2021, MaxMem= 16106127360 cpu:              16.0 elap:               0.6
 (Enter /sw/contrib/gaussian/g16/B01/g16/l701.exe)
 ... and contract with generalized density number  2.
 Compute integral first derivatives.
 Leave Link  701 at Tue Nov 16 16:04:29 2021, MaxMem= 16106127360 cpu:               4.1 elap:               0.2
 (Enter /sw/contrib/gaussian/g16/B01/g16/l702.exe)
 L702 exits ... SP integral derivatives will be done elsewhere.
 Leave Link  702 at Tue Nov 16 16:04:29 2021, MaxMem= 16106127360 cpu:               0.7 elap:               0.0
 (Enter /sw/contrib/gaussian/g16/B01/g16/l703.exe)
 Integral derivatives from FoFJK, PRISM(SPDF).
 Compute integral first derivatives, UseDBF=F ICtDFT=           0.
 Calling FoFJK, ICntrl=  10002127 FMM=F ISym2X=1 I1Cent= 0 IOpClX= 0 NMat=1 NMatS=1 NMatT=0.
 FoFJK:  IHMeth= 1 ICntrl=10002127 DoSepK=F KAlg= 0 I1Cent=           0 FoldK=F
 IRaf=         0 NMat=       1 IRICut=       1 DoRegI=T DoRafI=F ISym2E= 1 IDoP0=0 IntGTp=1.
 FoFCou: FMM=F IPFlag=           0 FMFlag=      100000 FMFlg1=         800
         NFxFlg=           0 DoJE=F BraDBF=F KetDBF=F FulRan=T
         wScrn=  0.000000 ICntrl=  10002127 IOpCl=  0 I1Cent=           0 NGrid=           0
         NMat0=    1 NMatS0=      1 NMatT0=    0 NMatD0=    1 NMtDS0=    0 NMtDT0=    0
 Petite list used in FoFCou.
 Leave Link  703 at Tue Nov 16 16:04:30 2021, MaxMem= 16106127360 cpu:              10.6 elap:               0.4
 (Enter /sw/contrib/gaussian/g16/B01/g16/l716.exe)
 Dipole        =-4.47097876D-17 2.22044605D-16-7.32258797D-01
 ***** Axes restored to original set *****
 -------------------------------------------------------------------
 Center     Atomic                   Forces (Hartrees/Bohr)
 Number     Number              X              Y              Z
 -------------------------------------------------------------------
      1        8           0.000506314    0.000000000    0.000395564
      2        1          -0.000136772   -0.000000000   -0.000346753
      3        1          -0.000369543   -0.000000000   -0.000048811
 -------------------------------------------------------------------
 Cartesian Forces:  Max     0.000506314 RMS     0.000277031
 -----------------------------------------------------------------------------------------------
                       Internal Coordinate Forces (Hartree/Bohr or radian)
  Cent   Atom   N1       Length/X         N2         Alpha/Y        N3         Beta/Z          J
 -----------------------------------------------------------------------------------------------
      1  O 
      2  H        1  -0.000347(     1)
      3  H        1  -0.000347(     2)      2   0.000249(     3)
 -----------------------------------------------------------------------------------------------
 Internal  Forces:  Max     0.000346753 RMS     0.000317421
 Leave Link  716 at Tue Nov 16 16:04:30 2021, MaxMem= 16106127360 cpu:               0.8 elap:               0.1
 (Enter /sw/contrib/gaussian/g16/B01/g16/l103.exe)

 GradGradGradGradGradGradGradGradGradGradGradGradGradGradGradGradGradGrad
 Berny optimization.
 Search for a local minimum.
 Step number   3 out of a maximum of   20
 All quantities printed in internal units (Hartrees-Bohrs-Radians)
 Update second derivatives using D2CorN and points    1    2    3
 DE= -6.03D-05 DEPred=-5.65D-05 R= 1.07D+00
 TightC=F SS=  1.41D+00  RLast= 2.60D-02 DXNew= 5.0887D-01 7.8126D-02
 Trust test= 1.07D+00 RLast= 2.60D-02 DXMaxT set to 3.03D-01
 The second derivative matrix:
                          rOD       rOH      aHOCl
           rOD          0.47071
           rOH         -0.00617   0.47071
           aHOCl        0.02559   0.02559   0.15935
 ITU=  1  1  0
     Eigenvalues ---    0.15512   0.46877   0.47688
 RFO step:  Lambda=-4.69595886D-07 EMin= 1.55121693D-01
 Quartic linear search produced a step of  0.07534.
 Variable       Old X    -DE/DX   Delta X   Delta X   Delta X     New X
                                 (Linear)    (Quad)   (Total)
   rOD        1.81749  -0.00035  -0.00015  -0.00070  -0.00086   1.81663
   rOH        1.81749  -0.00035  -0.00015  -0.00070  -0.00086   1.81663
  aHOCl       1.81517   0.00025   0.00195  -0.00010   0.00185   1.81703
         Item               Value     Threshold  Converged?
 Maximum Force            0.000347     0.000450     YES
 RMS     Force            0.000317     0.000300     NO 
 Maximum Displacement     0.001854     0.001800     NO 
 RMS     Displacement     0.001279     0.001200     NO 
 Predicted change in Energy=-5.214766D-07
 Lowest energy point so far.  Saving SCF results.
 GradGradGradGradGradGradGradGradGradGradGradGradGradGradGradGradGradGrad

 Leave Link  103 at Tue Nov 16 16:04:30 2021, MaxMem= 16106127360 cpu:               1.3 elap:               0.1
 (Enter /sw/contrib/gaussian/g16/B01/g16/l202.exe)
 ---------------------------------------------------------------------------------------------------
                            Z-MATRIX (ANGSTROMS AND DEGREES)
   CD    Cent   Atom    N1       Length/X        N2       Alpha/Y        N3        Beta/Z          J
 ---------------------------------------------------------------------------------------------------
      1      1  O 
      2      2  H        1   0.961321(     1)
      3      3  H        1   0.961321(     2)      2  104.108(     3)
 ---------------------------------------------------------------------------------------------------
                         Z-Matrix orientation:                         
 ---------------------------------------------------------------------
 Center     Atomic      Atomic             Coordinates (Angstroms)
[...]
 E= -76.0602857410477     Delta-E=       -0.000000000448 Rises=F Damp=F
 DIIS: error= 7.21D-07 at cycle   5 NSaved=   5.
 NSaved= 5 IEnMin= 5 EnMin= -76.0602857410477     IErMin= 5 ErrMin= 7.21D-07
 ErrMax= 7.21D-07  0.00D+00 EMaxC= 1.00D-01 BMatC= 1.51D-11 BMatP= 3.42D-10
 IDIUse=1 WtCom= 1.00D+00 WtEn= 0.00D+00
 Coeff-Com:  0.331D-02-0.149D-01-0.728D-01-0.563D-01 0.114D+01
 Coeff:      0.331D-02-0.149D-01-0.728D-01-0.563D-01 0.114D+01
 Gap=     0.540 Goal=   None    Shift=    0.000
 RMSDP=7.99D-08 MaxDP=2.50D-06 DE=-4.48D-10 OVMax= 4.61D-06

 Cycle   6  Pass 1  IDiag  1:
 E= -76.0602857410881     Delta-E=       -0.000000000040 Rises=F Damp=F
 DIIS: error= 1.51D-07 at cycle   6 NSaved=   6.
 NSaved= 6 IEnMin= 6 EnMin= -76.0602857410881     IErMin= 6 ErrMin= 1.51D-07
 ErrMax= 1.51D-07  0.00D+00 EMaxC= 1.00D-01 BMatC= 7.62D-13 BMatP= 1.51D-11
 IDIUse=1 WtCom= 1.00D+00 WtEn= 0.00D+00
 Coeff-Com: -0.117D-02 0.862D-02 0.189D-01-0.181D-01-0.413D+00 0.140D+01
 Coeff:     -0.117D-02 0.862D-02 0.189D-01-0.181D-01-0.413D+00 0.140D+01
 Gap=     0.540 Goal=   None    Shift=    0.000
 RMSDP=1.47D-08 MaxDP=3.74D-07 DE=-4.04D-11 OVMax= 1.10D-06

 Cycle   7  Pass 1  IDiag  1:
 E= -76.0602857410907     Delta-E=       -0.000000000003 Rises=F Damp=F
 DIIS: error= 2.68D-08 at cycle   7 NSaved=   7.
 NSaved= 7 IEnMin= 7 EnMin= -76.0602857410907     IErMin= 7 ErrMin= 2.68D-08
 ErrMax= 2.68D-08  0.00D+00 EMaxC= 1.00D-01 BMatC= 2.42D-14 BMatP= 7.62D-13
 IDIUse=1 WtCom= 1.00D+00 WtEn= 0.00D+00
 Coeff-Com:  0.315D-03-0.249D-02-0.535D-02 0.528D-02 0.129D+00-0.542D+00
 Coeff-Com:  0.142D+01
 Coeff:      0.315D-03-0.249D-02-0.535D-02 0.528D-02 0.129D+00-0.542D+00
 Coeff:      0.142D+01
 Gap=     0.540 Goal=   None    Shift=    0.000
 RMSDP=2.53D-09 MaxDP=6.15D-08 DE=-2.56D-12 OVMax= 1.67D-07

 SCF Done:  E(RHF) =  -76.0602857411     A.U. after    7 cycles
            NFock=  7  Conv=0.25D-08     -V/T= 2.0015
 KE= 7.594330095446D+01 PE=-1.989172943378D+02 EE= 3.775718664530D+01
 Leave Link  502 at Tue Nov 16 16:04:31 2021, MaxMem= 16106127360 cpu:               8.8 elap:               0.3
 (Enter /sw/contrib/gaussian/g16/B01/g16/l801.exe)
 ExpMin= 2.53D-02 ExpMax= 1.53D+04 ExpMxC= 5.22D+02 IAcc=3 IRadAn=         5 AccDes= 0.00D+00
 HarFok:  IExCor=  205 AccDes= 0.00D+00 IRadAn=         5 IDoV=-2 UseB2=F ITyADJ=14
 ICtDFT= 12500011 ScaDFX=  1.000000  1.000000  1.000000  1.000000
 Largest valence mixing into a core orbital is  1.11D-04
 Largest core mixing into a valence orbital is  1.72D-05
 Range of M.O.s used for correlation:     2    92
 NBasis=    92 NAE=     5 NBE=     5 NFC=     1 NFV=     0
 NROrb=     91 NOA=     4 NOB=     4 NVA=    87 NVB=    87

 **** Warning!!: The largest alpha MO coefficient is  0.15876646D+02

 Leave Link  801 at Tue Nov 16 16:04:31 2021, MaxMem= 16106127360 cpu:               1.9 elap:               0.1
 (Enter /sw/contrib/gaussian/g16/B01/g16/l906.exe)
 Frozen-core derivative calculation, NFC=   1 NFV=   0.
 FulOut=F Deriv=T AODrv=T NAtomX=     3
   MMem=        1444  MDisk=           4 MDiskD=           4
  W3Min=       48300 MinDsk=      199415 NBas6D=         105
 NBas2D=        5790    NTT=        5565    LW2=     3500000
    MDV= 16106014498 MDiskM=      766857 NBas2p=        3790
 Fully direct method using O(ONN) memory.
 IMap=   1   2   3   4   5
 JobTyp=1 Pass  1:  I=   2 to   5 NPSUse= 28 ParTrn=T ParDer=T DoDerP=T.
 Spin components of T(2) and E(2):
     alpha-alpha T2 =       0.8158342361D-02 E2=     -0.3260967924D-01
     alpha-beta  T2 =       0.4738169124D-01 E2=     -0.2034872214D+00
     beta-beta   T2 =       0.8158342361D-02 E2=     -0.3260967924D-01
 The integrals were generated   1 times.
 ANorm=    0.1031357540D+01
 E2 =    -0.2687065799D+00 EUMP2 =    -0.76328992320958D+02
 Leave Link  906 at Tue Nov 16 16:04:32 2021, MaxMem= 16106127360 cpu:              18.3 elap:               0.7
 (Enter /sw/contrib/gaussian/g16/B01/g16/l1002.exe)
 Minotr:  Closed shell wavefunction.
          Computing MP2/KS-MP2 derivatives.
          Using Z-Vector for PSCF gradient.
          Skipping F1 and S1 gradient terms here.
          IDoAtm=111
          Frozen-core window.
          Direct CPHF calculation.
          Differentiating once with respect to electric field.
                with respect to dipole field.
          Differentiating once with respect to nuclear coordinates.
          Using symmetry in CPHF.
          Requested convergence is 1.0D-10 RMS, and 1.0D-09 maximum.
          NewPWx=F KeepS1=T KeepF1=T KeepIn=T MapXYZ=F SortEE=F KeepMc=T.
 Keep R1 ints in memory in symmetry-blocked form, NReq=22814278.
 FoFCou: FMM=F IPFlag=           0 FMFlag=           0 FMFlg1=           0
         NFxFlg=           0 DoJE=F BraDBF=F KetDBF=F FulRan=T
         wScrn=  0.000000 ICntrl=       600 IOpCl=  0 I1Cent=           0 NGrid=           0
         NMat0=    1 NMatS0=   4278 NMatT0=    0 NMatD0=    1 NMtDS0=    0 NMtDT0=    0
 Petite list used in FoFCou.
          MDV=   16106127360 using IRadAn=       5.
          Solving linear equations separately, MaxMat=       0.
          There are     1 degrees of freedom in the 1st order CPHF.  IDoFFX=0 NUNeed=     1.
 LinEq1:  Iter=  0 NonCon=     1 RMS=4.65D-03 Max=4.92D-02 NDo=     1
 AX will form     1 AO Fock derivatives at one time.
 LinEq1:  Iter=  1 NonCon=     1 RMS=6.31D-04 Max=4.82D-03 NDo=     1
 LinEq1:  Iter=  2 NonCon=     1 RMS=2.30D-04 Max=1.98D-03 NDo=     1
 LinEq1:  Iter=  3 NonCon=     1 RMS=6.19D-05 Max=4.64D-04 NDo=     1
 LinEq1:  Iter=  4 NonCon=     1 RMS=9.50D-06 Max=6.35D-05 NDo=     1
 LinEq1:  Iter=  5 NonCon=     1 RMS=1.61D-06 Max=1.10D-05 NDo=     1
 LinEq1:  Iter=  6 NonCon=     1 RMS=2.42D-07 Max=1.75D-06 NDo=     1
 LinEq1:  Iter=  7 NonCon=     1 RMS=2.77D-08 Max=2.37D-07 NDo=     1
 LinEq1:  Iter=  8 NonCon=     1 RMS=3.32D-09 Max=3.46D-08 NDo=     1
 LinEq1:  Iter=  9 NonCon=     1 RMS=3.24D-10 Max=2.14D-09 NDo=     1
 LinEq1:  Iter= 10 NonCon=     0 RMS=2.44D-11 Max=2.14D-10 NDo=     1
 Linear equations converged to 1.000D-10 1.000D-09 after    10 iterations.
 End of Minotr F.D. properties file   721 does not exist.
 End of Minotr F.D. properties file   722 does not exist.
 End of Minotr F.D. properties file   788 does not exist.
 Leave Link 1002 at Tue Nov 16 16:04:32 2021, MaxMem= 16106127360 cpu:              16.2 elap:               0.6
 (Enter /sw/contrib/gaussian/g16/B01/g16/l701.exe)
 ... and contract with generalized density number  2.
 Compute integral first derivatives.
 Leave Link  701 at Tue Nov 16 16:04:33 2021, MaxMem= 16106127360 cpu:               4.7 elap:               0.2
 (Enter /sw/contrib/gaussian/g16/B01/g16/l702.exe)
 L702 exits ... SP integral derivatives will be done elsewhere.
 Leave Link  702 at Tue Nov 16 16:04:33 2021, MaxMem= 16106127360 cpu:               0.5 elap:               0.0
 (Enter /sw/contrib/gaussian/g16/B01/g16/l703.exe)
 Integral derivatives from FoFJK, PRISM(SPDF).
 Compute integral first derivatives, UseDBF=F ICtDFT=           0.
 Calling FoFJK, ICntrl=  10002127 FMM=F ISym2X=1 I1Cent= 0 IOpClX= 0 NMat=1 NMatS=1 NMatT=0.
 FoFJK:  IHMeth= 1 ICntrl=10002127 DoSepK=F KAlg= 0 I1Cent=           0 FoldK=F
 IRaf=         0 NMat=       1 IRICut=       1 DoRegI=T DoRafI=F ISym2E= 1 IDoP0=0 IntGTp=1.
 FoFCou: FMM=F IPFlag=           0 FMFlag=      100000 FMFlg1=         800
         NFxFlg=           0 DoJE=F BraDBF=F KetDBF=F FulRan=T
         wScrn=  0.000000 ICntrl=  10002127 IOpCl=  0 I1Cent=           0 NGrid=           0
         NMat0=    1 NMatS0=      1 NMatT0=    0 NMatD0=    1 NMtDS0=    0 NMtDT0=    0
 Petite list used in FoFCou.
 Leave Link  703 at Tue Nov 16 16:04:33 2021, MaxMem= 16106127360 cpu:              10.9 elap:               0.4
 (Enter /sw/contrib/gaussian/g16/B01/g16/l716.exe)
 Dipole        =-4.46784757D-17-6.66133815D-16-7.31553809D-01
 ***** Axes restored to original set *****
 -------------------------------------------------------------------
 Center     Atomic                   Forces (Hartrees/Bohr)
 Number     Number              X              Y              Z
 -------------------------------------------------------------------
      1        8          -0.000042528    0.000000000   -0.000033162
      2        1          -0.000005066   -0.000000000    0.000050347
      3        1           0.000047594   -0.000000000   -0.000017185
 -------------------------------------------------------------------
 Cartesian Forces:  Max     0.000050347 RMS     0.000029869
 -----------------------------------------------------------------------------------------------
                       Internal Coordinate Forces (Hartree/Bohr or radian)
  Cent   Atom   N1       Length/X         N2         Alpha/Y        N3         Beta/Z          J
 -----------------------------------------------------------------------------------------------
      1  O 
      2  H        1   0.000050(     1)
      3  H        1   0.000050(     2)      2   0.000009(     3)
 -----------------------------------------------------------------------------------------------
 Internal  Forces:  Max     0.000050347 RMS     0.000041450
 Leave Link  716 at Tue Nov 16 16:04:33 2021, MaxMem= 16106127360 cpu:               0.7 elap:               0.1
 (Enter /sw/contrib/gaussian/g16/B01/g16/l103.exe)

 GradGradGradGradGradGradGradGradGradGradGradGradGradGradGradGradGradGrad
 Berny optimization.
 Search for a local minimum.
 Step number   4 out of a maximum of   20
 All quantities printed in internal units (Hartrees-Bohrs-Radians)
 Update second derivatives using D2CorN and points    1    2    3    4
 DE= -4.93D-07 DEPred=-5.21D-07 R= 9.46D-01
 Trust test= 9.46D-01 RLast= 2.21D-03 DXMaxT set to 3.03D-01
 The second derivative matrix:
                          rOD       rOH      aHOCl
           rOD          0.48030
           rOH          0.00342   0.48030
           aHOCl        0.01905   0.01905   0.15574
 ITU=  0  1  1  0
     Eigenvalues ---    0.15355   0.47688   0.48591
 RFO step:  Lambda= 0.00000000D+00 EMin= 1.53545613D-01
 Quartic linear search produced a step of -0.06147.
 Variable       Old X    -DE/DX   Delta X   Delta X   Delta X     New X
                                 (Linear)    (Quad)   (Total)
   rOD        1.81663   0.00005   0.00005   0.00005   0.00010   1.81673
   rOH        1.81663   0.00005   0.00005   0.00005   0.00010   1.81673
  aHOCl       1.81703   0.00001  -0.00011   0.00014   0.00003   1.81705
         Item               Value     Threshold  Converged?
 Maximum Force            0.000050     0.000450     YES
 RMS     Force            0.000041     0.000300     YES
 Maximum Displacement     0.000101     0.001800     YES
 RMS     Displacement     0.000084     0.001200     YES
 Predicted change in Energy=-5.323949D-09
 Optimization completed.
    -- Stationary point found.
                       ----------------------------
                       !   Optimized Parameters   !
                       ! (Angstroms and Degrees)  !
 ----------------------                            ----------------------
 !      Name          Value   Derivative information (Atomic Units)     !
 ------------------------------------------------------------------------
 !       rOD         0.9613   -DE/DX =    0.0001                        !
 !       rOH         0.9613   -DE/DX =    0.0001                        !
 !      aHOCl      104.1079   -DE/DX =    0.0                           !
 ------------------------------------------------------------------------
 Lowest energy point so far.  Saving SCF results.
 Largest change from initial coordinates is atom    2       0.035 Angstoms.
 GradGradGradGradGradGradGradGradGradGradGradGradGradGradGradGradGradGrad

 Leave Link  103 at Tue Nov 16 16:04:33 2021, MaxMem= 16106127360 cpu:               0.8 elap:               0.1
 (Enter /sw/contrib/gaussian/g16/B01/g16/l202.exe)
 ---------------------------------------------------------------------------------------------------
                            Z-MATRIX (ANGSTROMS AND DEGREES)
   CD    Cent   Atom    N1       Length/X        N2       Alpha/Y        N3        Beta/Z          J
 ---------------------------------------------------------------------------------------------------
      1      1  O 
      2      2  H        1   0.961321(     1)
      3      3  H        1   0.961321(     2)      2  104.108(     3)
 ---------------------------------------------------------------------------------------------------
                         Z-Matrix orientation:                         
 ---------------------------------------------------------------------
 Center     Atomic      Atomic             Coordinates (Angstroms)
 Number     Number       Type             X           Y           Z
 ---------------------------------------------------------------------
      1          8           0        0.000000    0.000000    0.000000
      2          1           0        0.000000    0.000000    0.961321
      3          1           0        0.932326    0.000000   -0.234320
 ---------------------------------------------------------------------
                    Distance matrix (angstroms):
                    1          2          3
     1  O    0.000000
     2  H    0.961321   0.000000
     3  H    0.961321   1.516176   0.000000
 Stoichiometry    H2O
 Framework group  C2V[C2(O),SGV(H2)]
 Deg. of freedom     2
 Full point group                 C2V     NOp   4
 RotChk:  IX=0 Diff= 3.15D-16
 Largest Abelian subgroup         C2V     NOp   4
 Largest concise Abelian subgroup C2      NOp   2
                         Standard orientation:                         
 ---------------------------------------------------------------------
 Center     Atomic      Atomic             Coordinates (Angstroms)
 Number     Number       Type             X           Y           Z
 ---------------------------------------------------------------------
      1          8           0        0.000000    0.000000    0.118227
      2          1           0       -0.000000    0.758088   -0.472908
      3          1           0       -0.000000   -0.758088   -0.472908
 ---------------------------------------------------------------------
 Rotational constants (GHZ):         683.5269549         272.4557274         194.8056561
 Leave Link  202 at Tue Nov 16 16:04:33 2021, MaxMem= 16106127360 cpu:               0.5 elap:               0.0
 (Enter /sw/contrib/gaussian/g16/B01/g16/l601.exe)
 Copying SCF densities to generalized density rwf, IOpCl= 0 IROHF=0.

 **********************************************************************

            Population analysis using the MP2 Density.

 **********************************************************************

 Orbital symmetries:
       Occupied  (A1) (A1) (B2) (A1) (B1)
       Virtual   (A1) (B2) (A1) (B1) (A1) (B2) (B2) (A1) (A2) (B1)
                 (A1) (B2) (A1) (B2) (B2) (A1) (A1) (A2) (B1) (A1)
                 (B1) (A1) (B2) (B1) (A2) (B2) (A1) (A1) (B2) (B1)
                 (B2) (A2) (A1) (B2) (A2) (A1) (B1) (A1) (B2) (B2)
                 (A1) (B1) (A2) (A1) (A1) (B1) (B2) (A1) (B2) (B1)
                 (A1) (B2) (A2) (B2) (A1) (A2) (B1) (A1) (B2) (B1)
                 (A1) (A2) (B1) (B2) (A1) (B2) (A2) (B2) (B2) (A1)
                 (B1) (A1) (A1) (B2) (B1) (A1) (B1) (B1) (B2) (A2)
                 (A1) (A2) (A1) (A1) (B2) (B2) (A1)
 The electronic state is 1-A1.
 Alpha  occ. eigenvalues --  -20.56809  -1.35179  -0.71482  -0.58496  -0.51015
 Alpha virt. eigenvalues --    0.02937   0.04769   0.13589   0.15878   0.17516
 Alpha virt. eigenvalues --    0.18308   0.22712   0.24492   0.26539   0.30000
 Alpha virt. eigenvalues --    0.31013   0.36578   0.43733   0.46603   0.59918
 Alpha virt. eigenvalues --    0.65847   0.70795   0.72265   0.73166   0.83052
 Alpha virt. eigenvalues --    0.84633   0.89219   0.91248   0.91825   0.92236
 Alpha virt. eigenvalues --    0.93079   0.96136   1.02083   1.04308   1.08249
 Alpha virt. eigenvalues --    1.10841   1.17615   1.18180   1.26100   1.51004
 Alpha virt. eigenvalues --    1.53502   1.58255   1.80528   1.82030   1.98384
 Alpha virt. eigenvalues --    2.11719   2.26260   2.31562   2.32673   2.41819
 Alpha virt. eigenvalues --    2.42049   2.44303   2.47953   2.67726   2.69801
 Alpha virt. eigenvalues --    2.77067   2.81530   2.88382   3.65208   3.74076
 Alpha virt. eigenvalues --    4.01747   4.08249   4.16334   4.24680   4.28683
 Alpha virt. eigenvalues --    4.37408   4.37700   4.40446   4.51701   4.72426
 Alpha virt. eigenvalues --    4.84207   5.14731   5.14763   5.24904   5.32186
 Alpha virt. eigenvalues --    5.52028   5.66143   6.17679   6.51304   6.70881
 Alpha virt. eigenvalues --    6.89708   7.13109   7.25090   7.29832   7.31120
 Alpha virt. eigenvalues --    7.32823   7.35418   7.53002   7.89575   7.92127
 Alpha virt. eigenvalues --    8.79866  15.70526
          Condensed to atoms (all electrons):
               1          2          3
     1  O    8.010739   0.209390   0.209390
     2  H    0.209390   0.562355   0.013495
     3  H    0.209390   0.013495   0.562355
 Mulliken charges:
               1
     1  O   -0.429520
     2  H    0.214760
     3  H    0.214760
 Sum of Mulliken charges =  -0.00000
 Mulliken charges with hydrogens summed into heavy atoms:
               1
     1  O   -0.000000
 Electronic spatial extent (au):  <R**2>=             20.0695
 Charge=              0.0000 electrons
 Dipole moment (field-independent basis, Debye):
    X=             -0.0000    Y=             -0.0000    Z=             -1.8594  Tot=              1.8594
 Quadrupole moment (field-independent basis, Debye-Ang):
   XX=             -7.8535   YY=             -4.4599   ZZ=             -6.4745
   XY=              0.0000   XZ=              0.0000   YZ=              0.0000
 Traceless Quadrupole moment (field-independent basis, Debye-Ang):
   XX=             -1.5909   YY=              1.8028   ZZ=             -0.2119
   XY=              0.0000   XZ=              0.0000   YZ=              0.0000
 Octapole moment (field-independent basis, Debye-Ang**2):
  XXX=              0.0000  YYY=             -0.0000  ZZZ=             -0.9507  XYY=             -0.0000
  XXY=             -0.0000  XXZ=             -0.1860  XZZ=              0.0000  YZZ=             -0.0000
  YYZ=             -1.3306  XYZ=             -0.0000
 Hexadecapole moment (field-independent basis, Debye-Ang**3):
 XXXX=             -7.7248 YYYY=             -6.5733 ZZZZ=             -8.0233 XXXY=             -0.0000
 XXXZ=             -0.0000 YYYX=             -0.0000 YYYZ=              0.0000 ZZZX=             -0.0000
 ZZZY=              0.0000 XXYY=             -2.7202 XXZZ=             -2.6748 YYZZ=             -2.1087
 XXYZ=             -0.0000 YYXZ=              0.0000 ZZXY=             -0.0000
 N-N= 9.156520996945D+00 E-N=-1.989559019461D+02  KE= 7.625553047103D+01
 Symmetry A1   KE= 6.805038528265D+01
 Symmetry A2   KE= 2.548265986873D-02
 Symmetry B1   KE= 4.452111513000D+00
 Symmetry B2   KE= 3.727551015512D+00
 No NMR shielding tensors so no spin-rotation constants.
 Leave Link  601 at Tue Nov 16 16:04:33 2021, MaxMem= 16106127360 cpu:               4.0 elap:               0.2
 (Enter /sw/contrib/gaussian/g16/B01/g16/l9999.exe)
 1\1\GINC-N2182\POpt\RMP2-FC\Aug-CC-pVTZ\H2O1\CGAVINH\16-Nov-2021\1\\#p
  opt=(z-matrix) mp2/aug-cc-pvtz density=current\\title\\0,1\O\H,1,rOD\
 H,1,rOH,2,aHOCl\\rOD=0.96132107\rOH=0.96132107\aHOCl=104.10787084\\Ver
 sion=ES64L-G16RevB.01\State=1-A1\HF=-76.0602857\MP2=-76.3289923\RMSD=2
 .528e-09\RMSF=2.987e-05\Dipole=0.,0.,-0.7315538\Quadrupole=-1.1827851,
 1.3403195,-0.1575344,0.,0.,0.\PG=C02V [C2(O1),SGV(H2)]\\@


 WOE UNTO THEM THAT CALL EVIL GOOD, AND GOOD EVIL      
 Job cpu time:       0 days  0 hours  6 minutes  3.9 seconds.
 Elapsed time:       0 days  0 hours  0 minutes 15.4 seconds.
 File lengths (MBytes):  RWF=     10 Int=      0 D2E=      0 Chk=      8 Scr=      1
 Normal termination of Gaussian 16 at Tue Nov 16 16:04:34 2021.
