 Entering Gaussian System, Link 0=g16
 Input=hod_rOH_s.gjf
 Output=hod_rOH_s.log
 Initial command:
 /sw/contrib/gaussian/g16/B01/g16/l1.exe "/scr/Gau-3525.inp" -scrdir="/scr/"
 Entering Link 1 = /sw/contrib/gaussian/g16/B01/g16/l1.exe PID=      3526.
  
 Copyright (c) 1988-2017, Gaussian, Inc.  All Rights Reserved.
  
 This is part of the Gaussian(R) 16 program.  It is based on
 the Gaussian(R) 09 system (copyright 2009, Gaussian, Inc.),
 the Gaussian(R) 03 system (copyright 2003, Gaussian, Inc.),
 the Gaussian(R) 98 system (copyright 1998, Gaussian, Inc.),
 the Gaussian(R) 94 system (copyright 1995, Gaussian, Inc.),
 the Gaussian 92(TM) system (copyright 1992, Gaussian, Inc.),
 the Gaussian 90(TM) system (copyright 1990, Gaussian, Inc.),
 the Gaussian 88(TM) system (copyright 1988, Gaussian, Inc.),
 the Gaussian 86(TM) system (copyright 1986, Carnegie Mellon
 University), and the Gaussian 82(TM) system (copyright 1983,
 Carnegie Mellon University). Gaussian is a federally registered
 trademark of Gaussian, Inc.
  
 This software contains proprietary and confidential information,
 including trade secrets, belonging to Gaussian, Inc.
  
 This software is provided under written license and may be
 used, copied, transmitted, or stored only in accord with that
 written license.
  
 The following legend is applicable only to US Government
 contracts under FAR:
  
                    RESTRICTED RIGHTS LEGEND
  
 Use, reproduction and disclosure by the US Government is
 subject to restrictions as set forth in subparagraphs (a)
 and (c) of the Commercial Computer Software - Restricted
 Rights clause in FAR 52.227-19.
  
 Gaussian, Inc.
 340 Quinnipiac St., Bldg. 40, Wallingford CT 06492
  
  
 ---------------------------------------------------------------
 Warning -- This program may not be used in any manner that
 competes with the business of Gaussian, Inc. or will provide
 assistance to any competitor of Gaussian, Inc.  The licensee
 of this program is prohibited from giving any competitor of
 Gaussian, Inc. access to this program.  By using this program,
 the user acknowledges that Gaussian, Inc. is engaged in the
 business of creating and licensing software in the field of
 computational chemistry and represents and warrants to the
 licensee that it is not a competitor of Gaussian, Inc. and that
 it will not use this program in any manner prohibited above.
 ---------------------------------------------------------------
  

 Cite this work as:
 Gaussian 16, Revision B.01,
 M. J. Frisch, G. W. Trucks, H. B. Schlegel, G. E. Scuseria, 
 M. A. Robb, J. R. Cheeseman, G. Scalmani, V. Barone, 
 G. A. Petersson, H. Nakatsuji, X. Li, M. Caricato, A. V. Marenich, 
 J. Bloino, B. G. Janesko, R. Gomperts, B. Mennucci, H. P. Hratchian, 
 J. V. Ortiz, A. F. Izmaylov, J. L. Sonnenberg, D. Williams-Young, 
 F. Ding, F. Lipparini, F. Egidi, J. Goings, B. Peng, A. Petrone, 
 T. Henderson, D. Ranasinghe, V. G. Zakrzewski, J. Gao, N. Rega, 
 G. Zheng, W. Liang, M. Hada, M. Ehara, K. Toyota, R. Fukuda, 
 J. Hasegawa, M. Ishida, T. Nakajima, Y. Honda, O. Kitao, H. Nakai, 
 T. Vreven, K. Throssell, J. A. Montgomery, Jr., J. E. Peralta, 
 F. Ogliaro, M. J. Bearpark, J. J. Heyd, E. N. Brothers, K. N. Kudin, 
 V. N. Staroverov, T. A. Keith, R. Kobayashi, J. Normand, 
 K. Raghavachari, A. P. Rendell, J. C. Burant, S. S. Iyengar, 
 J. Tomasi, M. Cossi, J. M. Millam, M. Klene, C. Adamo, R. Cammi, 
 J. W. Ochterski, R. L. Martin, K. Morokuma, O. Farkas, 
 J. B. Foresman, and D. J. Fox, Gaussian, Inc., Wallingford CT, 2016.
 
 ******************************************
 Gaussian 16:  ES64L-G16RevB.01 20-Dec-2017
                16-Nov-2021 
 ******************************************
 %nproc=28
 Will use up to   28 processors via shared memory.
 %mem=120GB
 %chk=/gscratch/ilahie/mccoygrp/coire_hocl/rOH_s_oop_0/hod/hod_rOH_s.chk
 -------------------------------------------------
 #p opt=(z-matrix) mp2/aug-cc-pvtz density=current
 -------------------------------------------------
 1/10=7,18=40,38=1/1,3;
 2/12=2,17=6,18=5,29=3,40=1/2;
 3/5=16,6=1,7=10,11=9,25=1,30=1,71=1/1,2,3;
 4//1;
 5/5=2,38=5/2;
 8/6=4,10=1/1;
 9/15=2,16=-3/6;
 10/5=1/2;
 6/7=2,8=2,9=2,10=2,22=-1/1;
 7/12=2,29=1/1,2,3,16;
 1/10=7,18=40/3(2);
 2/29=3/2;
 99//99;
 2/29=3/2;
 3/5=16,6=1,7=10,11=9,25=1,30=1,71=1/1,2,3;
 4/5=5,16=3,69=1/1;
 5/5=2,38=5/2;
 8/6=4,10=1/1;
 9/15=2,16=-3/6;
 10/5=1/2;
 7/12=2/1,2,3,16;
 1/18=40/3(-8);
 2/29=3/2;
 6/7=2,8=2,9=2,10=2,22=-1/1;
 99/9=10/99;
 Leave Link    1 at Tue Nov 16 16:10:53 2021, MaxMem= 16106127360 cpu:               3.4 elap:               0.1
 (Enter /sw/contrib/gaussian/g16/B01/g16/l101.exe)
 -----
 title
 -----
 Symbolic Z-matrix:
 Charge =  0 Multiplicity = 1
 O
 H(iso=2)             1    rOD
 H                    1    rOH      2    aHOCl
       Variables:
  rOD                   0.96132 -1        0.     
  rOH                   0.6    Scan 28    0.05   
  aHOCl               104.10787 -1        0.     
 
 ITRead=  0  0  0
 MicOpt= -1 -1 -1
 NAtoms=      3 NQM=        3 NQMF=       0 NMMI=      0 NMMIF=      0
                NMic=       0 NMicF=      0.
                    Isotopes and Nuclear Properties:
 (Nuclear quadrupole moments (NQMom) in fm**2, nuclear magnetic moments (NMagM)
  in nuclear magnetons)

  Atom         1           2           3
 IAtWgt=          16           2           1
 AtmWgt=  15.9949146   2.0141018   1.0078250
 NucSpn=           0           2           1
 AtZEff=  -0.0000000  -0.0000000  -0.0000000
 NQMom=    0.0000000   0.2860000   0.0000000
 NMagM=    0.0000000   0.8574380   2.7928460
 AtZNuc=   8.0000000   1.0000000   1.0000000
 Leave Link  101 at Tue Nov 16 16:10:53 2021, MaxMem= 16106127360 cpu:               3.3 elap:               0.1
 (Enter /sw/contrib/gaussian/g16/B01/g16/l103.exe)

 GradGradGradGradGradGradGradGradGradGradGradGradGradGradGradGradGradGrad
 Berny optimization.
 Initialization pass.
                       ----------------------------
                       !    Initial Parameters    !
                       ! (Angstroms and Degrees)  !
 ----------------------                            ----------------------
 !      Name          Value   Derivative information (Atomic Units)     !
 ------------------------------------------------------------------------
 !       rOD         0.9613   Frozen                                    !
 !       rOH         0.6      Scan                                      !
 !      aHOCl      104.1079   Frozen                                    !
 ------------------------------------------------------------------------
 Trust Radius=3.00D-01 FncErr=1.00D-07 GrdErr=1.00D-07 EigMax=2.50D+02 EigMin=1.00D-04
 Number of optimizations in scan=  29
 Number of steps in this run=     20 maximum allowed number of steps=    100.
 GradGradGradGradGradGradGradGradGradGradGradGradGradGradGradGradGradGrad

 Leave Link  103 at Tue Nov 16 16:10:53 2021, MaxMem= 16106127360 cpu:               0.5 elap:               0.0
 (Enter /sw/contrib/gaussian/g16/B01/g16/l202.exe)
 ---------------------------------------------------------------------------------------------------
                            Z-MATRIX (ANGSTROMS AND DEGREES)
   CD    Cent   Atom    N1       Length/X        N2       Alpha/Y        N3        Beta/Z          J
 ---------------------------------------------------------------------------------------------------
      1      1  O 
      2      2  H        1   0.961321(     1)
      3      3  H        1   0.600000(     2)      2  104.108(     3)
 ---------------------------------------------------------------------------------------------------
                         Z-Matrix orientation:                         
 ---------------------------------------------------------------------
 Center     Atomic      Atomic             Coordinates (Angstroms)
 Number     Number       Type             X           Y           Z
 ---------------------------------------------------------------------
      1          8           0        0.000000    0.000000    0.000000
      2          1           0        0.000000    0.000000    0.961321
      3          1           0        0.581903    0.000000   -0.146249
 ---------------------------------------------------------------------
                    Distance matrix (angstroms):
                    1          2          3
     1  O    0.000000
     2  H    0.961321   0.000000
     3  H    0.600000   1.251129   0.000000
 Stoichiometry    H2O
 Framework group  CS[SG(H2O)]
 Deg. of freedom     3
 Full point group                 CS      NOp   2
 Largest Abelian subgroup         CS      NOp   2
 Largest concise Abelian subgroup C1      NOp   1
                         Standard orientation:                         
 ---------------------------------------------------------------------
 Center     Atomic      Atomic             Coordinates (Angstroms)
 Number     Number       Type             X           Y           Z
 ---------------------------------------------------------------------
      1          8           0       -0.000000    0.100148    0.000000
      2          1           0        0.558571   -0.682244    0.000000
      3          1           0       -0.558571   -0.118937    0.000000
 ---------------------------------------------------------------------
 Rotational constants (GHZ):        1635.2973721         292.3406860         248.0050409
 Leave Link  202 at Tue Nov 16 16:10:53 2021, MaxMem= 16106127360 cpu:               0.6 elap:               0.1
 (Enter /sw/contrib/gaussian/g16/B01/g16/l301.exe)
 Standard basis: Aug-CC-pVTZ (5D, 7F)
 Ernie: Thresh=  0.10000D-02 Tol=  0.10000D-05 Strict=F.
 Ernie:  3 primitive shells out of 52 were deleted.
 There are    73 symmetry adapted cartesian basis functions of A'  symmetry.
 There are    32 symmetry adapted cartesian basis functions of A"  symmetry.
 There are    62 symmetry adapted basis functions of A'  symmetry.
 There are    30 symmetry adapted basis functions of A"  symmetry.
    92 basis functions,   126 primitive gaussians,   105 cartesian basis functions
     5 alpha electrons        5 beta electrons
       nuclear repulsion energy        11.8824060841 Hartrees.
 IExCor=    0 DFT=F Ex=HF Corr=None ExCW=0 ScaHFX=  1.000000
 ScaDFX=  1.000000  1.000000  1.000000  1.000000 ScalE2=  1.000000  1.000000
 IRadAn=      5 IRanWt=     -1 IRanGd=            0 ICorTp=0 IEmpDi=  4
 NAtoms=    3 NActive=    3 NUniq=    3 SFac= 1.00D+00 NAtFMM=   60 NAOKFM=F Big=F
 Integral buffers will be    131072 words long.
 Raffenetti 1 integral format.
 Two-electron integral symmetry is turned on.
 Leave Link  301 at Tue Nov 16 16:10:53 2021, MaxMem= 16106127360 cpu:               2.1 elap:               0.1
 (Enter /sw/contrib/gaussian/g16/B01/g16/l302.exe)
 NPDir=0 NMtPBC=     1 NCelOv=     1 NCel=       1 NClECP=     1 NCelD=      1
         NCelK=      1 NCelE2=     1 NClLst=     1 CellRange=     0.0.
 One-electron integrals computed using PRISM.
 One-electron integral symmetry used in STVInt
 NBasis=    92 RedAO= T EigKep=  1.76D-04  NBF=    62    30
 NBsUse=    92 1.00D-06 EigRej= -1.00D+00 NBFU=    62    30
 Leave Link  302 at Tue Nov 16 16:10:54 2021, MaxMem= 16106127360 cpu:               3.9 elap:               0.2
 (Enter /sw/contrib/gaussian/g16/B01/g16/l303.exe)
 DipDrv:  MaxL=1.
 Leave Link  303 at Tue Nov 16 16:10:54 2021, MaxMem= 16106127360 cpu:               0.7 elap:               0.1
 (Enter /sw/contrib/gaussian/g16/B01/g16/l401.exe)
 ExpMin= 2.53D-02 ExpMax= 1.53D+04 ExpMxC= 5.22D+02 IAcc=3 IRadAn=         5 AccDes= 0.00D+00
 Harris functional with IExCor=  205 and IRadAn=       5 diagonalized for initial guess.
 HarFok:  IExCor=  205 AccDes= 0.00D+00 IRadAn=         5 IDoV= 1 UseB2=F ITyADJ=14
 ICtDFT=  3500011 ScaDFX=  1.000000  1.000000  1.000000  1.000000
 FoFCou: FMM=F IPFlag=           0 FMFlag=      100000 FMFlg1=           0
         NFxFlg=           0 DoJE=T BraDBF=F KetDBF=T FulRan=T
         wScrn=  0.000000 ICntrl=       500 IOpCl=  0 I1Cent=   200000004 NGrid=           0
         NMat0=    1 NMatS0=      1 NMatT0=    0 NMatD0=    1 NMtDS0=    0 NMtDT0=    0
 Petite list used in FoFCou.
 Harris En= -75.8971897069680    
 JPrj=0 DoOrth=F DoCkMO=F.
 Initial guess orbital symmetries:
       Occupied  (A') (A') (A') (A') (A")
       Virtual   (A') (A') (A') (A") (A') (A') (A') (A') (A") (A')
                 (A") (A') (A') (A') (A') (A') (A") (A') (A") (A')
                 (A") (A') (A") (A') (A") (A') (A') (A') (A") (A')
                 (A') (A') (A") (A') (A") (A') (A') (A") (A') (A')
                 (A') (A") (A') (A") (A') (A') (A") (A") (A') (A')
                 (A") (A') (A') (A') (A') (A") (A') (A") (A") (A')
                 (A") (A') (A') (A") (A') (A') (A') (A") (A') (A")
                 (A') (A') (A') (A') (A") (A") (A') (A") (A") (A')
                 (A') (A') (A") (A') (A') (A') (A')
 The electronic state of the initial guess is 1-A'.
 Leave Link  401 at Tue Nov 16 16:10:54 2021, MaxMem= 16106127360 cpu:               5.7 elap:               0.3
 (Enter /sw/contrib/gaussian/g16/B01/g16/l502.exe)
 Keep R1 ints in memory in symmetry-blocked form, NReq=22811924.
 FoFCou: FMM=F IPFlag=           0 FMFlag=           0 FMFlg1=           0
         NFxFlg=           0 DoJE=F BraDBF=F KetDBF=F FulRan=T
         wScrn=  0.000000 ICntrl=       600 IOpCl=  0 I1Cent=           0 NGrid=           0
         NMat0=    1 NMatS0=   4278 NMatT0=    0 NMatD0=    1 NMtDS0=    0 NMtDT0=    0
 Petite list used in FoFCou.
 Closed shell SCF:
 Using DIIS extrapolation, IDIIS=  1040.
 NGot= 16106127360 LenX= 16101436083 LenY= 16101424617
 Requested convergence on RMS density matrix=1.00D-08 within 128 cycles.
 Requested convergence on MAX density matrix=1.00D-06.
 Requested convergence on             energy=1.00D-06.
 No special actions if energy rises.

 Cycle   1  Pass 1  IDiag  1:
 E= -75.5542084554346    
 DIIS: error= 7.49D-02 at cycle   1 NSaved=   1.
 NSaved= 1 IEnMin= 1 EnMin= -75.5542084554346     IErMin= 1 ErrMin= 7.49D-02
 ErrMax= 7.49D-02  0.00D+00 EMaxC= 1.00D-01 BMatC= 3.75D-01 BMatP= 3.75D-01
 IDIUse=3 WtCom= 2.51D-01 WtEn= 7.49D-01
 Coeff-Com:  0.100D+01
 Coeff-En:   0.100D+01
 Coeff:      0.100D+01
 Gap=     0.406 Goal=   None    Shift=    0.000
 GapD=    0.406 DampG=2.000 DampE=0.500 DampFc=1.0000 IDamp=-1.
 RMSDP=3.14D-03 MaxDP=7.32D-02              OVMax= 1.79D-01

 Cycle   2  Pass 1  IDiag  1:
 E= -75.6768296680568     Delta-E=       -0.122621212622 Rises=F Damp=F
 DIIS: error= 4.06D-02 at cycle   2 NSaved=   2.
 NSaved= 2 IEnMin= 2 EnMin= -75.6768296680568     IErMin= 2 ErrMin= 4.06D-02
 ErrMax= 4.06D-02  0.00D+00 EMaxC= 1.00D-01 BMatC= 1.05D-01 BMatP= 3.75D-01
 IDIUse=3 WtCom= 5.94D-01 WtEn= 4.06D-01
 Coeff-Com:  0.328D+00 0.672D+00
 Coeff-En:   0.103D+00 0.897D+00
 Coeff:      0.237D+00 0.763D+00
 Gap=     0.600 Goal=   None    Shift=    0.000
 RMSDP=1.61D-03 MaxDP=3.47D-02 DE=-1.23D-01 OVMax= 8.38D-02

 Cycle   3  Pass 1  IDiag  1:
 E= -75.7343021489333     Delta-E=       -0.057472480876 Rises=F Damp=F
 DIIS: error= 9.73D-03 at cycle   3 NSaved=   3.
 NSaved= 3 IEnMin= 3 EnMin= -75.7343021489333     IErMin= 3 ErrMin= 9.73D-03
 ErrMax= 9.73D-03  0.00D+00 EMaxC= 1.00D-01 BMatC= 5.16D-03 BMatP= 1.05D-01
 IDIUse=3 WtCom= 9.03D-01 WtEn= 9.73D-02
 Coeff-Com: -0.298D-01 0.146D+00 0.884D+00
 Coeff-En:   0.000D+00 0.000D+00 0.100D+01
 Coeff:     -0.269D-01 0.132D+00 0.895D+00
 Gap=     0.559 Goal=   None    Shift=    0.000
 RMSDP=2.95D-04 MaxDP=6.91D-03 DE=-5.75D-02 OVMax= 1.53D-02

 Cycle   4  Pass 1  IDiag  1:
 E= -75.7372258441212     Delta-E=       -0.002923695188 Rises=F Damp=F
 DIIS: error= 5.82D-04 at cycle   4 NSaved=   4.
 NSaved= 4 IEnMin= 4 EnMin= -75.7372258441212     IErMin= 4 ErrMin= 5.82D-04
 ErrMax= 5.82D-04  0.00D+00 EMaxC= 1.00D-01 BMatC= 2.07D-05 BMatP= 5.16D-03
 IDIUse=3 WtCom= 9.94D-01 WtEn= 5.82D-03
 Coeff-Com:  0.197D-02-0.329D-01-0.116D+00 0.115D+01
 Coeff-En:   0.000D+00 0.000D+00 0.000D+00 0.100D+01
 Coeff:      0.196D-02-0.327D-01-0.115D+00 0.115D+01
 Gap=     0.561 Goal=   None    Shift=    0.000
 RMSDP=4.16D-05 MaxDP=6.47D-04 DE=-2.92D-03 OVMax= 2.67D-03

 Cycle   5  Pass 1  IDiag  1:
 E= -75.7372567264612     Delta-E=       -0.000030882340 Rises=F Damp=F
 DIIS: error= 1.77D-04 at cycle   5 NSaved=   5.
 NSaved= 5 IEnMin= 5 EnMin= -75.7372567264612     IErMin= 5 ErrMin= 1.77D-04
 ErrMax= 1.77D-04  0.00D+00 EMaxC= 1.00D-01 BMatC= 1.35D-06 BMatP= 2.07D-05
 IDIUse=3 WtCom= 9.98D-01 WtEn= 1.77D-03
 Coeff-Com:  0.186D-02-0.518D-02-0.403D-01-0.228D+00 0.127D+01
 Coeff-En:   0.000D+00 0.000D+00 0.000D+00 0.000D+00 0.100D+01
 Coeff:      0.186D-02-0.517D-02-0.402D-01-0.227D+00 0.127D+01
 Gap=     0.561 Goal=   None    Shift=    0.000
 RMSDP=1.72D-05 MaxDP=3.72D-04 DE=-3.09D-05 OVMax= 1.16D-03

 Cycle   6  Pass 1  IDiag  1:
 E= -75.7372599341941     Delta-E=       -0.000003207733 Rises=F Damp=F
 DIIS: error= 3.74D-05 at cycle   6 NSaved=   6.
 NSaved= 6 IEnMin= 6 EnMin= -75.7372599341941     IErMin= 6 ErrMin= 3.74D-05
 ErrMax= 3.74D-05  0.00D+00 EMaxC= 1.00D-01 BMatC= 3.92D-08 BMatP= 1.35D-06
 IDIUse=1 WtCom= 1.00D+00 WtEn= 0.00D+00
 Coeff-Com: -0.395D-03 0.183D-02 0.116D-01 0.891D-02-0.275D+00 0.125D+01
 Coeff:     -0.395D-03 0.183D-02 0.116D-01 0.891D-02-0.275D+00 0.125D+01
 Gap=     0.561 Goal=   None    Shift=    0.000
 RMSDP=3.15D-06 MaxDP=7.86D-05 DE=-3.21D-06 OVMax= 2.17D-04

 Cycle   7  Pass 1  IDiag  1:
 E= -75.7372600319705     Delta-E=       -0.000000097776 Rises=F Damp=F
 DIIS: error= 5.59D-06 at cycle   7 NSaved=   7.
 NSaved= 7 IEnMin= 7 EnMin= -75.7372600319705     IErMin= 7 ErrMin= 5.59D-06
 ErrMax= 5.59D-06  0.00D+00 EMaxC= 1.00D-01 BMatC= 1.59D-09 BMatP= 3.92D-08
 IDIUse=1 WtCom= 1.00D+00 WtEn= 0.00D+00
 Coeff-Com:  0.142D-04-0.216D-03-0.125D-02 0.919D-02 0.619D-02-0.264D+00
 Coeff-Com:  0.125D+01
 Coeff:      0.142D-04-0.216D-03-0.125D-02 0.919D-02 0.619D-02-0.264D+00
 Coeff:      0.125D+01
 Gap=     0.561 Goal=   None    Shift=    0.000
 RMSDP=5.21D-07 MaxDP=1.09D-05 DE=-9.78D-08 OVMax= 3.90D-05

 Cycle   8  Pass 1  IDiag  1:
 E= -75.7372600352320     Delta-E=       -0.000000003261 Rises=F Damp=F
 DIIS: error= 1.19D-06 at cycle   8 NSaved=   8.
 NSaved= 8 IEnMin= 8 EnMin= -75.7372600352320     IErMin= 8 ErrMin= 1.19D-06
 ErrMax= 1.19D-06  0.00D+00 EMaxC= 1.00D-01 BMatC= 5.26D-11 BMatP= 1.59D-09
 IDIUse=1 WtCom= 1.00D+00 WtEn= 0.00D+00
 Coeff-Com:  0.954D-05-0.859D-05-0.584D-04-0.278D-02 0.777D-02 0.249D-01
 Coeff-Com: -0.324D+00 0.129D+01
 Coeff:      0.954D-05-0.859D-05-0.584D-04-0.278D-02 0.777D-02 0.249D-01
 Coeff:     -0.324D+00 0.129D+01
 Gap=     0.561 Goal=   None    Shift=    0.000
 RMSDP=9.09D-08 MaxDP=1.84D-06 DE=-3.26D-09 OVMax= 6.01D-06

 Cycle   9  Pass 1  IDiag  1:
 E= -75.7372600353583     Delta-E=       -0.000000000126 Rises=F Damp=F
 DIIS: error= 1.57D-07 at cycle   9 NSaved=   9.
 NSaved= 9 IEnMin= 9 EnMin= -75.7372600353583     IErMin= 9 ErrMin= 1.57D-07
 ErrMax= 1.57D-07  0.00D+00 EMaxC= 1.00D-01 BMatC= 1.30D-12 BMatP= 5.26D-11
 IDIUse=1 WtCom= 1.00D+00 WtEn= 0.00D+00
 Coeff-Com: -0.128D-05 0.764D-05 0.436D-04-0.323D-04-0.633D-03 0.528D-02
 Coeff-Com: -0.108D-01-0.142D+00 0.115D+01
 Coeff:     -0.128D-05 0.764D-05 0.436D-04-0.323D-04-0.633D-03 0.528D-02
 Coeff:     -0.108D-01-0.142D+00 0.115D+01
 Gap=     0.561 Goal=   None    Shift=    0.000
 RMSDP=1.87D-08 MaxDP=2.90D-07 DE=-1.26D-10 OVMax= 9.59D-07

 Cycle  10  Pass 1  IDiag  1:
 E= -75.7372600353612     Delta-E=       -0.000000000003 Rises=F Damp=F
 DIIS: error= 2.22D-08 at cycle  10 NSaved=  10.
 NSaved=10 IEnMin=10 EnMin= -75.7372600353612     IErMin=10 ErrMin= 2.22D-08
 ErrMax= 2.22D-08  0.00D+00 EMaxC= 1.00D-01 BMatC= 3.45D-14 BMatP= 1.30D-12
 IDIUse=1 WtCom= 1.00D+00 WtEn= 0.00D+00
 Coeff-Com: -0.201D-06-0.230D-06-0.264D-05 0.948D-04-0.216D-03-0.130D-02
 Coeff-Com:  0.122D-01-0.258D-01-0.113D+00 0.113D+01
 Coeff:     -0.201D-06-0.230D-06-0.264D-05 0.948D-04-0.216D-03-0.130D-02
 Coeff:      0.122D-01-0.258D-01-0.113D+00 0.113D+01
 Gap=     0.561 Goal=   None    Shift=    0.000
 RMSDP=2.78D-09 MaxDP=5.02D-08 DE=-2.90D-12 OVMax= 1.26D-07

 SCF Done:  E(RHF) =  -75.7372600354     A.U. after   10 cycles
            NFock= 10  Conv=0.28D-08     -V/T= 1.9784
 KE= 7.740753710372D+01 PE=-2.046358760888D+02 EE= 3.960867286564D+01
 Leave Link  502 at Tue Nov 16 16:10:54 2021, MaxMem= 16106127360 cpu:              10.0 elap:               0.4
 (Enter /sw/contrib/gaussian/g16/B01/g16/l801.exe)
 ExpMin= 2.53D-02 ExpMax= 1.53D+04 ExpMxC= 5.22D+02 IAcc=3 IRadAn=         5 AccDes= 0.00D+00
 HarFok:  IExCor=  205 AccDes= 0.00D+00 IRadAn=         5 IDoV=-2 UseB2=F ITyADJ=14
 ICtDFT= 12500011 ScaDFX=  1.000000  1.000000  1.000000  1.000000
 Largest valence mixing into a core orbital is  9.44D-05
 Largest core mixing into a valence orbital is  8.89D-06
 Range of M.O.s used for correlation:     2    92
 NBasis=    92 NAE=     5 NBE=     5 NFC=     1 NFV=     0
 NROrb=     91 NOA=     4 NOB=     4 NVA=    87 NVB=    87

 **** Warning!!: The largest alpha MO coefficient is  0.22045577D+02

 Leave Link  801 at Tue Nov 16 16:10:55 2021, MaxMem= 16106127360 cpu:               1.5 elap:               0.1
 (Enter /sw/contrib/gaussian/g16/B01/g16/l906.exe)
 Frozen-core derivative calculation, NFC=   1 NFV=   0.
 FulOut=F Deriv=T AODrv=T NAtomX=     3
   MMem=         945  MDisk=           4 MDiskD=           4
  W3Min=       48300 MinDsk=      199415 NBas6D=         105
 NBas2D=        5790    NTT=        5565    LW2=     3500000
    MDV= 16106011968 MDiskM=      766857 NBas2p=        5790
 Fully direct method using O(ONN) memory.
 IMap=   1   2   3   4   5
 JobTyp=1 Pass  1:  I=   2 to   5 NPSUse= 28 ParTrn=T ParDer=T DoDerP=T.
 Spin components of T(2) and E(2):
     alpha-alpha T2 =       0.6774532552D-02 E2=     -0.3102017048D-01
     alpha-beta  T2 =       0.3953740126D-01 E2=     -0.1940613039D+00
     beta-beta   T2 =       0.6774532552D-02 E2=     -0.3102017048D-01
 The integrals were generated   1 times.
 ANorm=    0.1026200013D+01
 E2 =    -0.2561016448D+00 EUMP2 =    -0.75993361680167D+02
 Leave Link  906 at Tue Nov 16 16:10:55 2021, MaxMem= 16106127360 cpu:              25.4 elap:               0.9
 (Enter /sw/contrib/gaussian/g16/B01/g16/l1002.exe)
 Minotr:  Closed shell wavefunction.
          Computing MP2/KS-MP2 derivatives.
          Using Z-Vector for PSCF gradient.
          Skipping F1 and S1 gradient terms here.
          IDoAtm=111
          Frozen-core window.
          Direct CPHF calculation.
          Differentiating once with respect to electric field.
                with respect to dipole field.
          Differentiating once with respect to nuclear coordinates.
          Using symmetry in CPHF.
          Requested convergence is 1.0D-10 RMS, and 1.0D-09 maximum.
          NewPWx=F KeepS1=T KeepF1=T KeepIn=T MapXYZ=F SortEE=F KeepMc=T.
 Keep R1 ints in memory in symmetry-blocked form, NReq=22812746.
 FoFCou: FMM=F IPFlag=           0 FMFlag=           0 FMFlg1=           0
         NFxFlg=           0 DoJE=F BraDBF=F KetDBF=F FulRan=T
         wScrn=  0.000000 ICntrl=       600 IOpCl=  0 I1Cent=           0 NGrid=           0
         NMat0=    1 NMatS0=   4278 NMatT0=    0 NMatD0=    1 NMtDS0=    0 NMtDT0=    0
 Petite list used in FoFCou.
          MDV=   16106127360 using IRadAn=       5.
          Solving linear equations separately, MaxMat=       0.
          There are     1 degrees of freedom in the 1st order CPHF.  IDoFFX=0 NUNeed=     1.
 LinEq1:  Iter=  0 NonCon=     1 RMS=3.76D-03 Max=3.49D-02 NDo=     1
 AX will form     1 AO Fock derivatives at one time.
 LinEq1:  Iter=  1 NonCon=     1 RMS=4.65D-04 Max=3.07D-03 NDo=     1
 LinEq1:  Iter=  2 NonCon=     1 RMS=1.09D-04 Max=5.61D-04 NDo=     1
 LinEq1:  Iter=  3 NonCon=     1 RMS=3.81D-05 Max=3.00D-04 NDo=     1
 LinEq1:  Iter=  4 NonCon=     1 RMS=7.37D-06 Max=4.69D-05 NDo=     1
 LinEq1:  Iter=  5 NonCon=     1 RMS=1.39D-06 Max=7.23D-06 NDo=     1
 LinEq1:  Iter=  6 NonCon=     1 RMS=1.73D-07 Max=9.11D-07 NDo=     1
 LinEq1:  Iter=  7 NonCon=     1 RMS=1.64D-08 Max=9.21D-08 NDo=     1
 LinEq1:  Iter=  8 NonCon=     1 RMS=2.50D-09 Max=1.66D-08 NDo=     1
 LinEq1:  Iter=  9 NonCon=     1 RMS=4.34D-10 Max=2.40D-09 NDo=     1
 LinEq1:  Iter= 10 NonCon=     0 RMS=6.23D-11 Max=3.44D-10 NDo=     1
 Linear equations converged to 1.000D-10 1.000D-09 after    10 iterations.
 End of Minotr F.D. properties file   721 does not exist.
 End of Minotr F.D. properties file   722 does not exist.
 End of Minotr F.D. properties file   788 does not exist.
 Leave Link 1002 at Tue Nov 16 16:10:56 2021, MaxMem= 16106127360 cpu:              14.5 elap:               0.6
 (Enter /sw/contrib/gaussian/g16/B01/g16/l601.exe)
 Copying SCF densities to generalized density rwf, IOpCl= 0 IROHF=0.

 **********************************************************************

            Population analysis using the MP2 Density.

 **********************************************************************

 Orbital symmetries:
       Occupied  (A') (A') (A') (A') (A")
       Virtual   (A') (A') (A') (A") (A') (A') (A') (A') (A") (A')
                 (A") (A') (A') (A') (A') (A') (A') (A") (A") (A')
                 (A") (A') (A") (A') (A") (A') (A') (A') (A") (A')
                 (A') (A") (A') (A') (A") (A') (A") (A') (A') (A')
                 (A') (A") (A') (A") (A') (A") (A') (A") (A') (A')
                 (A") (A') (A') (A') (A') (A") (A') (A") (A') (A")
                 (A') (A") (A') (A") (A') (A') (A') (A") (A') (A")
                 (A') (A') (A') (A') (A") (A") (A') (A") (A") (A')
                 (A') (A') (A") (A') (A') (A') (A')
 The electronic state is 1-A'.
 Alpha  occ. eigenvalues --  -20.52857  -1.51043  -0.82238  -0.61271  -0.53140
 Alpha virt. eigenvalues --    0.03002   0.04872   0.13161   0.14627   0.17080
 Alpha virt. eigenvalues --    0.18377   0.23723   0.25507   0.26741   0.32016
 Alpha virt. eigenvalues --    0.32073   0.37668   0.44272   0.49332   0.62994
 Alpha virt. eigenvalues --    0.69424   0.72017   0.72211   0.73785   0.84119
 Alpha virt. eigenvalues --    0.87267   0.88410   0.90597   0.92114   0.93594
 Alpha virt. eigenvalues --    0.96771   0.98402   1.01875   1.07198   1.13539
 Alpha virt. eigenvalues --    1.17764   1.21128   1.25250   1.36426   1.52353
 Alpha virt. eigenvalues --    1.53260   1.77858   1.78987   1.92953   2.02281
 Alpha virt. eigenvalues --    2.26966   2.27064   2.36676   2.37727   2.39249
 Alpha virt. eigenvalues --    2.47599   2.47618   2.59379   2.64832   2.79409
 Alpha virt. eigenvalues --    2.87698   2.92049   3.20199   3.74056   4.05987
 Alpha virt. eigenvalues --    4.12615   4.27101   4.30179   4.44652   4.45416
 Alpha virt. eigenvalues --    4.56509   4.65251   4.71709   4.77780   4.87481
 Alpha virt. eigenvalues --    5.07312   5.33066   5.41859   5.49366   5.86711
 Alpha virt. eigenvalues --    6.12203   6.35293   6.55482   6.88264   6.90744
 Alpha virt. eigenvalues --    6.94460   7.04254   7.23211   7.27921   7.48530
 Alpha virt. eigenvalues --    7.82827   8.04278   9.30354   9.33406   9.64961
 Alpha virt. eigenvalues --   11.27328  22.50252
          Condensed to atoms (all electrons):
               1          2          3
     1  O    7.624791   0.243740   0.358906
     2  H    0.243740   0.518977  -0.009004
     3  H    0.358906  -0.009004   0.668950
 Mulliken charges:
               1
     1  O   -0.227437
     2  H    0.246288
     3  H   -0.018851
 Sum of Mulliken charges =  -0.00000
 Mulliken charges with hydrogens summed into heavy atoms:
               1
     1  O   -0.000000
 Electronic spatial extent (au):  <R**2>=             17.6728
 Charge=             -0.0000 electrons
 Dipole moment (field-independent basis, Debye):
    X=             -0.1989    Y=             -1.8045    Z=             -0.0000  Tot=              1.8154
 Quadrupole moment (field-independent basis, Debye-Ang):
   XX=             -4.9678   YY=             -5.8227   ZZ=             -7.2937
   XY=             -0.7585   XZ=             -0.0000   YZ=              0.0000
 Traceless Quadrupole moment (field-independent basis, Debye-Ang):
   XX=              1.0603   YY=              0.2054   ZZ=             -1.2656
   XY=             -0.7585   XZ=             -0.0000   YZ=              0.0000
 Octapole moment (field-independent basis, Debye-Ang**2):
  XXX=             -0.5152  YYY=             -1.4716  ZZZ=             -0.0000  XYY=              0.3626
  XXY=             -0.8042  XXZ=              0.0000  XZZ=             -0.1904  YZZ=             -0.2572
  YYZ=             -0.0000  XYZ=             -0.0000
 Hexadecapole moment (field-independent basis, Debye-Ang**3):
 XXXX=             -5.1531 YYYY=             -6.6766 ZZZZ=             -6.7678 XXXY=              0.0690
 XXXZ=             -0.0000 YYYX=             -0.1110 YYYZ=              0.0000 ZZZX=             -0.0000
 ZZZY=              0.0000 XXYY=             -1.7345 XXZZ=             -2.0997 YYZZ=             -2.3454
 XXYZ=              0.0000 YYXZ=             -0.0000 ZZXY=              0.1298
 N-N= 1.188240608411D+01 E-N=-2.046200210970D+02  KE= 7.766630150919D+01
 Symmetry A'   KE= 7.308132487238D+01
 Symmetry A"   KE= 4.584976636813D+00
 No NMR shielding tensors so no spin-rotation constants.
 Leave Link  601 at Tue Nov 16 16:10:56 2021, MaxMem= 16106127360 cpu:               5.3 elap:               0.2
 (Enter /sw/contrib/gaussian/g16/B01/g16/l701.exe)
 ... and contract with generalized density number  2.
 Compute integral first derivatives.
 Leave Link  701 at Tue Nov 16 16:10:57 2021, MaxMem= 16106127360 cpu:               4.7 elap:               0.2
 (Enter /sw/contrib/gaussian/g16/B01/g16/l702.exe)
 L702 exits ... SP integral derivatives will be done elsewhere.
 Leave Link  702 at Tue Nov 16 16:10:57 2021, MaxMem= 16106127360 cpu:               0.5 elap:               0.0
 (Enter /sw/contrib/gaussian/g16/B01/g16/l703.exe)
 Integral derivatives from FoFJK, PRISM(SPDF).
 Compute integral first derivatives, UseDBF=F ICtDFT=           0.
 Calling FoFJK, ICntrl=  10002127 FMM=F ISym2X=1 I1Cent= 0 IOpClX= 0 NMat=1 NMatS=1 NMatT=0.
 FoFJK:  IHMeth= 1 ICntrl=10002127 DoSepK=F KAlg= 0 I1Cent=           0 FoldK=F
 IRaf=         0 NMat=       1 IRICut=       1 DoRegI=T DoRafI=F ISym2E= 1 IDoP0=0 IntGTp=1.
 FoFCou: FMM=F IPFlag=           0 FMFlag=      100000 FMFlg1=         800
         NFxFlg=           0 DoJE=F BraDBF=F KetDBF=F FulRan=T
         wScrn=  0.000000 ICntrl=  10002127 IOpCl=  0 I1Cent=           0 NGrid=           0
         NMat0=    1 NMatS0=      1 NMatT0=    0 NMatD0=    1 NMtDS0=    0 NMtDT0=    0
 Petite list used in FoFCou.
 Leave Link  703 at Tue Nov 16 16:10:57 2021, MaxMem= 16106127360 cpu:              11.6 elap:               0.4
 (Enter /sw/contrib/gaussian/g16/B01/g16/l716.exe)
 Dipole        =-7.82387421D-02-7.09953444D-01-1.01462908D-33
 ***** Axes restored to original set *****
 -------------------------------------------------------------------
 Center     Atomic                   Forces (Hartrees/Bohr)
 Number     Number              X              Y              Z
 -------------------------------------------------------------------
      1        8          -1.495429220   -0.000000000    0.404070822
      2        1          -0.011442318   -0.000000000   -0.006447741
      3        1           1.506871539    0.000000000   -0.397623081
 -------------------------------------------------------------------
 Cartesian Forces:  Max     1.506871539 RMS     0.732463138
 -----------------------------------------------------------------------------------------------
                       Internal Coordinate Forces (Hartree/Bohr or radian)
  Cent   Atom   N1       Length/X         N2         Alpha/Y        N3         Beta/Z          J
 -----------------------------------------------------------------------------------------------
      1  O 
      2  H        1  -0.006448(     1)
      3  H        1   1.558342(     2)      2   0.020786(     3)
 -----------------------------------------------------------------------------------------------
 Internal  Forces:  Max     1.558342021 RMS     0.899796923
 Force constants in Cartesian coordinates: 
                1             2             3             4             5 
      1  0.350647D+01
      2  0.000000D+00  0.100000D+01
      3 -0.752959D+00  0.000000D+00  0.884534D+00
      4 -0.674166D-01  0.000000D+00 -0.753359D-01  0.484825D-01
      5  0.000000D+00  0.000000D+00  0.000000D+00  0.000000D+00  0.100000D+01
      6  0.000000D+00  0.000000D+00 -0.551902D+00  0.000000D+00  0.000000D+00
      7 -0.343906D+01  0.000000D+00  0.828295D+00  0.189341D-01  0.000000D+00
      8  0.000000D+00  0.000000D+00  0.000000D+00  0.000000D+00  0.000000D+00
      9  0.752959D+00  0.000000D+00 -0.332631D+00  0.753359D-01  0.000000D+00
                6             7             8             9 
      6  0.551902D+00
      7  0.000000D+00  0.342012D+01
      8  0.000000D+00  0.000000D+00  0.100000D+01
      9  0.000000D+00 -0.828295D+00  0.000000D+00  0.332631D+00
 Force constants in internal coordinates: 
                1             2             3 
      1  0.551902D+00
      2  0.000000D+00  0.362830D+01
      3  0.000000D+00  0.000000D+00  0.160000D+00
 Leave Link  716 at Tue Nov 16 16:10:57 2021, MaxMem= 16106127360 cpu:               1.1 elap:               0.1
 (Enter /sw/contrib/gaussian/g16/B01/g16/l103.exe)

 GradGradGradGradGradGradGradGradGradGradGradGradGradGradGradGradGradGrad
 Berny optimization.
 Search for a local minimum.
 Step number   1 out of a maximum of   20 on scan point     1 out of    29
 All quantities printed in internal units (Hartrees-Bohrs-Radians)
 Second derivative matrix not updated -- first step.
 The second derivative matrix:
                          rOD       rOH      aHOCl
           rOD          0.55190
           rOH         -0.00000   3.62830
           aHOCl        0.00000   0.00000   0.16000
 ITU=  0
     Eigenvalues --- 1000.000001000.000001000.00000
 RFO step:  Lambda= 0.00000000D+00 EMin= 1.00000000D+03
 Linear search not attempted -- first point.
 Variable       Old X    -DE/DX   Delta X   Delta X   Delta X     New X
                                 (Linear)    (Quad)   (Total)
   rOD        1.81663  -0.00645   0.00000   0.00000   0.00000   1.81663
   rOH        1.13384   1.55834   0.00000   0.00000   0.00000   1.13384
  aHOCl       1.81703   0.02079   0.00000   0.00000   0.00000   1.81703
         Item               Value     Threshold  Converged?
 Maximum Force            0.000000     0.000450     YES
 RMS     Force            0.000000     0.000300     YES
 Maximum Displacement     0.000000     0.001800     YES
 RMS     Displacement     0.000000     0.001200     YES
 Predicted change in Energy=-0.000000D+00
 Optimization completed.
    -- Stationary point found.
                       ----------------------------
                       !   Optimized Parameters   !
                       ! (Angstroms and Degrees)  !
 ----------------------                            ----------------------
 !      Name          Value   Derivative information (Atomic Units)     !
 ------------------------------------------------------------------------
 !       rOD         0.9613   -DE/DX =   -0.0064                        !
 !       rOH         0.6      -DE/DX =    1.5583                        !
 !      aHOCl      104.1079   -DE/DX =    0.0208                        !
 ------------------------------------------------------------------------
 Lowest energy point so far.  Saving SCF results.
 GradGradGradGradGradGradGradGradGradGradGradGradGradGradGradGradGradGrad

 Leave Link  103 at Tue Nov 16 16:10:57 2021, MaxMem= 16106127360 cpu:               0.7 elap:               0.1
 (Enter /sw/contrib/gaussian/g16/B01/g16/l202.exe)
 ---------------------------------------------------------------------------------------------------
                            Z-MATRIX (ANGSTROMS AND DEGREES)
   CD    Cent   Atom    N1       Length/X        N2       Alpha/Y        N3        Beta/Z          J
 ---------------------------------------------------------------------------------------------------
      1      1  O 
      2      2  H        1   0.961321(     1)
      3      3  H        1   0.650000(     2)      2  104.108(     3)
 ---------------------------------------------------------------------------------------------------
                         Z-Matrix orientation:                         
 ---------------------------------------------------------------------
 Center     Atomic      Atomic             Coordinates (Angstroms)
 Number     Number       Type             X           Y           Z
 ---------------------------------------------------------------------
      1          8           0        0.000000    0.000000    0.000000
      2          1           0        0.000000    0.000000    0.961321
      3          1           0        0.630395    0.000000   -0.158436
 ---------------------------------------------------------------------
                    Distance matrix (angstroms):
                    1          2          3
     1  O    0.000000
     2  H    0.961321   0.000000
     3  H    0.650000   1.285012   0.000000
 Stoichiometry    H2O
 Framework group  CS[SG(H2O)]
 Deg. of freedom     3
 Full point group                 CS      NOp   2
 RotChk:  IX=0 Diff= 6.45D-02
 Largest Abelian subgroup         CS      NOp   2
 Largest concise Abelian subgroup C1      NOp   1
                         Standard orientation:                         
 ---------------------------------------------------------------------
 Center     Atomic      Atomic             Coordinates (Angstroms)
 Number     Number       Type             X           Y           Z
 ---------------------------------------------------------------------
      1          8           0       -0.000000    0.102079    0.000000
      2          1           0        0.593667   -0.654028    0.000000
      3          1           0       -0.593667   -0.162608    0.000000
 ---------------------------------------------------------------------
 Rotational constants (GHZ):        1402.0439889         290.5361306         240.6647879
 Leave Link  202 at Tue Nov 16 16:10:57 2021, MaxMem= 16106127360 cpu:               0.8 elap:               0.1
 (Enter /sw/contrib/gaussian/g16/B01/g16/l301.exe)
 Standard basis: Aug-CC-pVTZ (5D, 7F)
 Ernie: Thresh=  0.10000D-02 Tol=  0.10000D-05 Strict=F.
 Ernie:  3 primitive shells out of 52 were deleted.
 There are    73 symmetry adapted cartesian basis functions of A'  symmetry.
 There are    32 symmetry adapted cartesian basis functions of A"  symmetry.
 There are    62 symmetry adapted basis functions of A'  symmetry.
 There are    30 symmetry adapted basis functions of A"  symmetry.
    92 basis functions,   126 primitive gaussians,   105 cartesian basis functions
     5 alpha electrons        5 beta electrons
       nuclear repulsion energy        11.3285076805 Hartrees.
 IExCor=    0 DFT=F Ex=HF Corr=None ExCW=0 ScaHFX=  1.000000
 ScaDFX=  1.000000  1.000000  1.000000  1.000000 ScalE2=  1.000000  1.000000
 IRadAn=      5 IRanWt=     -1 IRanGd=            0 ICorTp=0 IEmpDi=  4
 NAtoms=    3 NActive=    3 NUniq=    3 SFac= 1.00D+00 NAtFMM=   60 NAOKFM=F Big=F
 Integral buffers will be    131072 words long.
 Raffenetti 1 integral format.
 Two-electron integral symmetry is turned on.
 Leave Link  301 at Tue Nov 16 16:10:57 2021, MaxMem= 16106127360 cpu:               2.4 elap:               0.1
 (Enter /sw/contrib/gaussian/g16/B01/g16/l302.exe)
 NPDir=0 NMtPBC=     1 NCelOv=     1 NCel=       1 NClECP=     1 NCelD=      1
         NCelK=      1 NCelE2=     1 NClLst=     1 CellRange=     0.0.
 One-electron integrals computed using PRISM.
 One-electron integral symmetry used in STVInt
 NBasis=    92 RedAO= T EigKep=  1.92D-04  NBF=    62    30
 NBsUse=    92 1.00D-06 EigRej= -1.00D+00 NBFU=    62    30
 Leave Link  302 at Tue Nov 16 16:10:58 2021, MaxMem= 16106127360 cpu:               5.1 elap:               0.2
 (Enter /sw/contrib/gaussian/g16/B01/g16/l303.exe)
 DipDrv:  MaxL=1.
 Leave Link  303 at Tue Nov 16 16:10:58 2021, MaxMem= 16106127360 cpu:               1.0 elap:               0.1
 (Enter /sw/contrib/gaussian/g16/B01/g16/l401.exe)
 Initial guess from the checkpoint file:  "/gscratch/ilahie/mccoygrp/coire_hocl/rOH_s_oop_0/hod/hod_rOH_s.chk"
 B after Tr=    -0.000000   -0.000000   -0.000000
         Rot=    0.999694   -0.000000    0.000000   -0.024728 Ang=  -2.83 deg.
 Guess basis will be translated and rotated to current coordinates.
 JPrj=2 DoOrth=T DoCkMO=T.
 Initial guess orbital symmetries:
       Occupied  (A') (A') (A') (A') (A")
       Virtual   (A') (A') (A') (A") (A') (A') (A') (A') (A") (A')
                 (A") (A') (A') (A') (A') (A') (A') (A") (A") (A')
                 (A") (A') (A") (A') (A") (A') (A') (A') (A") (A')
                 (A') (A") (A') (A') (A") (A') (A") (A') (A') (A')
                 (A') (A") (A') (A") (A') (A") (A') (A") (A') (A')
                 (A") (A') (A') (A') (A') (A") (A') (A") (A') (A")
                 (A') (A") (A') (A") (A') (A') (A') (A") (A') (A")
                 (A') (A') (A') (A') (A") (A") (A') (A") (A") (A')
                 (A') (A') (A") (A') (A') (A') (A')
 The electronic state of the initial guess is 1-A'.
 Generating alternative initial guess.
 ExpMin= 2.53D-02 ExpMax= 1.53D+04 ExpMxC= 5.22D+02 IAcc=3 IRadAn=         5 AccDes= 0.00D+00
 Harris functional with IExCor=  205 and IRadAn=       5 diagonalized for initial guess.
 HarFok:  IExCor=  205 AccDes= 0.00D+00 IRadAn=         5 IDoV= 1 UseB2=F ITyADJ=14
 ICtDFT=  3500011 ScaDFX=  1.000000  1.000000  1.000000  1.000000
 FoFCou: FMM=F IPFlag=           0 FMFlag=      100000 FMFlg1=           0
         NFxFlg=           0 DoJE=T BraDBF=F KetDBF=T FulRan=T
         wScrn=  0.000000 ICntrl=       500 IOpCl=  0 I1Cent=   200000004 NGrid=           0
         NMat0=    1 NMatS0=      1 NMatT0=    0 NMatD0=    1 NMtDS0=    0 NMtDT0=    0
 Petite list used in FoFCou.
 Harris En= -75.9957183472418    
 Leave Link  401 at Tue Nov 16 16:10:58 2021, MaxMem= 16106127360 cpu:               7.4 elap:               0.3
 (Enter /sw/contrib/gaussian/g16/B01/g16/l502.exe)
 Keep R1 ints in memory in symmetry-blocked form, NReq=22811880.
 FoFCou: FMM=F IPFlag=           0 FMFlag=           0 FMFlg1=           0
         NFxFlg=           0 DoJE=F BraDBF=F KetDBF=F FulRan=T
         wScrn=  0.000000 ICntrl=       600 IOpCl=  0 I1Cent=           0 NGrid=           0
         NMat0=    1 NMatS0=   4278 NMatT0=    0 NMatD0=    1 NMtDS0=    0 NMtDT0=    0
 Petite list used in FoFCou.
 Closed shell SCF:
 Using DIIS extrapolation, IDIIS=  1040.
 NGot= 16106127360 LenX= 16101436083 LenY= 16101424617
 Requested convergence on RMS density matrix=1.00D-08 within 128 cycles.
 Requested convergence on MAX density matrix=1.00D-06.
 Requested convergence on             energy=1.00D-06.
 No special actions if energy rises.

 Cycle   1  Pass 1  IDiag  1:
 E= -75.8555724085986    
 DIIS: error= 8.19D-03 at cycle   1 NSaved=   1.
 NSaved= 1 IEnMin= 1 EnMin= -75.8555724085986     IErMin= 1 ErrMin= 8.19D-03
 ErrMax= 8.19D-03  0.00D+00 EMaxC= 1.00D-01 BMatC= 7.12D-03 BMatP= 7.12D-03
 IDIUse=3 WtCom= 9.18D-01 WtEn= 8.19D-02
 Coeff-Com:  0.100D+01
 Coeff-En:   0.100D+01
 Coeff:      0.100D+01
 Gap=     0.558 Goal=   None    Shift=    0.000
 GapD=    0.558 DampG=2.000 DampE=1.000 DampFc=2.0000 IDamp=-1.
 RMSDP=9.04D-04 MaxDP=2.66D-02              OVMax= 1.35D-02

 Cycle   2  Pass 1  IDiag  1:
 E= -75.8584818229671     Delta-E=       -0.002909414368 Rises=F Damp=F
 DIIS: error= 1.62D-03 at cycle   2 NSaved=   2.
 NSaved= 2 IEnMin= 2 EnMin= -75.8584818229671     IErMin= 2 ErrMin= 1.62D-03
 ErrMax= 1.62D-03  0.00D+00 EMaxC= 1.00D-01 BMatC= 2.56D-04 BMatP= 7.12D-03
 IDIUse=3 WtCom= 9.84D-01 WtEn= 1.62D-02
 Coeff-Com:  0.257D-01 0.974D+00
 Coeff-En:   0.000D+00 0.100D+01
 Coeff:      0.253D-01 0.975D+00
 Gap=     0.562 Goal=   None    Shift=    0.000
 RMSDP=8.83D-05 MaxDP=1.93D-03 DE=-2.91D-03 OVMax= 4.42D-03

 Cycle   3  Pass 1  IDiag  1:
 E= -75.8586125284327     Delta-E=       -0.000130705466 Rises=F Damp=F
 DIIS: error= 8.62D-04 at cycle   3 NSaved=   3.
 NSaved= 3 IEnMin= 3 EnMin= -75.8586125284327     IErMin= 3 ErrMin= 8.62D-04
 ErrMax= 8.62D-04  0.00D+00 EMaxC= 1.00D-01 BMatC= 4.85D-05 BMatP= 2.56D-04
 IDIUse=3 WtCom= 9.91D-01 WtEn= 8.62D-03
 Coeff-Com: -0.263D-01 0.254D+00 0.773D+00
 Coeff-En:   0.000D+00 0.000D+00 0.100D+01
 Coeff:     -0.260D-01 0.251D+00 0.775D+00
 Gap=     0.557 Goal=   None    Shift=    0.000
 RMSDP=3.22D-05 MaxDP=8.28D-04 DE=-1.31D-04 OVMax= 1.50D-03

 Cycle   4  Pass 1  IDiag  1:
 E= -75.8586409327849     Delta-E=       -0.000028404352 Rises=F Damp=F
 DIIS: error= 1.29D-04 at cycle   4 NSaved=   4.
 NSaved= 4 IEnMin= 4 EnMin= -75.8586409327849     IErMin= 4 ErrMin= 1.29D-04
 ErrMax= 1.29D-04  0.00D+00 EMaxC= 1.00D-01 BMatC= 1.34D-06 BMatP= 4.85D-05
 IDIUse=3 WtCom= 9.99D-01 WtEn= 1.29D-03
 Coeff-Com: -0.221D-02-0.411D-01 0.429D-01 0.100D+01
 Coeff-En:   0.000D+00 0.000D+00 0.000D+00 0.100D+01
 Coeff:     -0.221D-02-0.411D-01 0.428D-01 0.100D+01
 Gap=     0.558 Goal=   None    Shift=    0.000
 RMSDP=8.54D-06 MaxDP=2.50D-04 DE=-2.84D-05 OVMax= 4.72D-04

 Cycle   5  Pass 1  IDiag  1:
 E= -75.8586424555833     Delta-E=       -0.000001522798 Rises=F Damp=F
 DIIS: error= 3.64D-05 at cycle   5 NSaved=   5.
 NSaved= 5 IEnMin= 5 EnMin= -75.8586424555833     IErMin= 5 ErrMin= 3.64D-05
 ErrMax= 3.64D-05  0.00D+00 EMaxC= 1.00D-01 BMatC= 6.40D-08 BMatP= 1.34D-06
 IDIUse=1 WtCom= 1.00D+00 WtEn= 0.00D+00
 Coeff-Com:  0.165D-02-0.974D-02-0.502D-01-0.109D+00 0.117D+01
 Coeff:      0.165D-02-0.974D-02-0.502D-01-0.109D+00 0.117D+01
 Gap=     0.558 Goal=   None    Shift=    0.000
 RMSDP=3.00D-06 MaxDP=6.61D-05 DE=-1.52D-06 OVMax= 1.59D-04

 Cycle   6  Pass 1  IDiag  1:
 E= -75.8586425636500     Delta-E=       -0.000000108067 Rises=F Damp=F
 DIIS: error= 5.39D-06 at cycle   6 NSaved=   6.
 NSaved= 6 IEnMin= 6 EnMin= -75.8586425636500     IErMin= 6 ErrMin= 5.39D-06
 ErrMax= 5.39D-06  0.00D+00 EMaxC= 1.00D-01 BMatC= 1.20D-09 BMatP= 6.40D-08
 IDIUse=1 WtCom= 1.00D+00 WtEn= 0.00D+00
 Coeff-Com: -0.346D-03 0.324D-02 0.105D-01 0.488D-02-0.293D+00 0.127D+01
 Coeff:     -0.346D-03 0.324D-02 0.105D-01 0.488D-02-0.293D+00 0.127D+01
 Gap=     0.558 Goal=   None    Shift=    0.000
 RMSDP=6.04D-07 MaxDP=1.40D-05 DE=-1.08D-07 OVMax= 3.19D-05

 Cycle   7  Pass 1  IDiag  1:
 E= -75.8586425665027     Delta-E=       -0.000000002853 Rises=F Damp=F
 DIIS: error= 7.62D-07 at cycle   7 NSaved=   7.
 NSaved= 7 IEnMin= 7 EnMin= -75.8586425665027     IErMin= 7 ErrMin= 7.62D-07
 ErrMax= 7.62D-07  0.00D+00 EMaxC= 1.00D-01 BMatC= 2.88D-11 BMatP= 1.20D-09
 IDIUse=1 WtCom= 1.00D+00 WtEn= 0.00D+00
 Coeff-Com:  0.341D-04-0.377D-03-0.114D-02-0.995D-04 0.392D-01-0.269D+00
 Coeff-Com:  0.123D+01
 Coeff:      0.341D-04-0.377D-03-0.114D-02-0.995D-04 0.392D-01-0.269D+00
 Coeff:      0.123D+01
 Gap=     0.558 Goal=   None    Shift=    0.000
 RMSDP=7.01D-08 MaxDP=1.45D-06 DE=-2.85D-09 OVMax= 4.77D-06

 Cycle   8  Pass 1  IDiag  1:
 E= -75.8586425665648     Delta-E=       -0.000000000062 Rises=F Damp=F
 DIIS: error= 1.45D-07 at cycle   8 NSaved=   8.
 NSaved= 8 IEnMin= 8 EnMin= -75.8586425665648     IErMin= 8 ErrMin= 1.45D-07
 ErrMax= 1.45D-07  0.00D+00 EMaxC= 1.00D-01 BMatC= 1.04D-12 BMatP= 2.88D-11
 IDIUse=1 WtCom= 1.00D+00 WtEn= 0.00D+00
 Coeff-Com:  0.111D-04-0.966D-04-0.332D-03-0.259D-03 0.907D-02-0.292D-01
 Coeff-Com: -0.118D+00 0.114D+01
 Coeff:      0.111D-04-0.966D-04-0.332D-03-0.259D-03 0.907D-02-0.292D-01
 Coeff:     -0.118D+00 0.114D+01
 Gap=     0.558 Goal=   None    Shift=    0.000
 RMSDP=1.42D-08 MaxDP=2.22D-07 DE=-6.21D-11 OVMax= 8.44D-07

 Cycle   9  Pass 1  IDiag  1:
 E= -75.8586425665672     Delta-E=       -0.000000000002 Rises=F Damp=F
 DIIS: error= 2.49D-08 at cycle   9 NSaved=   9.
 NSaved= 9 IEnMin= 9 EnMin= -75.8586425665672     IErMin= 9 ErrMin= 2.49D-08
 ErrMax= 2.49D-08  0.00D+00 EMaxC= 1.00D-01 BMatC= 3.73D-14 BMatP= 1.04D-12
 IDIUse=1 WtCom= 1.00D+00 WtEn= 0.00D+00
 Coeff-Com: -0.328D-05 0.300D-04 0.108D-03 0.801D-04-0.317D-02 0.158D-01
 Coeff-Com: -0.283D-01-0.179D+00 0.119D+01
 Coeff:     -0.328D-05 0.300D-04 0.108D-03 0.801D-04-0.317D-02 0.158D-01
 Coeff:     -0.283D-01-0.179D+00 0.119D+01
 Gap=     0.558 Goal=   None    Shift=    0.000
 RMSDP=4.48D-09 MaxDP=1.22D-07 DE=-2.36D-12 OVMax= 1.65D-07

 SCF Done:  E(RHF) =  -75.8586425666     A.U. after    9 cycles
            NFock=  9  Conv=0.45D-08     -V/T= 1.9842
 KE= 7.707450625574D+01 PE=-2.035323663637D+02 EE= 3.927070986096D+01
 Leave Link  502 at Tue Nov 16 16:10:58 2021, MaxMem= 16106127360 cpu:               9.8 elap:               0.4
 (Enter /sw/contrib/gaussian/g16/B01/g16/l801.exe)
 ExpMin= 2.53D-02 ExpMax= 1.53D+04 ExpMxC= 5.22D+02 IAcc=3 IRadAn=         5 AccDes= 0.00D+00
 HarFok:  IExCor=  205 AccDes= 0.00D+00 IRadAn=         5 IDoV=-2 UseB2=F ITyADJ=14
 ICtDFT= 12500011 ScaDFX=  1.000000  1.000000  1.000000  1.000000
 Largest valence mixing into a core orbital is  9.76D-05
 Largest core mixing into a valence orbital is  1.05D-05
 Range of M.O.s used for correlation:     2    92
 NBasis=    92 NAE=     5 NBE=     5 NFC=     1 NFV=     0
 NROrb=     91 NOA=     4 NOB=     4 NVA=    87 NVB=    87

 **** Warning!!: The largest alpha MO coefficient is  0.21090926D+02

 Leave Link  801 at Tue Nov 16 16:10:58 2021, MaxMem= 16106127360 cpu:               1.4 elap:               0.1
 (Enter /sw/contrib/gaussian/g16/B01/g16/l906.exe)
 Frozen-core derivative calculation, NFC=   1 NFV=   0.
 FulOut=F Deriv=T AODrv=T NAtomX=     3
   MMem=         945  MDisk=           4 MDiskD=           4
  W3Min=       48300 MinDsk=      199415 NBas6D=         105
 NBas2D=        5790    NTT=        5565    LW2=     3500000
    MDV= 16106011982 MDiskM=      766857 NBas2p=        5790
 Fully direct method using O(ONN) memory.
 IMap=   1   2   3   4   5
 JobTyp=1 Pass  1:  I=   2 to   5 NPSUse= 28 ParTrn=T ParDer=T DoDerP=T.
 Spin components of T(2) and E(2):
     alpha-alpha T2 =       0.6937978758D-02 E2=     -0.3119650671D-01
     alpha-beta  T2 =       0.4037877083D-01 E2=     -0.1950729044D+00
     beta-beta   T2 =       0.6937978758D-02 E2=     -0.3119650671D-01
 The integrals were generated   1 times.
 ANorm=    0.1026769073D+01
 E2 =    -0.2574659178D+00 EUMP2 =    -0.76116108484379D+02
 Leave Link  906 at Tue Nov 16 16:10:59 2021, MaxMem= 16106127360 cpu:              25.4 elap:               0.9
 (Enter /sw/contrib/gaussian/g16/B01/g16/l1002.exe)
 Minotr:  Closed shell wavefunction.
          Computing MP2/KS-MP2 derivatives.
          Using Z-Vector for PSCF gradient.
          Skipping F1 and S1 gradient terms here.
          IDoAtm=111
          Frozen-core window.
          Direct CPHF calculation.
          Differentiating once with respect to electric field.
                with respect to dipole field.
          Differentiating once with respect to nuclear coordinates.
          Using symmetry in CPHF.
          Requested convergence is 1.0D-10 RMS, and 1.0D-09 maximum.
          NewPWx=F KeepS1=T KeepF1=T KeepIn=T MapXYZ=F SortEE=F KeepMc=T.
 Keep R1 ints in memory in symmetry-blocked form, NReq=22812658.
 FoFCou: FMM=F IPFlag=           0 FMFlag=           0 FMFlg1=           0
         NFxFlg=           0 DoJE=F BraDBF=F KetDBF=F FulRan=T
         wScrn=  0.000000 ICntrl=       600 IOpCl=  0 I1Cent=           0 NGrid=           0
         NMat0=    1 NMatS0=   4278 NMatT0=    0 NMatD0=    1 NMtDS0=    0 NMtDT0=    0
 Petite list used in FoFCou.
          MDV=   16106127360 using IRadAn=       5.
          Solving linear equations separately, MaxMat=       0.
          There are     1 degrees of freedom in the 1st order CPHF.  IDoFFX=0 NUNeed=     1.
 LinEq1:  Iter=  0 NonCon=     1 RMS=3.83D-03 Max=3.62D-02 NDo=     1
 AX will form     1 AO Fock derivatives at one time.
 LinEq1:  Iter=  1 NonCon=     1 RMS=4.72D-04 Max=3.03D-03 NDo=     1
 LinEq1:  Iter=  2 NonCon=     1 RMS=1.27D-04 Max=6.65D-04 NDo=     1
 LinEq1:  Iter=  3 NonCon=     1 RMS=4.13D-05 Max=3.06D-04 NDo=     1
 LinEq1:  Iter=  4 NonCon=     1 RMS=7.44D-06 Max=4.76D-05 NDo=     1
 LinEq1:  Iter=  5 NonCon=     1 RMS=1.41D-06 Max=7.05D-06 NDo=     1
 LinEq1:  Iter=  6 NonCon=     1 RMS=1.80D-07 Max=9.49D-07 NDo=     1
 LinEq1:  Iter=  7 NonCon=     1 RMS=1.79D-08 Max=1.11D-07 NDo=     1
 LinEq1:  Iter=  8 NonCon=     1 RMS=3.11D-09 Max=2.16D-08 NDo=     1
 LinEq1:  Iter=  9 NonCon=     1 RMS=5.18D-10 Max=3.04D-09 NDo=     1
 LinEq1:  Iter= 10 NonCon=     0 RMS=6.43D-11 Max=3.60D-10 NDo=     1
 Linear equations converged to 1.000D-10 1.000D-09 after    10 iterations.
 End of Minotr F.D. properties file   721 does not exist.
 End of Minotr F.D. properties file   722 does not exist.
 End of Minotr F.D. properties file   788 does not exist.
 Leave Link 1002 at Tue Nov 16 16:11:00 2021, MaxMem= 16106127360 cpu:              13.7 elap:               0.5
 (Enter /sw/contrib/gaussian/g16/B01/g16/l701.exe)
 ... and contract with generalized density number  2.
 Compute integral first derivatives.
 Leave Link  701 at Tue Nov 16 16:11:00 2021, MaxMem= 16106127360 cpu:               3.9 elap:               0.2
 (Enter /sw/contrib/gaussian/g16/B01/g16/l702.exe)
 L702 exits ... SP integral derivatives will be done elsewhere.
 Leave Link  702 at Tue Nov 16 16:11:00 2021, MaxMem= 16106127360 cpu:               0.5 elap:               0.0
 (Enter /sw/contrib/gaussian/g16/B01/g16/l703.exe)
 Integral derivatives from FoFJK, PRISM(SPDF).
 Compute integral first derivatives, UseDBF=F ICtDFT=           0.
 Calling FoFJK, ICntrl=  10002127 FMM=F ISym2X=1 I1Cent= 0 IOpClX= 0 NMat=1 NMatS=1 NMatT=0.
 FoFJK:  IHMeth= 1 ICntrl=10002127 DoSepK=F KAlg= 0 I1Cent=           0 FoldK=F
 IRaf=         0 NMat=       1 IRICut=       1 DoRegI=T DoRafI=F ISym2E= 1 IDoP0=0 IntGTp=1.
 FoFCou: FMM=F IPFlag=           0 FMFlag=      100000 FMFlg1=         800
         NFxFlg=           0 DoJE=F BraDBF=F KetDBF=F FulRan=T
         wScrn=  0.000000 ICntrl=  10002127 IOpCl=  0 I1Cent=           0 NGrid=           0
         NMat0=    1 NMatS0=      1 NMatT0=    0 NMatD0=    1 NMtDS0=    0 NMtDT0=    0
 Petite list used in FoFCou.
 Leave Link  703 at Tue Nov 16 16:11:01 2021, MaxMem= 16106127360 cpu:              11.4 elap:               0.4
 (Enter /sw/contrib/gaussian/g16/B01/g16/l716.exe)
 Dipole        =-6.39425203D-02-7.10708214D-01 1.41054066D-33
 ***** Axes restored to original set *****
 -------------------------------------------------------------------
 Center     Atomic                   Forces (Hartrees/Bohr)
 Number     Number              X              Y              Z
 -------------------------------------------------------------------
      1        8          -1.022370498   -0.000000000    0.280290003
      2        1          -0.010159478   -0.000000000   -0.005292918
      3        1           1.032529976    0.000000000   -0.274997085
 -------------------------------------------------------------------
 Cartesian Forces:  Max     1.032529976 RMS     0.501738832
 -----------------------------------------------------------------------------------------------
                       Internal Coordinate Forces (Hartree/Bohr or radian)
  Cent   Atom   N1       Length/X         N2         Alpha/Y        N3         Beta/Z          J
 -----------------------------------------------------------------------------------------------
      1  O 
      2  H        1  -0.005293(     1)
      3  H        1   1.068417(     2)      2   0.018456(     3)
 -----------------------------------------------------------------------------------------------
 Internal  Forces:  Max     1.068417421 RMS     0.616950680
 Leave Link  716 at Tue Nov 16 16:11:01 2021, MaxMem= 16106127360 cpu:               0.7 elap:               0.1
 (Enter /sw/contrib/gaussian/g16/B01/g16/l103.exe)

 GradGradGradGradGradGradGradGradGradGradGradGradGradGradGradGradGradGrad
 Berny optimization.
 Search for a local minimum.
 Step number   1 out of a maximum of   20 on scan point     2 out of    29
 All quantities printed in internal units (Hartrees-Bohrs-Radians)
 Second derivative matrix not updated -- first step.
 The second derivative matrix:
                          rOD       rOH      aHOCl
           rOD          0.55190
           rOH         -0.00000   3.62830
           aHOCl        0.00000   0.00000   0.16000
 ITU=  0
     Eigenvalues --- 1000.000001000.000001000.00000
 RFO step:  Lambda= 0.00000000D+00 EMin= 1.00000000D+03
 Linear search not attempted -- first point.
 Variable       Old X    -DE/DX   Delta X   Delta X   Delta X     New X
                                 (Linear)    (Quad)   (Total)
   rOD        1.81663  -0.00529   0.00000   0.00000   0.00000   1.81663
   rOH        1.22832   1.06842   0.00000   0.00000   0.00000   1.22832
  aHOCl       1.81703   0.01846   0.00000   0.00000   0.00000   1.81703
         Item               Value     Threshold  Converged?
 Maximum Force            0.000000     0.000450     YES
 RMS     Force            0.000000     0.000300     YES
 Maximum Displacement     0.000000     0.001800     YES
 RMS     Displacement     0.000000     0.001200     YES
 Predicted change in Energy=-0.000000D+00
 Optimization completed.
    -- Stationary point found.
                       ----------------------------
                       !   Optimized Parameters   !
                       ! (Angstroms and Degrees)  !
 ----------------------                            ----------------------
 !      Name          Value   Derivative information (Atomic Units)     !
 ------------------------------------------------------------------------
 !       rOD         0.9613   -DE/DX =   -0.0053                        !
 !       rOH         0.65     -DE/DX =    1.0684                        !
 !      aHOCl      104.1079   -DE/DX =    0.0185                        !
 ------------------------------------------------------------------------
 Lowest energy point so far.  Saving SCF results.
 GradGradGradGradGradGradGradGradGradGradGradGradGradGradGradGradGradGrad

 Leave Link  103 at Tue Nov 16 16:11:01 2021, MaxMem= 16106127360 cpu:               0.6 elap:               0.0
 (Enter /sw/contrib/gaussian/g16/B01/g16/l202.exe)
 ---------------------------------------------------------------------------------------------------
                            Z-MATRIX (ANGSTROMS AND DEGREES)
   CD    Cent   Atom    N1       Length/X        N2       Alpha/Y        N3        Beta/Z          J
 ---------------------------------------------------------------------------------------------------
      1      1  O 
      2      2  H        1   0.961321(     1)
      3      3  H        1   0.700000(     2)      2  104.108(     3)
 ---------------------------------------------------------------------------------------------------
                         Z-Matrix orientation:                         
 ---------------------------------------------------------------------
 Center     Atomic      Atomic             Coordinates (Angstroms)
 Number     Number       Type             X           Y           Z
 ---------------------------------------------------------------------
      1          8           0        0.000000    0.000000    0.000000
      2          1           0        0.000000    0.000000    0.961321
      3          1           0        0.678887    0.000000   -0.170624
 ---------------------------------------------------------------------
                    Distance matrix (angstroms):
                    1          2          3
     1  O    0.000000
     2  H    0.961321   0.000000
     3  H    0.700000   1.319919   0.000000
 Stoichiometry    H2O
 Framework group  CS[SG(H2O)]
 Deg. of freedom     3
 Full point group                 CS      NOp   2
 RotChk:  IX=0 Diff= 6.20D-02
 Largest Abelian subgroup         CS      NOp   2
 Largest concise Abelian subgroup C1      NOp   1
                         Standard orientation:                         
 ---------------------------------------------------------------------
 Center     Atomic      Atomic             Coordinates (Angstroms)
 Number     Number       Type             X           Y           Z
 ---------------------------------------------------------------------
      1          8           0        0.000000    0.104216   -0.000000
      2          1           0        0.626229   -0.625151    0.000000
      3          1           0       -0.626229   -0.208574    0.000000
 ---------------------------------------------------------------------
 Rotational constants (GHZ):        1217.4274451         288.5023355         233.2317653
 Leave Link  202 at Tue Nov 16 16:11:01 2021, MaxMem= 16106127360 cpu:               0.5 elap:               0.0
 (Enter /sw/contrib/gaussian/g16/B01/g16/l301.exe)
 Standard basis: Aug-CC-pVTZ (5D, 7F)
 Ernie: Thresh=  0.10000D-02 Tol=  0.10000D-05 Strict=F.
 Ernie:  3 primitive shells out of 52 were deleted.
 There are    73 symmetry adapted cartesian basis functions of A'  symmetry.
 There are    32 symmetry adapted cartesian basis functions of A"  symmetry.
 There are    62 symmetry adapted basis functions of A'  symmetry.
 There are    30 symmetry adapted basis functions of A"  symmetry.
    92 basis functions,   126 primitive gaussians,   105 cartesian basis functions
     5 alpha electrons        5 beta electrons
       nuclear repulsion energy        10.8524059523 Hartrees.
 IExCor=    0 DFT=F Ex=HF Corr=None ExCW=0 ScaHFX=  1.000000
 ScaDFX=  1.000000  1.000000  1.000000  1.000000 ScalE2=  1.000000  1.000000
 IRadAn=      5 IRanWt=     -1 IRanGd=            0 ICorTp=0 IEmpDi=  4
 NAtoms=    3 NActive=    3 NUniq=    3 SFac= 1.00D+00 NAtFMM=   60 NAOKFM=F Big=F
 Integral buffers will be    131072 words long.
 Raffenetti 1 integral format.
 Two-electron integral symmetry is turned on.
 Leave Link  301 at Tue Nov 16 16:11:01 2021, MaxMem= 16106127360 cpu:               2.1 elap:               0.1
 (Enter /sw/contrib/gaussian/g16/B01/g16/l302.exe)
 NPDir=0 NMtPBC=     1 NCelOv=     1 NCel=       1 NClECP=     1 NCelD=      1
         NCelK=      1 NCelE2=     1 NClLst=     1 CellRange=     0.0.
 One-electron integrals computed using PRISM.
 One-electron integral symmetry used in STVInt
 NBasis=    92 RedAO= T EigKep=  2.10D-04  NBF=    62    30
 NBsUse=    92 1.00D-06 EigRej= -1.00D+00 NBFU=    62    30
 Leave Link  302 at Tue Nov 16 16:11:01 2021, MaxMem= 16106127360 cpu:               4.4 elap:               0.2
 (Enter /sw/contrib/gaussian/g16/B01/g16/l303.exe)
 DipDrv:  MaxL=1.
 Leave Link  303 at Tue Nov 16 16:11:01 2021, MaxMem= 16106127360 cpu:               0.5 elap:               0.0
 (Enter /sw/contrib/gaussian/g16/B01/g16/l401.exe)
 Initial guess from the checkpoint file:  "/gscratch/ilahie/mccoygrp/coire_hocl/rOH_s_oop_0/hod/hod_rOH_s.chk"
 B after Tr=     0.000000    0.000000   -0.000000
         Rot=    0.999718   -0.000000   -0.000000   -0.023746 Ang=  -2.72 deg.
 Guess basis will be translated and rotated to current coordinates.
 JPrj=2 DoOrth=T DoCkMO=T.
 Initial guess orbital symmetries:
       Occupied  (A') (A') (A') (A') (A")
       Virtual   (A') (A') (A') (A") (A') (A') (A') (A') (A") (A")
                 (A') (A') (A') (A') (A') (A') (A') (A") (A") (A')
                 (A") (A') (A") (A') (A") (A') (A') (A') (A") (A')
                 (A') (A") (A') (A') (A") (A') (A") (A') (A') (A')
                 (A") (A') (A') (A") (A') (A') (A") (A") (A') (A')
                 (A") (A') (A') (A') (A') (A") (A') (A") (A') (A")
                 (A') (A") (A') (A") (A') (A') (A') (A") (A') (A")
                 (A') (A') (A') (A') (A") (A") (A') (A") (A") (A')
                 (A') (A') (A") (A') (A') (A') (A')
 The electronic state of the initial guess is 1-A'.
 Generating alternative initial guess.
 ExpMin= 2.53D-02 ExpMax= 1.53D+04 ExpMxC= 5.22D+02 IAcc=3 IRadAn=         5 AccDes= 0.00D+00
 Harris functional with IExCor=  205 and IRadAn=       5 diagonalized for initial guess.
 HarFok:  IExCor=  205 AccDes= 0.00D+00 IRadAn=         5 IDoV= 1 UseB2=F ITyADJ=14
 ICtDFT=  3500011 ScaDFX=  1.000000  1.000000  1.000000  1.000000
 FoFCou: FMM=F IPFlag=           0 FMFlag=      100000 FMFlg1=           0
         NFxFlg=           0 DoJE=T BraDBF=F KetDBF=T FulRan=T
         wScrn=  0.000000 ICntrl=       500 IOpCl=  0 I1Cent=   200000004 NGrid=           0
         NMat0=    1 NMatS0=      1 NMatT0=    0 NMatD0=    1 NMtDS0=    0 NMtDT0=    0
 Petite list used in FoFCou.
 Harris En= -76.0613128420345    
 Leave Link  401 at Tue Nov 16 16:11:01 2021, MaxMem= 16106127360 cpu:               7.3 elap:               0.3
 (Enter /sw/contrib/gaussian/g16/B01/g16/l502.exe)
 Keep R1 ints in memory in symmetry-blocked form, NReq=22811880.
 FoFCou: FMM=F IPFlag=           0 FMFlag=           0 FMFlg1=           0
         NFxFlg=           0 DoJE=F BraDBF=F KetDBF=F FulRan=T
         wScrn=  0.000000 ICntrl=       600 IOpCl=  0 I1Cent=           0 NGrid=           0
         NMat0=    1 NMatS0=   4278 NMatT0=    0 NMatD0=    1 NMtDS0=    0 NMtDT0=    0
 Petite list used in FoFCou.
 Closed shell SCF:
 Using DIIS extrapolation, IDIIS=  1040.
 NGot= 16106127360 LenX= 16101436083 LenY= 16101424617
 Requested convergence on RMS density matrix=1.00D-08 within 128 cycles.
 Requested convergence on MAX density matrix=1.00D-06.
 Requested convergence on             energy=1.00D-06.
 No special actions if energy rises.

 Cycle   1  Pass 1  IDiag  1:
 E= -75.9383393769441    
 DIIS: error= 9.30D-03 at cycle   1 NSaved=   1.
 NSaved= 1 IEnMin= 1 EnMin= -75.9383393769441     IErMin= 1 ErrMin= 9.30D-03
 ErrMax= 9.30D-03  0.00D+00 EMaxC= 1.00D-01 BMatC= 5.32D-03 BMatP= 5.32D-03
 IDIUse=3 WtCom= 9.07D-01 WtEn= 9.30D-02
 Coeff-Com:  0.100D+01
 Coeff-En:   0.100D+01
 Coeff:      0.100D+01
 Gap=     0.556 Goal=   None    Shift=    0.000
 GapD=    0.556 DampG=2.000 DampE=1.000 DampFc=2.0000 IDamp=-1.
 RMSDP=6.79D-04 MaxDP=1.96D-02              OVMax= 1.25D-02

 Cycle   2  Pass 1  IDiag  1:
 E= -75.9406368077145     Delta-E=       -0.002297430770 Rises=F Damp=F
 DIIS: error= 1.26D-03 at cycle   2 NSaved=   2.
 NSaved= 2 IEnMin= 2 EnMin= -75.9406368077145     IErMin= 2 ErrMin= 1.26D-03
 ErrMax= 1.26D-03  0.00D+00 EMaxC= 1.00D-01 BMatC= 1.71D-04 BMatP= 5.32D-03
 IDIUse=3 WtCom= 9.87D-01 WtEn= 1.26D-02
 Coeff-Com:  0.119D-01 0.988D+00
 Coeff-En:   0.000D+00 0.100D+01
 Coeff:      0.118D-01 0.988D+00
 Gap=     0.558 Goal=   None    Shift=    0.000
 RMSDP=7.34D-05 MaxDP=1.64D-03 DE=-2.30D-03 OVMax= 3.49D-03

 Cycle   3  Pass 1  IDiag  1:
 E= -75.9407287245393     Delta-E=       -0.000091916825 Rises=F Damp=F
 DIIS: error= 7.55D-04 at cycle   3 NSaved=   3.
 NSaved= 3 IEnMin= 3 EnMin= -75.9407287245393     IErMin= 3 ErrMin= 7.55D-04
 ErrMax= 7.55D-04  0.00D+00 EMaxC= 1.00D-01 BMatC= 3.12D-05 BMatP= 1.71D-04
 IDIUse=3 WtCom= 9.92D-01 WtEn= 7.55D-03
 Coeff-Com: -0.255D-01 0.246D+00 0.779D+00
 Coeff-En:   0.000D+00 0.000D+00 0.100D+01
 Coeff:     -0.253D-01 0.245D+00 0.781D+00
 Gap=     0.554 Goal=   None    Shift=    0.000
 RMSDP=2.60D-05 MaxDP=5.82D-04 DE=-9.19D-05 OVMax= 1.28D-03

 Cycle   4  Pass 1  IDiag  1:
 E= -75.9407477763970     Delta-E=       -0.000019051858 Rises=F Damp=F
 DIIS: error= 1.21D-04 at cycle   4 NSaved=   4.
 NSaved= 4 IEnMin= 4 EnMin= -75.9407477763970     IErMin= 4 ErrMin= 1.21D-04
 ErrMax= 1.21D-04  0.00D+00 EMaxC= 1.00D-01 BMatC= 1.21D-06 BMatP= 3.12D-05
 IDIUse=3 WtCom= 9.99D-01 WtEn= 1.21D-03
 Coeff-Com: -0.231D-02-0.430D-01 0.692D-01 0.976D+00
 Coeff-En:   0.000D+00 0.000D+00 0.000D+00 0.100D+01
 Coeff:     -0.231D-02-0.429D-01 0.692D-01 0.976D+00
 Gap=     0.554 Goal=   None    Shift=    0.000
 RMSDP=8.01D-06 MaxDP=2.26D-04 DE=-1.91D-05 OVMax= 4.49D-04

 Cycle   5  Pass 1  IDiag  1:
 E= -75.9407491097516     Delta-E=       -0.000001333355 Rises=F Damp=F
 DIIS: error= 3.45D-05 at cycle   5 NSaved=   5.
 NSaved= 5 IEnMin= 5 EnMin= -75.9407491097516     IErMin= 5 ErrMin= 3.45D-05
 ErrMax= 3.45D-05  0.00D+00 EMaxC= 1.00D-01 BMatC= 5.55D-08 BMatP= 1.21D-06
 IDIUse=1 WtCom= 1.00D+00 WtEn= 0.00D+00
 Coeff-Com:  0.176D-02-0.111D-01-0.567D-01-0.100D+00 0.117D+01
 Coeff:      0.176D-02-0.111D-01-0.567D-01-0.100D+00 0.117D+01
 Gap=     0.554 Goal=   None    Shift=    0.000
 RMSDP=2.84D-06 MaxDP=6.19D-05 DE=-1.33D-06 OVMax= 1.55D-04

 Cycle   6  Pass 1  IDiag  1:
 E= -75.9407492076714     Delta-E=       -0.000000097920 Rises=F Damp=F
 DIIS: error= 4.76D-06 at cycle   6 NSaved=   6.
 NSaved= 6 IEnMin= 6 EnMin= -75.9407492076714     IErMin= 6 ErrMin= 4.76D-06
 ErrMax= 4.76D-06  0.00D+00 EMaxC= 1.00D-01 BMatC= 1.11D-09 BMatP= 5.55D-08
 IDIUse=1 WtCom= 1.00D+00 WtEn= 0.00D+00
 Coeff-Com: -0.376D-03 0.354D-02 0.120D-01 0.536D-02-0.305D+00 0.128D+01
 Coeff:     -0.376D-03 0.354D-02 0.120D-01 0.536D-02-0.305D+00 0.128D+01
 Gap=     0.554 Goal=   None    Shift=    0.000
 RMSDP=5.75D-07 MaxDP=1.32D-05 DE=-9.79D-08 OVMax= 3.18D-05

 Cycle   7  Pass 1  IDiag  1:
 E= -75.9407492104161     Delta-E=       -0.000000002745 Rises=F Damp=F
 DIIS: error= 7.81D-07 at cycle   7 NSaved=   7.
 NSaved= 7 IEnMin= 7 EnMin= -75.9407492104161     IErMin= 7 ErrMin= 7.81D-07
 ErrMax= 7.81D-07  0.00D+00 EMaxC= 1.00D-01 BMatC= 3.09D-11 BMatP= 1.11D-09
 IDIUse=1 WtCom= 1.00D+00 WtEn= 0.00D+00
 Coeff-Com:  0.363D-04-0.417D-03-0.127D-02 0.335D-04 0.411D-01-0.286D+00
 Coeff-Com:  0.125D+01
 Coeff:      0.363D-04-0.417D-03-0.127D-02 0.335D-04 0.411D-01-0.286D+00
 Coeff:      0.125D+01
 Gap=     0.554 Goal=   None    Shift=    0.000
 RMSDP=7.10D-08 MaxDP=1.38D-06 DE=-2.74D-09 OVMax= 5.14D-06

 Cycle   8  Pass 1  IDiag  1:
 E= -75.9407492104862     Delta-E=       -0.000000000070 Rises=F Damp=F
 DIIS: error= 1.37D-07 at cycle   8 NSaved=   8.
 NSaved= 8 IEnMin= 8 EnMin= -75.9407492104862     IErMin= 8 ErrMin= 1.37D-07
 ErrMax= 1.37D-07  0.00D+00 EMaxC= 1.00D-01 BMatC= 1.14D-12 BMatP= 3.09D-11
 IDIUse=1 WtCom= 1.00D+00 WtEn= 0.00D+00
 Coeff-Com:  0.128D-04-0.113D-03-0.397D-03-0.289D-03 0.982D-02-0.295D-01
 Coeff-Com: -0.122D+00 0.114D+01
 Coeff:      0.128D-04-0.113D-03-0.397D-03-0.289D-03 0.982D-02-0.295D-01
 Coeff:     -0.122D+00 0.114D+01
 Gap=     0.554 Goal=   None    Shift=    0.000
 RMSDP=1.61D-08 MaxDP=2.61D-07 DE=-7.01D-11 OVMax= 9.18D-07

 Cycle   9  Pass 1  IDiag  1:
 E= -75.9407492104886     Delta-E=       -0.000000000002 Rises=F Damp=F
 DIIS: error= 2.71D-08 at cycle   9 NSaved=   9.
 NSaved= 9 IEnMin= 9 EnMin= -75.9407492104886     IErMin= 9 ErrMin= 2.71D-08
 ErrMax= 2.71D-08  0.00D+00 EMaxC= 1.00D-01 BMatC= 4.51D-14 BMatP= 1.14D-12
 IDIUse=1 WtCom= 1.00D+00 WtEn= 0.00D+00
 Coeff-Com: -0.393D-05 0.362D-04 0.136D-03 0.921D-04-0.362D-02 0.174D-01
 Coeff-Com: -0.272D-01-0.203D+00 0.122D+01
 Coeff:     -0.393D-05 0.362D-04 0.136D-03 0.921D-04-0.362D-02 0.174D-01
 Coeff:     -0.272D-01-0.203D+00 0.122D+01
 Gap=     0.554 Goal=   None    Shift=    0.000
 RMSDP=4.89D-09 MaxDP=1.23D-07 DE=-2.39D-12 OVMax= 1.88D-07

 SCF Done:  E(RHF) =  -75.9407492105     A.U. after    9 cycles
            NFock=  9  Conv=0.49D-08     -V/T= 1.9888
 KE= 7.679717535003D+01 PE=-2.025547476915D+02 EE= 3.896441717875D+01
 Leave Link  502 at Tue Nov 16 16:11:02 2021, MaxMem= 16106127360 cpu:              23.6 elap:               0.9
 (Enter /sw/contrib/gaussian/g16/B01/g16/l801.exe)
 ExpMin= 2.53D-02 ExpMax= 1.53D+04 ExpMxC= 5.22D+02 IAcc=3 IRadAn=         5 AccDes= 0.00D+00
 HarFok:  IExCor=  205 AccDes= 0.00D+00 IRadAn=         5 IDoV=-2 UseB2=F ITyADJ=14
 ICtDFT= 12500011 ScaDFX=  1.000000  1.000000  1.000000  1.000000
 Largest valence mixing into a core orbital is  1.01D-04
 Largest core mixing into a valence orbital is  1.20D-05
 Range of M.O.s used for correlation:     2    92
 NBasis=    92 NAE=     5 NBE=     5 NFC=     1 NFV=     0
 NROrb=     91 NOA=     4 NOB=     4 NVA=    87 NVB=    87

 **** Warning!!: The largest alpha MO coefficient is  0.20057171D+02

 Leave Link  801 at Tue Nov 16 16:11:02 2021, MaxMem= 16106127360 cpu:               1.4 elap:               0.1
 (Enter /sw/contrib/gaussian/g16/B01/g16/l906.exe)
 Frozen-core derivative calculation, NFC=   1 NFV=   0.
 FulOut=F Deriv=T AODrv=T NAtomX=     3
   MMem=         945  MDisk=           4 MDiskD=           4
  W3Min=       48300 MinDsk=      199415 NBas6D=         105
 NBas2D=        5790    NTT=        5565    LW2=     3500000
    MDV= 16106011996 MDiskM=      766857 NBas2p=        5790
 Fully direct method using O(ONN) memory.
 IMap=   1   2   3   4   5
 JobTyp=1 Pass  1:  I=   2 to   5 NPSUse= 28 ParTrn=T ParDer=T DoDerP=T.
 Spin components of T(2) and E(2):
     alpha-alpha T2 =       0.7113801533D-02 E2=     -0.3139808496D-01
     alpha-beta  T2 =       0.4129939693D-01 E2=     -0.1962073182D+00
     beta-beta   T2 =       0.7113801533D-02 E2=     -0.3139808496D-01
 The integrals were generated   1 times.
 ANorm=    0.1027388437D+01
 E2 =    -0.2590034881D+00 EUMP2 =    -0.76199752698619D+02
 Leave Link  906 at Tue Nov 16 16:11:04 2021, MaxMem= 16106127360 cpu:              30.2 elap:               1.1
 (Enter /sw/contrib/gaussian/g16/B01/g16/l1002.exe)
 Minotr:  Closed shell wavefunction.
          Computing MP2/KS-MP2 derivatives.
          Using Z-Vector for PSCF gradient.
          Skipping F1 and S1 gradient terms here.
          IDoAtm=111
          Frozen-core window.
          Direct CPHF calculation.
          Differentiating once with respect to electric field.
                with respect to dipole field.
          Differentiating once with respect to nuclear coordinates.
          Using symmetry in CPHF.
          Requested convergence is 1.0D-10 RMS, and 1.0D-09 maximum.
          NewPWx=F KeepS1=T KeepF1=T KeepIn=T MapXYZ=F SortEE=F KeepMc=T.
 Keep R1 ints in memory in symmetry-blocked form, NReq=22812658.
 FoFCou: FMM=F IPFlag=           0 FMFlag=           0 FMFlg1=           0
         NFxFlg=           0 DoJE=F BraDBF=F KetDBF=F FulRan=T
         wScrn=  0.000000 ICntrl=       600 IOpCl=  0 I1Cent=           0 NGrid=           0
         NMat0=    1 NMatS0=   4278 NMatT0=    0 NMatD0=    1 NMtDS0=    0 NMtDT0=    0
 Petite list used in FoFCou.
          MDV=   16106127360 using IRadAn=       5.
          Solving linear equations separately, MaxMat=       0.
          There are     1 degrees of freedom in the 1st order CPHF.  IDoFFX=0 NUNeed=     1.
 LinEq1:  Iter=  0 NonCon=     1 RMS=3.91D-03 Max=3.77D-02 NDo=     1
 AX will form     1 AO Fock derivatives at one time.
 LinEq1:  Iter=  1 NonCon=     1 RMS=4.84D-04 Max=3.09D-03 NDo=     1
 LinEq1:  Iter=  2 NonCon=     1 RMS=1.43D-04 Max=7.74D-04 NDo=     1
 LinEq1:  Iter=  3 NonCon=     1 RMS=4.38D-05 Max=3.04D-04 NDo=     1
 LinEq1:  Iter=  4 NonCon=     1 RMS=7.53D-06 Max=4.80D-05 NDo=     1
 LinEq1:  Iter=  5 NonCon=     1 RMS=1.43D-06 Max=7.44D-06 NDo=     1
 LinEq1:  Iter=  6 NonCon=     1 RMS=1.88D-07 Max=9.83D-07 NDo=     1
 LinEq1:  Iter=  7 NonCon=     1 RMS=2.00D-08 Max=1.28D-07 NDo=     1
 LinEq1:  Iter=  8 NonCon=     1 RMS=3.78D-09 Max=2.74D-08 NDo=     1
 LinEq1:  Iter=  9 NonCon=     1 RMS=5.93D-10 Max=3.79D-09 NDo=     1
 LinEq1:  Iter= 10 NonCon=     0 RMS=6.61D-11 Max=3.74D-10 NDo=     1
 Linear equations converged to 1.000D-10 1.000D-09 after    10 iterations.
 End of Minotr F.D. properties file   721 does not exist.
 End of Minotr F.D. properties file   722 does not exist.
 End of Minotr F.D. properties file   788 does not exist.
 Leave Link 1002 at Tue Nov 16 16:11:04 2021, MaxMem= 16106127360 cpu:              13.8 elap:               0.5
 (Enter /sw/contrib/gaussian/g16/B01/g16/l701.exe)
 ... and contract with generalized density number  2.
 Compute integral first derivatives.
 Leave Link  701 at Tue Nov 16 16:11:04 2021, MaxMem= 16106127360 cpu:               3.9 elap:               0.2
 (Enter /sw/contrib/gaussian/g16/B01/g16/l702.exe)
 L702 exits ... SP integral derivatives will be done elsewhere.
 Leave Link  702 at Tue Nov 16 16:11:04 2021, MaxMem= 16106127360 cpu:               0.5 elap:               0.0
 (Enter /sw/contrib/gaussian/g16/B01/g16/l703.exe)
 Integral derivatives from FoFJK, PRISM(SPDF).
 Compute integral first derivatives, UseDBF=F ICtDFT=           0.
 Calling FoFJK, ICntrl=  10002127 FMM=F ISym2X=1 I1Cent= 0 IOpClX= 0 NMat=1 NMatS=1 NMatT=0.
 FoFJK:  IHMeth= 1 ICntrl=10002127 DoSepK=F KAlg= 0 I1Cent=           0 FoldK=F
 IRaf=         0 NMat=       1 IRICut=       1 DoRegI=T DoRafI=F ISym2E= 1 IDoP0=0 IntGTp=1.
 FoFCou: FMM=F IPFlag=           0 FMFlag=      100000 FMFlg1=         800
         NFxFlg=           0 DoJE=F BraDBF=F KetDBF=F FulRan=T
         wScrn=  0.000000 ICntrl=  10002127 IOpCl=  0 I1Cent=           0 NGrid=           0
         NMat0=    1 NMatS0=      1 NMatT0=    0 NMatD0=    1 NMtDS0=    0 NMtDT0=    0
 Petite list used in FoFCou.
 Leave Link  703 at Tue Nov 16 16:11:05 2021, MaxMem= 16106127360 cpu:              11.1 elap:               0.4
 (Enter /sw/contrib/gaussian/g16/B01/g16/l716.exe)
 Dipole        =-5.08545126D-02-7.12256478D-01 2.79783079D-33
 ***** Axes restored to original set *****
 -------------------------------------------------------------------
 Center     Atomic                   Forces (Hartrees/Bohr)
 Number     Number              X              Y              Z
 -------------------------------------------------------------------
      1        8          -0.688369120   -0.000000000    0.191837798
      2        1          -0.008711461   -0.000000000   -0.004305817
      3        1           0.697080581    0.000000000   -0.187531981
 -------------------------------------------------------------------
 Cartesian Forces:  Max     0.697080581 RMS     0.338598057
 -----------------------------------------------------------------------------------------------
                       Internal Coordinate Forces (Hartree/Bohr or radian)
  Cent   Atom   N1       Length/X         N2         Alpha/Y        N3         Beta/Z          J
 -----------------------------------------------------------------------------------------------
      1  O 
      2  H        1  -0.004306(     1)
      3  H        1   0.721766(     2)      2   0.015826(     3)
 -----------------------------------------------------------------------------------------------
 Internal  Forces:  Max     0.721766204 RMS     0.416819481
 Leave Link  716 at Tue Nov 16 16:11:05 2021, MaxMem= 16106127360 cpu:               0.8 elap:               0.1
 (Enter /sw/contrib/gaussian/g16/B01/g16/l103.exe)

 GradGradGradGradGradGradGradGradGradGradGradGradGradGradGradGradGradGrad
 Berny optimization.
 Search for a local minimum.
 Step number   1 out of a maximum of   20 on scan point     3 out of    29
 All quantities printed in internal units (Hartrees-Bohrs-Radians)
 Second derivative matrix not updated -- first step.
 The second derivative matrix:
                          rOD       rOH      aHOCl
           rOD          0.55190
           rOH         -0.00000   3.62830
           aHOCl        0.00000   0.00000   0.16000
 ITU=  0
     Eigenvalues --- 1000.000001000.000001000.00000
 RFO step:  Lambda= 0.00000000D+00 EMin= 1.00000000D+03
 Linear search not attempted -- first point.
 Variable       Old X    -DE/DX   Delta X   Delta X   Delta X     New X
                                 (Linear)    (Quad)   (Total)
   rOD        1.81663  -0.00431   0.00000   0.00000   0.00000   1.81663
   rOH        1.32281   0.72177   0.00000   0.00000   0.00000   1.32281
  aHOCl       1.81703   0.01583   0.00000   0.00000   0.00000   1.81703
         Item               Value     Threshold  Converged?
 Maximum Force            0.000000     0.000450     YES
 RMS     Force            0.000000     0.000300     YES
 Maximum Displacement     0.000000     0.001800     YES
 RMS     Displacement     0.000000     0.001200     YES
 Predicted change in Energy=-0.000000D+00
 Optimization completed.
    -- Stationary point found.
[...]
  W3Min=       48300 MinDsk=      199415 NBas6D=         105
 NBas2D=        5790    NTT=        5565    LW2=     3500000
    MDV= 16106012332 MDiskM=      766857 NBas2p=        5790
 Fully direct method using O(ONN) memory.
 IMap=   1   2   3   4   5
 JobTyp=1 Pass  1:  I=   2 to   5 NPSUse= 28 ParTrn=T ParDer=T DoDerP=T.
 Spin components of T(2) and E(2):
     alpha-alpha T2 =       0.1135380038D-01 E2=     -0.3484637906D-01
     alpha-beta  T2 =       0.1077806444D+00 E2=     -0.2439686533D+00
     beta-beta   T2 =       0.1135380038D-01 E2=     -0.3484637906D-01
 The integrals were generated   1 times.
 ANorm=    0.1063244208D+01
 E2 =    -0.3136614114D+00 EUMP2 =    -0.76141599278182D+02
 Leave Link  906 at Tue Nov 16 16:12:38 2021, MaxMem= 16106127360 cpu:              24.7 elap:               0.9
 (Enter /sw/contrib/gaussian/g16/B01/g16/l1002.exe)
 Minotr:  Closed shell wavefunction.
          Computing MP2/KS-MP2 derivatives.
          Using Z-Vector for PSCF gradient.
          Skipping F1 and S1 gradient terms here.
          IDoAtm=111
          Frozen-core window.
          Direct CPHF calculation.
          Differentiating once with respect to electric field.
                with respect to dipole field.
          Differentiating once with respect to nuclear coordinates.
          Using symmetry in CPHF.
          Requested convergence is 1.0D-10 RMS, and 1.0D-09 maximum.
          NewPWx=F KeepS1=T KeepF1=T KeepIn=T MapXYZ=F SortEE=F KeepMc=T.
 Keep R1 ints in memory in symmetry-blocked form, NReq=22811690.
 FoFCou: FMM=F IPFlag=           0 FMFlag=           0 FMFlg1=           0
         NFxFlg=           0 DoJE=F BraDBF=F KetDBF=F FulRan=T
         wScrn=  0.000000 ICntrl=       600 IOpCl=  0 I1Cent=           0 NGrid=           0
         NMat0=    1 NMatS0=   4278 NMatT0=    0 NMatD0=    1 NMtDS0=    0 NMtDT0=    0
 Petite list used in FoFCou.
          MDV=   16106127360 using IRadAn=       5.
          Solving linear equations separately, MaxMat=       0.
          There are     1 degrees of freedom in the 1st order CPHF.  IDoFFX=0 NUNeed=     1.
 LinEq1:  Iter=  0 NonCon=     1 RMS=1.08D-02 Max=9.74D-02 NDo=     1
 AX will form     1 AO Fock derivatives at one time.
 LinEq1:  Iter=  1 NonCon=     1 RMS=2.46D-03 Max=2.20D-02 NDo=     1
 LinEq1:  Iter=  2 NonCon=     1 RMS=2.38D-03 Max=4.02D-02 NDo=     1
 LinEq1:  Iter=  3 NonCon=     1 RMS=3.56D-04 Max=2.82D-03 NDo=     1
 LinEq1:  Iter=  4 NonCon=     1 RMS=6.58D-05 Max=7.17D-04 NDo=     1
 LinEq1:  Iter=  5 NonCon=     1 RMS=1.71D-05 Max=2.26D-04 NDo=     1
 LinEq1:  Iter=  6 NonCon=     1 RMS=3.68D-06 Max=2.66D-05 NDo=     1
 LinEq1:  Iter=  7 NonCon=     1 RMS=4.69D-07 Max=3.72D-06 NDo=     1
 LinEq1:  Iter=  8 NonCon=     1 RMS=7.31D-08 Max=4.38D-07 NDo=     1
 LinEq1:  Iter=  9 NonCon=     1 RMS=8.83D-09 Max=6.04D-08 NDo=     1
 LinEq1:  Iter= 10 NonCon=     1 RMS=1.57D-09 Max=1.05D-08 NDo=     1
 LinEq1:  Iter= 11 NonCon=     1 RMS=2.42D-10 Max=1.76D-09 NDo=     1
 LinEq1:  Iter= 12 NonCon=     0 RMS=2.65D-11 Max=1.73D-10 NDo=     1
 Linear equations converged to 1.000D-10 1.000D-09 after    12 iterations.
 End of Minotr F.D. properties file   721 does not exist.
 End of Minotr F.D. properties file   722 does not exist.
 End of Minotr F.D. properties file   788 does not exist.
 Leave Link 1002 at Tue Nov 16 16:12:39 2021, MaxMem= 16106127360 cpu:              18.5 elap:               0.7
 (Enter /sw/contrib/gaussian/g16/B01/g16/l701.exe)
 ... and contract with generalized density number  2.
 Compute integral first derivatives.
 Leave Link  701 at Tue Nov 16 16:12:39 2021, MaxMem= 16106127360 cpu:               4.9 elap:               0.2
 (Enter /sw/contrib/gaussian/g16/B01/g16/l702.exe)
 L702 exits ... SP integral derivatives will be done elsewhere.
 Leave Link  702 at Tue Nov 16 16:12:39 2021, MaxMem= 16106127360 cpu:               0.6 elap:               0.0
 (Enter /sw/contrib/gaussian/g16/B01/g16/l703.exe)
 Integral derivatives from FoFJK, PRISM(SPDF).
 Compute integral first derivatives, UseDBF=F ICtDFT=           0.
 Calling FoFJK, ICntrl=  10002127 FMM=F ISym2X=1 I1Cent= 0 IOpClX= 0 NMat=1 NMatS=1 NMatT=0.
 FoFJK:  IHMeth= 1 ICntrl=10002127 DoSepK=F KAlg= 0 I1Cent=           0 FoldK=F
 IRaf=         0 NMat=       1 IRICut=       1 DoRegI=T DoRafI=F ISym2E= 1 IDoP0=0 IntGTp=1.
 FoFCou: FMM=F IPFlag=           0 FMFlag=      100000 FMFlg1=         800
         NFxFlg=           0 DoJE=F BraDBF=F KetDBF=F FulRan=T
         wScrn=  0.000000 ICntrl=  10002127 IOpCl=  0 I1Cent=           0 NGrid=           0
         NMat0=    1 NMatS0=      1 NMatT0=    0 NMatD0=    1 NMtDS0=    0 NMtDT0=    0
 Petite list used in FoFCou.
 Leave Link  703 at Tue Nov 16 16:12:40 2021, MaxMem= 16106127360 cpu:              11.1 elap:               0.4
 (Enter /sw/contrib/gaussian/g16/B01/g16/l716.exe)
 Dipole        = 1.16757278D-01-8.82877867D-01 6.36816701D-32
 ***** Axes restored to original set *****
 -------------------------------------------------------------------
 Center     Atomic                   Forces (Hartrees/Bohr)
 Number     Number              X              Y              Z
 -------------------------------------------------------------------
      1        8           0.050227102   -0.000000000   -0.036445947
      2        1           0.011130441   -0.000000000    0.015508689
      3        1          -0.061357542    0.000000000    0.020937258
 -------------------------------------------------------------------
 Cartesian Forces:  Max     0.061357542 RMS     0.030584295
 -----------------------------------------------------------------------------------------------
                       Internal Coordinate Forces (Hartree/Bohr or radian)
  Cent   Atom   N1       Length/X         N2         Alpha/Y        N3         Beta/Z          J
 -----------------------------------------------------------------------------------------------
      1  O 
      2  H        1   0.015509(     1)
      3  H        1  -0.064610(     2)      2  -0.020220(     3)
 -----------------------------------------------------------------------------------------------
 Internal  Forces:  Max     0.064610329 RMS     0.040099294
 Leave Link  716 at Tue Nov 16 16:12:40 2021, MaxMem= 16106127360 cpu:               0.7 elap:               0.1
 (Enter /sw/contrib/gaussian/g16/B01/g16/l103.exe)

 GradGradGradGradGradGradGradGradGradGradGradGradGradGradGradGradGradGrad
 Berny optimization.
 Search for a local minimum.
 Step number   1 out of a maximum of   20 on scan point    29 out of    29
 All quantities printed in internal units (Hartrees-Bohrs-Radians)
 Second derivative matrix not updated -- first step.
 The second derivative matrix:
                          rOD       rOH      aHOCl
           rOD          0.55190
           rOH         -0.00000   3.62830
           aHOCl        0.00000   0.00000   0.16000
 ITU=  0
     Eigenvalues --- 1000.000001000.000001000.00000
 RFO step:  Lambda= 0.00000000D+00 EMin= 1.00000000D+03
 Linear search not attempted -- first point.
 Variable       Old X    -DE/DX   Delta X   Delta X   Delta X     New X
                                 (Linear)    (Quad)   (Total)
   rOD        1.81663   0.01551   0.00000   0.00000   0.00000   1.81663
   rOH        3.77945  -0.06461   0.00000   0.00000   0.00000   3.77945
  aHOCl       1.81703  -0.02022   0.00000   0.00000   0.00000   1.81703
         Item               Value     Threshold  Converged?
 Maximum Force            0.000000     0.000450     YES
 RMS     Force            0.000000     0.000300     YES
 Maximum Displacement     0.000000     0.001800     YES
 RMS     Displacement     0.000000     0.001200     YES
 Predicted change in Energy=-0.000000D+00
 Optimization completed.
    -- Stationary point found.
                       ----------------------------
                       !   Optimized Parameters   !
                       ! (Angstroms and Degrees)  !
 ----------------------                            ----------------------
 !      Name          Value   Derivative information (Atomic Units)     !
 ------------------------------------------------------------------------
 !       rOD         0.9613   -DE/DX =    0.0155                        !
 !       rOH         2.0      -DE/DX =   -0.0646                        !
 !      aHOCl      104.1079   -DE/DX =   -0.0202                        !
 ------------------------------------------------------------------------
 Lowest energy point so far.  Saving SCF results.
 Summary of Optimized Potential Surface Scan (add -76.0 to energies):
                           1         2         3         4         5
     Eigenvalues --     0.00664  -0.11611  -0.19975  -0.25562  -0.29161
           rOD          0.96132   0.96132   0.96132   0.96132   0.96132
           rOH          0.60000   0.65000   0.70000   0.75000   0.80000
           aHOCl      104.10787 104.10787 104.10787 104.10787 104.10787
                           6         7         8         9        10
     Eigenvalues --    -0.31333  -0.32478  -0.32886  -0.32767  -0.32272
           rOD          0.96132   0.96132   0.96132   0.96132   0.96132
           rOH          0.85000   0.90000   0.95000   1.00000   1.05000
           aHOCl      104.10787 104.10787 104.10787 104.10787 104.10787
                          11        12        13        14        15
     Eigenvalues --    -0.31517  -0.30582  -0.29531  -0.28410  -0.27253
           rOD          0.96132   0.96132   0.96132   0.96132   0.96132
           rOH          1.10000   1.15000   1.20000   1.25000   1.30000
           aHOCl      104.10787 104.10787 104.10787 104.10787 104.10787
                          16        17        18        19        20
     Eigenvalues --    -0.26086  -0.24928  -0.23791  -0.22687  -0.21621
           rOD          0.96132   0.96132   0.96132   0.96132   0.96132
           rOH          1.35000   1.40000   1.45000   1.50000   1.55000
           aHOCl      104.10787 104.10787 104.10787 104.10787 104.10787
                          21        22        23        24        25
     Eigenvalues --    -0.20598  -0.19621  -0.18693  -0.17814  -0.16985
           rOD          0.96132   0.96132   0.96132   0.96132   0.96132
           rOH          1.60000   1.65000   1.70000   1.75000   1.80000
           aHOCl      104.10787 104.10787 104.10787 104.10787 104.10787
                          26        27        28        29
     Eigenvalues --    -0.16205  -0.15475  -0.14794  -0.14160
           rOD          0.96132   0.96132   0.96132   0.96132
           rOH          1.85000   1.90000   1.95000   2.00000
           aHOCl      104.10787 104.10787 104.10787 104.10787
 Largest change from initial coordinates is atom    3       1.498 Angstoms.
 GradGradGradGradGradGradGradGradGradGradGradGradGradGradGradGradGradGrad

 Leave Link  103 at Tue Nov 16 16:12:40 2021, MaxMem= 16106127360 cpu:               0.5 elap:               0.0
 (Enter /sw/contrib/gaussian/g16/B01/g16/l202.exe)
 ---------------------------------------------------------------------------------------------------
                            Z-MATRIX (ANGSTROMS AND DEGREES)
   CD    Cent   Atom    N1       Length/X        N2       Alpha/Y        N3        Beta/Z          J
 ---------------------------------------------------------------------------------------------------
      1      1  O 
      2      2  H        1   0.961321(     1)
      3      3  H        1   2.000000(     2)      2  104.108(     3)
 ---------------------------------------------------------------------------------------------------
                         Z-Matrix orientation:                         
 ---------------------------------------------------------------------
 Center     Atomic      Atomic             Coordinates (Angstroms)
 Number     Number       Type             X           Y           Z
 ---------------------------------------------------------------------
      1          8           0        0.000000    0.000000    0.000000
      2          1           0        0.000000    0.000000    0.961321
      3          1           0        1.939677    0.000000   -0.487496
 ---------------------------------------------------------------------
                    Distance matrix (angstroms):
                    1          2          3
     1  O    0.000000
     2  H    0.961321   0.000000
     3  H    2.000000   2.421037   0.000000
 Stoichiometry    H2O
 Framework group  CS[SG(H2O)]
 Deg. of freedom     3
 Full point group                 CS      NOp   2
 RotChk:  IX=0 Diff= 1.18D-16
 Largest Abelian subgroup         CS      NOp   2
 Largest concise Abelian subgroup C1      NOp   1
                         Standard orientation:                         
 ---------------------------------------------------------------------
 Center     Atomic      Atomic             Coordinates (Angstroms)
 Number     Number       Type             X           Y           Z
 ---------------------------------------------------------------------
      1          8           0       -0.000000    0.199671   -0.000000
      2          1           0        0.933862   -0.028453    0.000000
      3          1           0       -0.933862   -1.568917    0.000000
 ---------------------------------------------------------------------
 Rotational constants (GHZ):         353.5043588         121.7120947          90.5392810
 Leave Link  202 at Tue Nov 16 16:12:40 2021, MaxMem= 16106127360 cpu:               0.4 elap:               0.0
 (Enter /sw/contrib/gaussian/g16/B01/g16/l601.exe)
 Copying SCF densities to generalized density rwf, IOpCl= 0 IROHF=0.

 **********************************************************************

            Population analysis using the MP2 Density.

 **********************************************************************

 Orbital symmetries:
       Occupied  (A') (A') (A') (A") (A')
       Virtual   (A') (A') (A') (A') (A") (A') (A') (A') (A") (A")
                 (A') (A') (A') (A') (A') (A') (A") (A") (A') (A')
                 (A") (A') (A") (A') (A') (A") (A') (A') (A') (A")
                 (A') (A') (A") (A') (A") (A') (A') (A") (A') (A')
                 (A') (A") (A') (A') (A") (A") (A") (A') (A') (A')
                 (A') (A') (A") (A') (A') (A") (A') (A") (A') (A')
                 (A") (A') (A") (A") (A') (A') (A") (A') (A') (A')
                 (A') (A") (A') (A') (A") (A') (A") (A') (A") (A')
                 (A') (A") (A") (A') (A') (A') (A')
 The electronic state is 1-A'.
 Alpha  occ. eigenvalues --  -20.61657  -1.28775  -0.63814  -0.51175  -0.42907
 Alpha virt. eigenvalues --   -0.04917   0.04409   0.06399   0.14543   0.16498
 Alpha virt. eigenvalues --    0.18653   0.20980   0.23359   0.24680   0.28974
 Alpha virt. eigenvalues --    0.29820   0.31650   0.34777   0.45459   0.55567
 Alpha virt. eigenvalues --    0.65242   0.69675   0.73677   0.73853   0.74560
 Alpha virt. eigenvalues --    0.79527   0.81260   0.89893   0.90637   0.94037
 Alpha virt. eigenvalues --    0.94901   0.96551   0.96595   0.98133   0.99196
 Alpha virt. eigenvalues --    1.01031   1.04241   1.06018   1.15457   1.17936
 Alpha virt. eigenvalues --    1.31298   1.53518   1.54724   1.62324   1.82599
 Alpha virt. eigenvalues --    2.10284   2.15503   2.17461   2.29151   2.30493
 Alpha virt. eigenvalues --    2.36560   2.37864   2.39340   2.40100   2.53667
 Alpha virt. eigenvalues --    2.56074   2.79048   2.79835   2.90075   3.63516
 Alpha virt. eigenvalues --    3.79970   3.80559   3.86088   3.90474   4.01899
 Alpha virt. eigenvalues --    4.03167   4.06104   4.09541   4.14977   4.21665
 Alpha virt. eigenvalues --    4.27394   4.34806   4.38842   4.59386   4.79656
 Alpha virt. eigenvalues --    5.21190   5.35418   5.45249   6.22178   6.58451
 Alpha virt. eigenvalues --    6.65553   6.65981   6.76503   7.09420   7.12819
 Alpha virt. eigenvalues --    7.22480   7.22504   7.27476   7.28678   7.46180
 Alpha virt. eigenvalues --    7.80293  13.28403
          Condensed to atoms (all electrons):
               1          2          3
     1  O    8.174486   0.192054   0.113823
     2  H    0.192054   0.565744   0.018599
     3  H    0.113823   0.018599   0.610819
 Mulliken charges:
               1
     1  O   -0.480362
     2  H    0.223603
     3  H    0.256759
 Sum of Mulliken charges =  -0.00000
 Mulliken charges with hydrogens summed into heavy atoms:
               1
     1  O   -0.000000
 Electronic spatial extent (au):  <R**2>=             29.2587
 Charge=             -0.0000 electrons
 Dipole moment (field-independent basis, Debye):
    X=              0.2968    Y=             -2.2441    Z=              0.0000  Tot=              2.2636
 Quadrupole moment (field-independent basis, Debye-Ang):
   XX=             -4.6791   YY=             -4.2529   ZZ=             -8.6853
   XY=              2.3346   XZ=             -0.0000   YZ=              0.0000
 Traceless Quadrupole moment (field-independent basis, Debye-Ang):
   XX=              1.1934   YY=              1.6195   ZZ=             -2.8129
   XY=              2.3346   XZ=             -0.0000   YZ=              0.0000
 Octapole moment (field-independent basis, Debye-Ang**2):
  XXX=              1.3758  YYY=             -4.0686  ZZZ=              0.0000  XYY=             -3.2642
  XXY=             -1.7705  XXZ=              0.0000  XZZ=              0.3468  YZZ=              0.4315
  YYZ=              0.0000  XYZ=              0.0000
 Hexadecapole moment (field-independent basis, Debye-Ang**3):
 XXXX=            -11.0999 YYYY=            -13.2763 ZZZZ=             -9.5829 XXXY=             -1.5377
 XXXZ=             -0.0000 YYYX=              2.3726 YYYZ=              0.0000 ZZZX=             -0.0000
 ZZZY=              0.0000 XXYY=             -2.4022 XXZZ=             -4.0284 YYZZ=             -5.5040
 XXYZ=              0.0000 YYXZ=             -0.0000 ZZXY=             -1.2948
 N-N= 6.739033489574D+00 E-N=-1.939172537528D+02  KE= 7.586351505438D+01
 Symmetry A'   KE= 7.135528008158D+01
 Symmetry A"   KE= 4.508234972794D+00
 No NMR shielding tensors so no spin-rotation constants.
 Leave Link  601 at Tue Nov 16 16:12:40 2021, MaxMem= 16106127360 cpu:               4.0 elap:               0.2
 (Enter /sw/contrib/gaussian/g16/B01/g16/l9999.exe)
 1\1\GINC-N2182\Scan\RMP2-FC\Aug-CC-pVTZ\H2O1\CGAVINH\16-Nov-2021\1\\#p
  opt=(z-matrix) mp2/aug-cc-pvtz density=current\\title\\0,1\O\H,1,rOD\
 H,1,rOH,2,aHOCl\\rOD=0.96132107,s,-1000,0.\rOH=2.,s,28,0.05\aHOCl=104.
 10787084,s,-1000,0.\\Version=ES64L-G16RevB.01\State=1-A'\HF=-75.73726,
 -75.8586426,-75.9407492,-75.9949406,-76.0291509,-76.0489998,-76.058515
 4,-76.0606106,-76.0574042,-76.0504438,-76.0408646,-76.0295038,-76.0169
 811,-76.003756,-75.990169,-75.9764704,-75.9628423,-75.9494158,-75.9362
 83,-75.9235078,-75.9111325,-75.8991842,-75.8876781,-75.8766213,-75.866
 0139,-75.8558515,-75.8461257,-75.8368255,-75.8279379\MP2=-75.9933617,-
 76.1161085,-76.1997527,-76.2556176,-76.2916109,-76.313331,-76.3247848,
 -76.3288639,-76.3276666,-76.322725,-76.315165,-76.3058202,-76.295311,-
 76.2841001,-76.2725321,-76.2608621,-76.2492773,-76.2379132,-76.2268665
 ,-76.2162052,-76.2059761,-76.1962102,-76.186927,-76.1781377,-76.169846
 5,-76.1620531,-76.1547528,-76.1479382,-76.1415993\RMSD=2.778e-09,4.475
 e-09,4.894e-09,5.069e-09,5.142e-09,5.211e-09,5.297e-09,5.438e-09,5.758
 e-09,6.387e-09,7.330e-09,8.497e-09,9.798e-09,3.058e-09,3.361e-09,3.597
 e-09,3.766e-09,3.878e-09,3.939e-09,3.956e-09,3.931e-09,3.865e-09,3.762
 e-09,3.623e-09,3.453e-09,3.259e-09,3.047e-09,2.826e-09,2.602e-09\PG=CS
  [SG(H2O1)]\\@


 TOWERING GENIUS DISDAINS A BEATEN PATH.  IT SEEKS 
 REGIONS HITHERTO UNEXPLORED.

                                -- ABRAHAM LINCOLN
 Job cpu time:       0 days  0 hours 42 minutes 32.1 seconds.
 Elapsed time:       0 days  0 hours  1 minutes 44.7 seconds.
 File lengths (MBytes):  RWF=     10 Int=      0 D2E=      0 Chk=      8 Scr=      1
 Normal termination of Gaussian 16 at Tue Nov 16 16:12:40 2021.
