title                                                                   
SP        RMP2-FC                                                     Gen                 
Number of atoms                            I                4
Info1-9                                    I   N=           9
         135         126           0           0           0         110
           1           2           1
Full Title                                 C   N=           1
title       
Route                                      C   N=           5
#p pop=NBO SP NoSymm mp2/gen Pseudo=read density=current    
Charge                                     I               -1
Multiplicity                               I                1
Number of electrons                        I               52
Number of alpha electrons                  I               26
Number of beta electrons                   I               26
Number of basis functions                  I              174
Number of independent functions            I              174
Number of point charges in /Mol/           I                0
Number of translation vectors              I                0
Atomic numbers                             I   N=           4
           8          53          17           1
Nuclear charges                            R   N=           4
  8.00000000E+00  2.50000000E+01  1.70000000E+01  1.00000000E+00
Current cartesian coordinates              R   N=          12
  0.00000000E+00  0.00000000E+00  0.00000000E+00  6.25933684E+00  0.00000000E+00
  0.00000000E+00 -7.30225624E-01  3.10228121E+00  0.00000000E+00  1.87169918E+00
  0.00000000E+00  3.30031064E-01
Number of symbols in /Mol/                 I                0
Force Field                                I                0
Atom Types                                 C   N=           4
                                                
Int Atom Types                             I   N=           4
           0           0           0           0
MM charges                                 R   N=           4
  0.00000000E+00  0.00000000E+00  0.00000000E+00  0.00000000E+00
Integer atomic weights                     I   N=           4
          16         127          35           1
Real atomic weights                        R   N=           4
  1.59949146E+01  1.26900400E+02  3.49688527E+01  1.00782504E+00
Atom fragment info                         I   N=           4
           0           0           0           0
Atom residue num                           I   N=           4
           0           0           0           0
Nuclear spins                              I   N=           4
           0           5           3           1
Nuclear ZEff                               R   N=           4
 -5.60000000E+00 -5.83000000E+03 -1.42400000E+01 -1.00000000E+00
Nuclear ZNuc                               R   N=           4
  8.00000000E+00  5.30000000E+01  1.70000000E+01  1.00000000E+00
Nuclear QMom                               R   N=           4
  0.00000000E+00 -7.10000000E+01 -8.16500000E+00  0.00000000E+00
Nuclear GFac                               R   N=           4
  0.00000000E+00  2.81328000E+00  8.21874000E-01  2.79284600E+00
MicOpt                                     I   N=           4
          -1          -1          -1          -1
Number of residues                         I                0
Number of secondary structures             I                0
Number of contracted shells                I               56
Number of primitive shells                 I              143
Pure/Cartesian d shells                    I                0
Pure/Cartesian f shells                    I                0
Highest angular momentum                   I                3
Largest degree of contraction              I               11
Shell types                                I   N=          56
           0           0           0           0           0           1
           1           1           1          -2          -2          -2
          -3          -3           0           0           0           0
           0           0           1           1           1           1
           1          -2          -2          -2          -2          -3
          -3           0           0           0           0           0
           0           1           1           1           1           1
          -2          -2          -2          -3          -3           0
           0           0           0           1           1           1
          -2          -2
Number of primitives per shell             I   N=          56
           7           6           1           1           1           3
           1           1           1           1           1           1
           1           1           9           8           1           1
           1           1           8           8           1           1
           1           9           1           1           1           1
           1          11           9           8           1           1
           1           6           6           1           1           1
           1           1           1           1           1           3
           1           1           1           1           1           1
           1           1
Shell to atom map                          I   N=          56
           1           1           1           1           1           1
           1           1           1           1           1           1
           1           1           2           2           2           2
           2           2           2           2           2           2
           2           2           2           2           2           2
           2           3           3           3           3           3
           3           3           3           3           3           3
           3           3           3           3           3           4
           4           4           4           4           4           4
           4           4
Primitive exponents                        R   N=         143
  1.53300000E+04  2.29900000E+03  5.22400000E+02  1.47300000E+02  4.75500000E+01
  1.67600000E+01  6.20700000E+00  5.22400000E+02  1.47300000E+02  4.75500000E+01
  1.67600000E+01  6.20700000E+00  6.88200000E-01  1.75200000E+00  2.38400000E-01
  7.37600000E-02  3.44600000E+01  7.74900000E+00  2.28000000E+00  7.15600000E-01
  2.14000000E-01  5.97400000E-02  2.31400000E+00  6.45000000E-01  2.14000000E-01
  1.42800000E+00  5.00000000E-01  5.54650000E+03  8.38214000E+02  1.82187000E+02
  3.12123000E+01  1.95314000E+01  8.24099000E+00  2.19455000E+00  1.10911000E+00
  8.10610000E-02  5.54650000E+03  8.38214000E+02  3.12123000E+01  1.95314000E+01
  8.24099000E+00  2.19455000E+00  1.10911000E+00  8.10610000E-02  3.74641000E-01
  1.77080000E-01  1.00100000E-01  4.12000000E-02  1.88988000E+02  2.12868000E+01
  1.00396000E+01  3.45180000E+00  1.97456000E+00  1.02420000E+00  4.49437000E-01
  7.34810000E-02  1.88988000E+02  1.00396000E+01  3.45180000E+00  1.97456000E+00
  1.02420000E+00  4.49437000E-01  1.86648000E-01  7.34810000E-02  5.98100000E-01
  9.61800000E-02  3.59000000E-02  1.32662000E+02  3.76054000E+01  1.03891000E+01
  6.49017000E+00  3.45451000E+00  1.84413000E+00  9.62478000E-01  4.72853000E-01
  1.93200000E-01  4.72853000E-01  1.93200000E-01  7.82000000E-02  4.06400000E-01
  1.84800000E-01  4.56100000E+05  6.83300000E+04  1.55500000E+04  4.40500000E+03
  1.43900000E+03  5.20400000E+02  2.03100000E+02  8.39600000E+01  3.62000000E+01
  1.58300000E+01  6.33400000E+00  4.40500000E+03  1.43900000E+03  5.20400000E+02
  2.03100000E+02  8.39600000E+01  3.62000000E+01  1.58300000E+01  6.33400000E+00
  2.69400000E+00  1.43900000E+03  2.03100000E+02  8.39600000E+01  3.62000000E+01
  1.58300000E+01  6.33400000E+00  2.69400000E+00  4.31300000E-01  9.76800000E-01
  1.62500000E-01  5.91000000E-02  6.63300000E+02  1.56800000E+02  4.99800000E+01
  1.84200000E+01  7.24000000E+00  2.92200000E+00  1.56800000E+02  4.99800000E+01
  1.84200000E+01  7.24000000E+00  2.92200000E+00  3.81800000E-01  1.02200000E+00
  1.30100000E-01  4.19000000E-02  1.04600000E+00  3.44000000E-01  1.35000000E-01
  7.06000000E-01  3.12000000E-01  3.38700000E+01  5.09500000E+00  1.15900000E+00
  3.25800000E-01  1.02700000E-01  2.52600000E-02  1.40700000E+00  3.88000000E-01
  1.02000000E-01  1.05700000E+00  2.47000000E-01
Contraction coefficients                   R   N=         143
  5.19808943E-04  4.02025621E-03  2.07128267E-02  8.10105536E-02  2.35962985E-01
  4.42653446E-01  3.57064423E-01 -4.42115008E-05 -1.22591041E-03 -1.05517725E-02
 -6.74452633E-02 -1.71198607E-01  1.07329856E+00  1.00000000E+00  1.00000000E+00
  1.00000000E+00  4.11634896E-02  2.57762836E-01  8.02419274E-01  1.00000000E+00
  1.00000000E+00  1.00000000E+00  1.00000000E+00  1.00000000E+00  1.00000000E+00
  1.00000000E+00  1.00000000E+00  1.58603022E-04  1.00211458E-03  2.83966410E-03
 -4.40310212E-02  2.38198152E-01 -7.63568980E-01  8.96516870E-01  4.68371203E-01
  2.16251781E-03 -2.17177846E-05 -2.59237305E-04 -1.50376554E-02  2.42214079E-02
  6.99888661E-02 -5.50491335E-01 -5.69654432E-01  3.76065139E-01  1.00000000E+00
  1.00000000E+00  1.00000000E+00  1.00000000E+00  5.85232173E-04  3.69335916E-02
 -2.35399435E-01  3.41625365E-01  5.34991615E-01  2.65244797E-01  2.54463150E-02
  3.82802808E-04 -6.76097015E-05  8.33123161E-03 -4.66496478E-02 -5.27406452E-02
 -2.91398344E-02  3.65650039E-01  5.48502805E-01  2.34644635E-01  1.00000000E+00
  1.00000000E+00  1.00000000E+00  5.72000072E-04  4.40200055E-03 -4.09220051E-02
  9.96610125E-02  3.22663040E-01  4.00343050E-01  2.68306034E-01  8.48470106E-02
  7.63200096E-03  1.00000000E+00  1.00000000E+00  1.00000000E+00  1.00000000E+00
  1.00000000E+00  4.93229477E-05  3.83207967E-04  2.00947816E-03  8.38950124E-03
  2.94843950E-02  8.78759948E-02  2.11589759E-01  3.65611554E-01  3.41246350E-01
  1.02162570E-01  2.14249949E-03 -2.21747925E-06 -1.71189708E-04 -1.27922846E-03
 -9.32956265E-03 -3.98910062E-02 -1.05536085E-01  9.36202446E-03  5.10511140E-01
  5.73150737E-01  4.03949245E-06  2.12481765E-04  8.59484452E-04  4.63248159E-03
  4.47343490E-04 -7.38438245E-02 -3.62271994E-01  1.16620337E+00  1.00000000E+00
  1.00000000E+00  1.00000000E+00  2.47206402E-03  1.97550234E-02  9.09917355E-02
  2.63187834E-01  4.49078073E-01  3.60183072E-01  3.03427809E-05 -1.22475826E-03
 -6.01429772E-03 -2.76401323E-02  4.35105612E-04  1.00307272E+00  1.00000000E+00
  1.00000000E+00  1.00000000E+00  1.00000000E+00  1.00000000E+00  1.00000000E+00
  1.00000000E+00  1.00000000E+00  2.54948632E-02  1.90362766E-01  8.52162022E-01
  1.00000000E+00  1.00000000E+00  1.00000000E+00  1.00000000E+00  1.00000000E+00
  1.00000000E+00  1.00000000E+00  1.00000000E+00
Coordinates of each shell                  R   N=         168
  0.00000000E+00  0.00000000E+00  0.00000000E+00  0.00000000E+00  0.00000000E+00
  0.00000000E+00  0.00000000E+00  0.00000000E+00  0.00000000E+00  0.00000000E+00
  0.00000000E+00  0.00000000E+00  0.00000000E+00  0.00000000E+00  0.00000000E+00
  0.00000000E+00  0.00000000E+00  0.00000000E+00  0.00000000E+00  0.00000000E+00
  0.00000000E+00  0.00000000E+00  0.00000000E+00  0.00000000E+00  0.00000000E+00
  0.00000000E+00  0.00000000E+00  0.00000000E+00  0.00000000E+00  0.00000000E+00
  0.00000000E+00  0.00000000E+00  0.00000000E+00  0.00000000E+00  0.00000000E+00
  0.00000000E+00  0.00000000E+00  0.00000000E+00  0.00000000E+00  0.00000000E+00
  0.00000000E+00  0.00000000E+00  6.25933684E+00  0.00000000E+00  0.00000000E+00
  6.25933684E+00  0.00000000E+00  0.00000000E+00  6.25933684E+00  0.00000000E+00
  0.00000000E+00  6.25933684E+00  0.00000000E+00  0.00000000E+00  6.25933684E+00
  0.00000000E+00  0.00000000E+00  6.25933684E+00  0.00000000E+00  0.00000000E+00
  6.25933684E+00  0.00000000E+00  0.00000000E+00  6.25933684E+00  0.00000000E+00
  0.00000000E+00  6.25933684E+00  0.00000000E+00  0.00000000E+00  6.25933684E+00
  0.00000000E+00  0.00000000E+00  6.25933684E+00  0.00000000E+00  0.00000000E+00
  6.25933684E+00  0.00000000E+00  0.00000000E+00  6.25933684E+00  0.00000000E+00
  0.00000000E+00  6.25933684E+00  0.00000000E+00  0.00000000E+00  6.25933684E+00
  0.00000000E+00  0.00000000E+00  6.25933684E+00  0.00000000E+00  0.00000000E+00
  6.25933684E+00  0.00000000E+00  0.00000000E+00 -7.30225624E-01  3.10228121E+00
  0.00000000E+00 -7.30225624E-01  3.10228121E+00  0.00000000E+00 -7.30225624E-01
  3.10228121E+00  0.00000000E+00 -7.30225624E-01  3.10228121E+00  0.00000000E+00
 -7.30225624E-01  3.10228121E+00  0.00000000E+00 -7.30225624E-01  3.10228121E+00
  0.00000000E+00 -7.30225624E-01  3.10228121E+00  0.00000000E+00 -7.30225624E-01
  3.10228121E+00  0.00000000E+00 -7.30225624E-01  3.10228121E+00  0.00000000E+00
 -7.30225624E-01  3.10228121E+00  0.00000000E+00 -7.30225624E-01  3.10228121E+00
  0.00000000E+00 -7.30225624E-01  3.10228121E+00  0.00000000E+00 -7.30225624E-01
  3.10228121E+00  0.00000000E+00 -7.30225624E-01  3.10228121E+00  0.00000000E+00
 -7.30225624E-01  3.10228121E+00  0.00000000E+00 -7.30225624E-01  3.10228121E+00
  0.00000000E+00  1.87169918E+00  0.00000000E+00  3.30031064E-01  1.87169918E+00
  0.00000000E+00  3.30031064E-01  1.87169918E+00  0.00000000E+00  3.30031064E-01
  1.87169918E+00  0.00000000E+00  3.30031064E-01  1.87169918E+00  0.00000000E+00
  3.30031064E-01  1.87169918E+00  0.00000000E+00  3.30031064E-01  1.87169918E+00
  0.00000000E+00  3.30031064E-01  1.87169918E+00  0.00000000E+00  3.30031064E-01
  1.87169918E+00  0.00000000E+00  3.30031064E-01
Num ILSW                                   I              100
ILSW                                       I   N=         100
           0           0           0           0           2           0
           0           0           0           0           0          -1
           5           0           0           0           0           0
           0           0           0           0           0           0
           1           1           0           0           0           0
           0           0      100000           0          -1           0
           0           0           0           0           0           0
           0           0           0           1           0           0
           0 -2000000000           1           0           0           0
           0           0           4          52           0           0
           0           0           0           0           0           0
           0           0           0           4           0           1
           0           0           0           0           0           0
           0           0           0           0           0           0
           0           0           0           0           0           0
           0           0           0           0           0           0
           0           0           0           0
Num RLSW                                   I               52
RLSW                                       R   N=          52
  1.00000000E+00  1.00000000E+00  1.00000000E+00  1.00000000E+00  1.00000000E+00
  0.00000000E+00  0.00000000E+00  1.00000000E+00  0.00000000E+00  0.00000000E+00
  0.00000000E+00  0.00000000E+00  1.00000000E+00  0.00000000E+00  0.00000000E+00
  0.00000000E+00  0.00000000E+00  1.00000000E+00  0.00000000E+00  0.00000000E+00
  0.00000000E+00  0.00000000E+00  1.00000000E+00  0.00000000E+00  0.00000000E+00
  0.00000000E+00  0.00000000E+00  1.00000000E+00  0.00000000E+00  0.00000000E+00
  0.00000000E+00  0.00000000E+00  1.00000000E+00  0.00000000E+00  0.00000000E+00
  0.00000000E+00  0.00000000E+00  0.00000000E+00  1.00000000E+00  1.00000000E+00
  0.00000000E+00  1.00000000E+00  0.00000000E+00  0.00000000E+00  0.00000000E+00
  0.00000000E+00  0.00000000E+00  0.00000000E+00  0.00000000E+00  0.00000000E+00
  0.00000000E+00  0.00000000E+00
ECP-MxAtEC                                 I           250000
ECP-MaxLECP                                I               10
ECP-MaxAtL                                 I          2250000
ECP-MxTECP                                 I         11250000
ECP-LenNCZ                                 I               16
ECP-KFirst                                 I   N=          40
           0           1           0           0           0           2
           0           0           0           5           0           0
           0           9           0           0           0          13
           0           0           0           0           0           0
           0           0           0           0           0           0
           0           0           0           0           0           0
           0           0           0           0
ECP-KLast                                  I   N=          40
           0           1           0           0           0           4
           0           0           0           8           0           0
           0          12           0           0           0          16
           0           0           0           0           0           0
           0           0           0           0           0           0
           0           0           0           0           0           0
           0           0           0           0
ECP-LMax                                   I   N=           4
           0           4           0           0
ECP-LPSkip                                 I   N=           4
           1           0           1           1
ECP-RNFroz                                 R   N=           4
  0.00000000E+00  2.80000000E+01  0.00000000E+00  0.00000000E+00
ECP-NLP                                    I   N=          16
           2           2           2           2           2           2
           2           2           2           2           2           2
           2           2           2           2
ECP-CLP1                                   R   N=          16
  0.00000000E+00  4.99896490E+01  2.81006556E+02  6.14167390E+01  6.74162390E+01
  1.34807696E+02  1.45665480E+01  2.89684220E+01  3.55387560E+01  5.33397590E+01
  9.71646600E+00  1.49775000E+01 -2.01766180E+01 -2.60880770E+01 -2.20434000E-01
 -2.21646000E-01
ECP-CLP2                                   R   N=          16
  0.00000000E+00  0.00000000E+00  0.00000000E+00  0.00000000E+00  0.00000000E+00
  0.00000000E+00  0.00000000E+00  0.00000000E+00  0.00000000E+00  0.00000000E+00
  0.00000000E+00  0.00000000E+00  0.00000000E+00  0.00000000E+00  0.00000000E+00
  0.00000000E+00
ECP-ZLP                                    R   N=          16
  1.00000000E+00  4.00333760E+01  1.73005760E+01  8.85172000E+00  1.57201410E+01
  1.52082220E+01  8.29418600E+00  7.75394900E+00  1.38177510E+01  1.35878050E+01
  6.94763000E+00  6.96009900E+00  1.85229500E+01  1.82510350E+01  7.55790100E+00
  7.59740400E+00
MxBond                                     I                2
NBond                                      I   N=           4
           2           0           1           1
IBond                                      I   N=           8
           3           4           0           0           1           0
           1           0
RBond                                      R   N=           8
  1.00000000E+00  1.00000000E+00  0.00000000E+00  0.00000000E+00  1.00000000E+00
  0.00000000E+00  1.00000000E+00  0.00000000E+00
Virial Ratio                               R      2.285046830459730E+00
SCF Energy                                 R     -8.296850269735905E+02
MP2 Energy                                 R     -8.303674827668729E+02
Total Energy                               R     -8.303674827668729E+02
Post-SCF wavefunction norm                 R      1.108560030754607E+00
RMS Density                                R      8.469097396124504E-09
Job Status                                 I                1
Nuclear derivative order                   I                0
External E-field                           R   N=          35
  0.00000000E+00  0.00000000E+00  0.00000000E+00  0.00000000E+00  0.00000000E+00
  0.00000000E+00  0.00000000E+00  0.00000000E+00  0.00000000E+00  0.00000000E+00
  0.00000000E+00  0.00000000E+00  0.00000000E+00  0.00000000E+00  0.00000000E+00
  0.00000000E+00  0.00000000E+00  0.00000000E+00  0.00000000E+00  0.00000000E+00
  0.00000000E+00  0.00000000E+00  0.00000000E+00  0.00000000E+00  0.00000000E+00
  0.00000000E+00  0.00000000E+00  0.00000000E+00  0.00000000E+00  0.00000000E+00
  0.00000000E+00  0.00000000E+00  0.00000000E+00  0.00000000E+00  0.00000000E+00
IOpCl                                      I                0
IROHF                                      I                0
Alpha Orbital Energies                     R   N=         174
 -1.04741870E+02 -2.04767737E+01 -1.04613370E+01 -7.92850670E+00 -7.92580466E+00
 -7.92569399E+00 -7.47789873E+00 -5.30373727E+00 -5.30306677E+00 -5.30305091E+00
 -2.03132350E+00 -2.03091497E+00 -2.03089920E+00 -2.03018160E+00 -2.03018149E+00
 -1.24308975E+00 -9.06930208E-01 -6.43902678E-01 -5.50493114E-01 -4.54519284E-01
 -4.46064446E-01 -3.18265404E-01 -2.92118598E-01 -1.62831067E-01 -1.52851183E-01
 -1.52796341E-01  1.52193553E-01  1.76372855E-01  2.15438714E-01  2.25871399E-01
  2.40220421E-01  2.49864224E-01  2.52506411E-01  2.75681107E-01  2.95610529E-01
  3.00006890E-01  3.07868248E-01  3.17269274E-01  3.47087985E-01  3.73333509E-01
  3.79024476E-01  3.86437951E-01  4.20076392E-01  4.27747377E-01  4.51817704E-01
  5.01557621E-01  5.27162863E-01  5.39975293E-01  5.50040090E-01  5.60621001E-01
  5.71972114E-01  5.87775658E-01  6.41543115E-01  6.59564559E-01  7.31204365E-01
  7.52706621E-01  7.61393891E-01  7.69696699E-01  7.73082549E-01  7.91267337E-01
  7.91308016E-01  8.02835235E-01  8.19361101E-01  8.34393666E-01  8.37794303E-01
  8.54850663E-01  8.68223094E-01  8.73924136E-01  8.81269271E-01  8.91064321E-01
  9.01217054E-01  9.29599183E-01  9.49882706E-01  9.71302745E-01  9.83772466E-01
  1.00605623E+00  1.04378138E+00  1.07858405E+00  1.08013089E+00  1.10023090E+00
  1.12566148E+00  1.15025485E+00  1.19205435E+00  1.19807623E+00  1.22020148E+00
  1.23681858E+00  1.26443229E+00  1.28726010E+00  1.36406506E+00  1.39748044E+00
  1.43856052E+00  1.46840233E+00  1.53352349E+00  1.57009215E+00  1.58489773E+00
  1.61011834E+00  1.66674153E+00  1.68233883E+00  1.72442403E+00  1.72981717E+00
  1.74328445E+00  1.74520557E+00  1.76234360E+00  1.77405344E+00  1.80067291E+00
  1.85172802E+00  1.86122311E+00  1.89626708E+00  1.90837194E+00  1.96738881E+00
  2.05224713E+00  2.05229666E+00  2.10390649E+00  2.13479803E+00  2.15501215E+00
  2.27510586E+00  2.38337436E+00  2.49508206E+00  2.49771235E+00  2.53125252E+00
  2.55694680E+00  2.58866975E+00  2.59987838E+00  2.65584536E+00  2.67792406E+00
  2.69821224E+00  2.71302238E+00  2.72791651E+00  2.76060238E+00  2.77536185E+00
  2.84014528E+00  2.99883665E+00  3.01081848E+00  3.08215742E+00  3.17363305E+00
  3.19874537E+00  3.20940289E+00  3.22861141E+00  3.27555253E+00  3.28554994E+00
  3.30754248E+00  3.36540495E+00  3.51821132E+00  3.53289284E+00  3.53661556E+00
  3.82274415E+00  3.92267365E+00  4.29963890E+00  4.41051611E+00  4.49947423E+00
  4.54847076E+00  4.63667938E+00  4.75433998E+00  4.97679796E+00  5.08390207E+00
  5.34184820E+00  5.39163546E+00  5.65542401E+00  6.40115847E+00  6.56802777E+00
  6.83528302E+00  6.89053530E+00  6.90398601E+00  6.97420037E+00  7.28351668E+00
  7.33638788E+00  7.33958456E+00  7.42758240E+00  7.52604108E+00  7.72959917E+00
  7.77739555E+00  8.33462388E+00  1.45629368E+01  5.92097499E+01
Alpha MO coefficients                      R   N=       30276
  5.20682578E-06  2.91172406E-05  2.29109617E-06 -1.54180004E-04 -9.55236729E-05
  4.61059451E-07  2.98923668E-06  4.16225807E-07 -4.66087271E-06 -8.65962960E-06
 -2.04456049E-06  4.48542080E-05 -1.58176134E-04  3.98367774E-07  1.27291375E-05
 -3.86667993E-05  2.12114322E-06 -2.24286388E-06  1.62913001E-07  1.46668012E-08
 -3.13173495E-06 -1.41749499E-06  1.45819971E-05 -7.79233902E-07 -1.98367608E-07
  2.07339510E-05  9.29225231E-06  2.68765347E-05  2.28655628E-06 -2.21504724E-06
  5.80291144E-05  1.07205543E-05 -1.81372215E-07 -3.49422242E-07 -7.62605358E-08
 -2.02924656E-07  2.42986107E-07 -1.55518494E-06  9.92847750E-07  2.98347371E-07
 -2.38460455E-06  1.33964555E-05  1.06587105E-06 -1.10986173E-06 -5.11029493E-06
  8.99367023E-06 -3.94371775E-08  7.82813660E-08  7.19226184E-07  1.73164795E-05
 -4.28104774E-05 -3.13292160E-06  1.32627572E-06  1.86354975E-07 -2.16165700E-07
  5.62132481E-06  1.80107778E-06 -9.10133579E-07 -3.73326331E-06 -3.86235004E-07
  6.00039498E-07  2.57304619E-05 -5.57885329E-06 -2.55077892E-06  2.10478616E-06
  1.60699649E-07  3.42819192E-07  1.03258034E-07  5.49171439E-08 -2.29030800E-08
 -1.50016811E-07  2.04417293E-07 -8.40849056E-07 -4.44560371E-07  8.67417721E-08
  1.23940482E-06 -1.12376407E-06  5.09609759E-06  2.43745333E-06 -6.09749305E-08
 -8.33841746E-06  2.59997496E-06  4.19650913E-06  9.12516975E-07 -5.86927225E-07
 -6.50673791E-06  2.45217802E-06  6.56012602E-08 -1.69882320E-07 -7.17151263E-08
 -1.77681643E-07 -4.12913822E-07  1.46347439E-07  4.33773488E-07  9.21886867E-07
 -2.77141310E-06  5.11843251E-07 -9.52637036E-07  8.38599044E-07  2.95769869E-06
 -2.22829369E-06  9.99534917E-01  1.95313359E-03  1.83714875E-04 -4.17521778E-04
  7.49022720E-05  7.95528143E-05  1.77946547E-05 -7.59706872E-05  7.45113519E-07
  3.74763104E-05 -1.35295906E-04  1.33727167E-06 -1.83312864E-05  7.22686264E-05
 -7.21791767E-07  4.30216228E-06 -6.01992305E-05 -1.57294064E-06  2.40751877E-06
 -1.20233572E-05 -6.58166147E-07 -3.73143836E-06  5.16069496E-08 -7.85078268E-08
 -5.07978127E-06 -3.29383539E-06 -2.88647377E-05  2.44189444E-07 -3.66858651E-07
 -4.41851052E-05 -2.41920839E-05 -1.60586805E-06 -1.65119676E-06  4.97497454E-07
 -1.09312032E-05  2.53215864E-07 -3.25600523E-07 -2.00826287E-06  6.18581436E-06
  2.21432886E-07 -4.26532666E-07 -4.57508920E-06  4.10803735E-06  6.51331654E-07
  3.88493290E-07  3.24388752E-06 -6.10695554E-07  8.92778472E-07 -4.60174289E-06
  7.53384841E-06 -1.44803994E-06 -1.33046578E-05  5.12326713E-05 -1.01315792E-05
  1.11439119E-06 -2.62953711E-06  1.36148968E-07 -1.38282336E-05  1.69697880E-05
 -1.60752853E-06  1.93508660E-05  2.48598078E-05 -1.76386534E-06 -5.41484228E-07
  1.90977064E-07 -9.02517233E-09 -8.00418888E-07 -1.05396679E-06 -1.38645449E-05
  2.03289921E-06 -9.99009509E-07  9.67437638E-06 -3.59136726E-06  9.76809563E-01
 -9.23254200E-03  4.33871428E-02  1.43110512E-03  1.09957355E-03  9.26418419E-04
  1.57425344E-03  2.76602698E-04 -1.09959198E-03 -1.18921565E-03 -3.08090252E-04
 -2.90044564E-04  2.91045645E-04 -2.11547066E-04 -7.36867057E-05  2.22370072E-04
  1.44900763E-05  3.98366997E-05  1.27536813E-05 -1.85738857E-06  1.00089592E-04
  4.00527786E-05  4.55131043E-04 -1.83549066E-04 -3.86702966E-06 -2.91443807E-06
  1.45856839E-04 -1.11760717E-04 -5.93858056E-05 -3.62843900E-05 -1.86011347E-04
 -9.92786763E-05  3.15137965E-06  6.40692841E-06  1.78110878E-05 -2.33764089E-07
 -3.60520016E-06  1.94891562E-06  6.68312279E-06  3.28656946E-05  3.66914434E-05
  2.09361883E-05 -5.06521433E-05 -1.53198005E-05 -1.42947478E-04 -5.14317868E-05
 -1.15008564E-07  1.00073002E-05  2.49639357E-04  1.62620737E-04 -1.81930606E-03
 -5.66467875E-04  1.16070217E-04  1.48686713E-06 -9.86753057E-06  7.15044237E-04
 -5.01374774E-07 -3.89591533E-05 -3.05622084E-04 -4.45333128E-06  3.05117138E-05
  1.18570683E-03  4.63781962E-05 -2.35476264E-04  1.35056574E-04 -1.75235600E-05
 -2.06510064E-05 -4.16284000E-06  3.34677005E-06  1.93851045E-07  4.28776183E-06
 -2.72220007E-06  8.97785266E-06 -2.91945361E-05 -8.57891980E-07  8.01337198E-07
  1.47636232E-05  2.27646118E-04  1.68269277E-04  1.34796608E-06 -4.42334573E-04
 -4.10964154E-05  1.75092881E-04  1.32617022E-04  5.47104331E-06 -3.07351785E-04
 -1.39083601E-06 -1.11950241E-06 -3.05523738E-05 -1.75462029E-06  3.21639289E-06
  3.02903855E-06  3.58642638E-05 -7.87959556E-07  7.75999727E-05 -5.71627573E-05
 -1.07837875E-06 -1.05522102E-04 -7.74433062E-06  1.14289753E-04  1.91679936E-05
  3.50631822E-06  6.30193498E-05  5.17027258E-05 -2.90365894E-04  3.56186671E-04
 -5.78365692E-04 -1.82444928E-07 -1.39956019E-05 -9.97128987E-07  8.16510422E-05
 -6.62151771E-04 -1.61857615E-05 -4.93941500E-05  2.77354419E-04  4.50479650E-06
  1.58938816E-04  1.37687884E-04  7.45291349E-05  7.91763323E-06  1.41786998E-04
 -7.94488689E-06  1.61730933E-05 -3.47248210E-06 -3.54385001E-07  6.73332987E-06
  9.81576308E-06 -3.36491948E-04  9.60956231E-06  9.76908724E-06 -4.88657618E-04
 -1.90353049E-04  7.63709958E-05  1.49781938E-05 -5.17403134E-05  2.03758159E-04
 -6.48719888E-05  6.00455882E-06 -2.45707628E-05  1.61183563E-04  4.33949615E-06
  5.95921908E-06 -1.19048314E-04  1.92385315E-04 -1.14982173E-05 -5.08943763E-05
  1.15018963E-04  1.90566771E-07 -1.41243426E-05 -7.17352092E-05  6.20312474E-05
  3.32202475E-04  1.44712433E-03  1.51750705E-03  1.96042700E-04 -2.41371155E-04
  4.43864212E-05 -4.48695043E-05 -1.35673306E-03  5.09725671E-05 -1.39147667E-04
  1.96539199E-03 -2.01907800E-04  1.53152104E-04  1.61838454E-06 -2.70527387E-06
 -1.33114680E-05 -1.29831080E-05 -7.08282705E-05 -5.54653583E-04  1.23698829E-04
  2.53837337E-06  1.14394448E-03 -2.27889174E-05 -6.88831060E-05 -5.89763571E-05
 -1.10248353E-04  2.96328851E-03  2.44801786E-03 -2.70929062E-05  3.81991482E-05
 -5.97471083E-06 -1.90289414E-05  5.74408561E-04  3.49339547E-05 -3.92980108E-04
  2.60885151E-03  4.15668773E-05 -2.12071827E-04  9.96943971E-04 -4.35033419E-05
 -2.17540087E-05 -3.59257893E-06 -2.32685611E-06 -4.38210894E-05 -3.38036808E-05
 -2.18200816E-04  2.69639682E-05  1.93670719E-05 -2.47228886E-04 -3.72235194E-05
 -3.11013579E-04 -1.82180583E-05  5.20356469E-05 -7.18567868E-04  1.66267344E-04
 -4.39611100E-07  5.71694663E-06 -2.31964438E-05  5.64193427E-06 -2.43813397E-06
  5.20657885E-05 -4.17988206E-05 -9.08882773E-06 -1.08912850E-05 -6.05216356E-05