title                                                                   
SP        RMP2-FC                                                     Gen                 
Number of atoms                            I                4
Info1-9                                    I   N=           9
         135         126           0           0           0         110
           1           2           1
Full Title                                 C   N=           1
title       
Route                                      C   N=           5
#p pop=NBO SP NoSymm mp2/gen Pseudo=read density=current    
Charge                                     I               -1
Multiplicity                               I                1
Number of electrons                        I               52
Number of alpha electrons                  I               26
Number of beta electrons                   I               26
Number of basis functions                  I              174
Number of independent functions            I              174
Number of point charges in /Mol/           I                0
Number of translation vectors              I                0
Atomic numbers                             I   N=           4
           8          53          17           1
Nuclear charges                            R   N=           4
  8.00000000E+00  2.50000000E+01  1.70000000E+01  1.00000000E+00
Current cartesian coordinates              R   N=          12
  0.00000000E+00  0.00000000E+00  0.00000000E+00  6.25933684E+00  0.00000000E+00
  0.00000000E+00 -7.30225624E-01  3.10228121E+00  0.00000000E+00  1.52921159E+00
  0.00000000E+00  1.07076548E+00
Number of symbols in /Mol/                 I                0
Force Field                                I                0
Atom Types                                 C   N=           4
                                                
Int Atom Types                             I   N=           4
           0           0           0           0
MM charges                                 R   N=           4
  0.00000000E+00  0.00000000E+00  0.00000000E+00  0.00000000E+00
Integer atomic weights                     I   N=           4
          16         127          35           1
Real atomic weights                        R   N=           4
  1.59949146E+01  1.26900400E+02  3.49688527E+01  1.00782504E+00
Atom fragment info                         I   N=           4
           0           0           0           0
Atom residue num                           I   N=           4
           0           0           0           0
Nuclear spins                              I   N=           4
           0           5           3           1
Nuclear ZEff                               R   N=           4
 -5.60000000E+00 -5.83000000E+03 -1.42400000E+01 -1.00000000E+00
Nuclear ZNuc                               R   N=           4
  8.00000000E+00  5.30000000E+01  1.70000000E+01  1.00000000E+00
Nuclear QMom                               R   N=           4
  0.00000000E+00 -7.10000000E+01 -8.16500000E+00  0.00000000E+00
Nuclear GFac                               R   N=           4
  0.00000000E+00  2.81328000E+00  8.21874000E-01  2.79284600E+00
MicOpt                                     I   N=           4
          -1          -1          -1          -1
Number of residues                         I                0
Number of secondary structures             I                0
Number of contracted shells                I               56
Number of primitive shells                 I              143
Pure/Cartesian d shells                    I                0
Pure/Cartesian f shells                    I                0
Highest angular momentum                   I                3
Largest degree of contraction              I               11
Shell types                                I   N=          56
           0           0           0           0           0           1
           1           1           1          -2          -2          -2
          -3          -3           0           0           0           0
           0           0           1           1           1           1
           1          -2          -2          -2          -2          -3
          -3           0           0           0           0           0
           0           1           1           1           1           1
          -2          -2          -2          -3          -3           0
           0           0           0           1           1           1
          -2          -2
Number of primitives per shell             I   N=          56
           7           6           1           1           1           3
           1           1           1           1           1           1
           1           1           9           8           1           1
           1           1           8           8           1           1
           1           9           1           1           1           1
           1          11           9           8           1           1
           1           6           6           1           1           1
           1           1           1           1           1           3
           1           1           1           1           1           1
           1           1
Shell to atom map                          I   N=          56
           1           1           1           1           1           1
           1           1           1           1           1           1
           1           1           2           2           2           2
           2           2           2           2           2           2
           2           2           2           2           2           2
           2           3           3           3           3           3
           3           3           3           3           3           3
           3           3           3           3           3           4
           4           4           4           4           4           4
           4           4
Primitive exponents                        R   N=         143
  1.53300000E+04  2.29900000E+03  5.22400000E+02  1.47300000E+02  4.75500000E+01
  1.67600000E+01  6.20700000E+00  5.22400000E+02  1.47300000E+02  4.75500000E+01
  1.67600000E+01  6.20700000E+00  6.88200000E-01  1.75200000E+00  2.38400000E-01
  7.37600000E-02  3.44600000E+01  7.74900000E+00  2.28000000E+00  7.15600000E-01
  2.14000000E-01  5.97400000E-02  2.31400000E+00  6.45000000E-01  2.14000000E-01
  1.42800000E+00  5.00000000E-01  5.54650000E+03  8.38214000E+02  1.82187000E+02
  3.12123000E+01  1.95314000E+01  8.24099000E+00  2.19455000E+00  1.10911000E+00
  8.10610000E-02  5.54650000E+03  8.38214000E+02  3.12123000E+01  1.95314000E+01
  8.24099000E+00  2.19455000E+00  1.10911000E+00  8.10610000E-02  3.74641000E-01
  1.77080000E-01  1.00100000E-01  4.12000000E-02  1.88988000E+02  2.12868000E+01
  1.00396000E+01  3.45180000E+00  1.97456000E+00  1.02420000E+00  4.49437000E-01
  7.34810000E-02  1.88988000E+02  1.00396000E+01  3.45180000E+00  1.97456000E+00
  1.02420000E+00  4.49437000E-01  1.86648000E-01  7.34810000E-02  5.98100000E-01
  9.61800000E-02  3.59000000E-02  1.32662000E+02  3.76054000E+01  1.03891000E+01
  6.49017000E+00  3.45451000E+00  1.84413000E+00  9.62478000E-01  4.72853000E-01
  1.93200000E-01  4.72853000E-01  1.93200000E-01  7.82000000E-02  4.06400000E-01
  1.84800000E-01  4.56100000E+05  6.83300000E+04  1.55500000E+04  4.40500000E+03
  1.43900000E+03  5.20400000E+02  2.03100000E+02  8.39600000E+01  3.62000000E+01
  1.58300000E+01  6.33400000E+00  4.40500000E+03  1.43900000E+03  5.20400000E+02
  2.03100000E+02  8.39600000E+01  3.62000000E+01  1.58300000E+01  6.33400000E+00
  2.69400000E+00  1.43900000E+03  2.03100000E+02  8.39600000E+01  3.62000000E+01
  1.58300000E+01  6.33400000E+00  2.69400000E+00  4.31300000E-01  9.76800000E-01
  1.62500000E-01  5.91000000E-02  6.63300000E+02  1.56800000E+02  4.99800000E+01
  1.84200000E+01  7.24000000E+00  2.92200000E+00  1.56800000E+02  4.99800000E+01
  1.84200000E+01  7.24000000E+00  2.92200000E+00  3.81800000E-01  1.02200000E+00
  1.30100000E-01  4.19000000E-02  1.04600000E+00  3.44000000E-01  1.35000000E-01
  7.06000000E-01  3.12000000E-01  3.38700000E+01  5.09500000E+00  1.15900000E+00
  3.25800000E-01  1.02700000E-01  2.52600000E-02  1.40700000E+00  3.88000000E-01
  1.02000000E-01  1.05700000E+00  2.47000000E-01
Contraction coefficients                   R   N=         143
  5.19808943E-04  4.02025621E-03  2.07128267E-02  8.10105536E-02  2.35962985E-01
  4.42653446E-01  3.57064423E-01 -4.42115008E-05 -1.22591041E-03 -1.05517725E-02
 -6.74452633E-02 -1.71198607E-01  1.07329856E+00  1.00000000E+00  1.00000000E+00
  1.00000000E+00  4.11634896E-02  2.57762836E-01  8.02419274E-01  1.00000000E+00
  1.00000000E+00  1.00000000E+00  1.00000000E+00  1.00000000E+00  1.00000000E+00
  1.00000000E+00  1.00000000E+00  1.58603022E-04  1.00211458E-03  2.83966410E-03
 -4.40310212E-02  2.38198152E-01 -7.63568980E-01  8.96516870E-01  4.68371203E-01
  2.16251781E-03 -2.17177846E-05 -2.59237305E-04 -1.50376554E-02  2.42214079E-02
  6.99888661E-02 -5.50491335E-01 -5.69654432E-01  3.76065139E-01  1.00000000E+00
  1.00000000E+00  1.00000000E+00  1.00000000E+00  5.85232173E-04  3.69335916E-02
 -2.35399435E-01  3.41625365E-01  5.34991615E-01  2.65244797E-01  2.54463150E-02
  3.82802808E-04 -6.76097015E-05  8.33123161E-03 -4.66496478E-02 -5.27406452E-02
 -2.91398344E-02  3.65650039E-01  5.48502805E-01  2.34644635E-01  1.00000000E+00
  1.00000000E+00  1.00000000E+00  5.72000072E-04  4.40200055E-03 -4.09220051E-02
  9.96610125E-02  3.22663040E-01  4.00343050E-01  2.68306034E-01  8.48470106E-02
  7.63200096E-03  1.00000000E+00  1.00000000E+00  1.00000000E+00  1.00000000E+00
  1.00000000E+00  4.93229477E-05  3.83207967E-04  2.00947816E-03  8.38950124E-03
  2.94843950E-02  8.78759948E-02  2.11589759E-01  3.65611554E-01  3.41246350E-01
  1.02162570E-01  2.14249949E-03 -2.21747925E-06 -1.71189708E-04 -1.27922846E-03
 -9.32956265E-03 -3.98910062E-02 -1.05536085E-01  9.36202446E-03  5.10511140E-01
  5.73150737E-01  4.03949245E-06  2.12481765E-04  8.59484452E-04  4.63248159E-03
  4.47343490E-04 -7.38438245E-02 -3.62271994E-01  1.16620337E+00  1.00000000E+00
  1.00000000E+00  1.00000000E+00  2.47206402E-03  1.97550234E-02  9.09917355E-02
  2.63187834E-01  4.49078073E-01  3.60183072E-01  3.03427809E-05 -1.22475826E-03
 -6.01429772E-03 -2.76401323E-02  4.35105612E-04  1.00307272E+00  1.00000000E+00
  1.00000000E+00  1.00000000E+00  1.00000000E+00  1.00000000E+00  1.00000000E+00
  1.00000000E+00  1.00000000E+00  2.54948632E-02  1.90362766E-01  8.52162022E-01
  1.00000000E+00  1.00000000E+00  1.00000000E+00  1.00000000E+00  1.00000000E+00
  1.00000000E+00  1.00000000E+00  1.00000000E+00
Coordinates of each shell                  R   N=         168
  0.00000000E+00  0.00000000E+00  0.00000000E+00  0.00000000E+00  0.00000000E+00
  0.00000000E+00  0.00000000E+00  0.00000000E+00  0.00000000E+00  0.00000000E+00
  0.00000000E+00  0.00000000E+00  0.00000000E+00  0.00000000E+00  0.00000000E+00
  0.00000000E+00  0.00000000E+00  0.00000000E+00  0.00000000E+00  0.00000000E+00
  0.00000000E+00  0.00000000E+00  0.00000000E+00  0.00000000E+00  0.00000000E+00
  0.00000000E+00  0.00000000E+00  0.00000000E+00  0.00000000E+00  0.00000000E+00
  0.00000000E+00  0.00000000E+00  0.00000000E+00  0.00000000E+00  0.00000000E+00
  0.00000000E+00  0.00000000E+00  0.00000000E+00  0.00000000E+00  0.00000000E+00
  0.00000000E+00  0.00000000E+00  6.25933684E+00  0.00000000E+00  0.00000000E+00
  6.25933684E+00  0.00000000E+00  0.00000000E+00  6.25933684E+00  0.00000000E+00
  0.00000000E+00  6.25933684E+00  0.00000000E+00  0.00000000E+00  6.25933684E+00
  0.00000000E+00  0.00000000E+00  6.25933684E+00  0.00000000E+00  0.00000000E+00
  6.25933684E+00  0.00000000E+00  0.00000000E+00  6.25933684E+00  0.00000000E+00
  0.00000000E+00  6.25933684E+00  0.00000000E+00  0.00000000E+00  6.25933684E+00
  0.00000000E+00  0.00000000E+00  6.25933684E+00  0.00000000E+00  0.00000000E+00
  6.25933684E+00  0.00000000E+00  0.00000000E+00  6.25933684E+00  0.00000000E+00
  0.00000000E+00  6.25933684E+00  0.00000000E+00  0.00000000E+00  6.25933684E+00
  0.00000000E+00  0.00000000E+00  6.25933684E+00  0.00000000E+00  0.00000000E+00
  6.25933684E+00  0.00000000E+00  0.00000000E+00 -7.30225624E-01  3.10228121E+00
  0.00000000E+00 -7.30225624E-01  3.10228121E+00  0.00000000E+00 -7.30225624E-01
  3.10228121E+00  0.00000000E+00 -7.30225624E-01  3.10228121E+00  0.00000000E+00
 -7.30225624E-01  3.10228121E+00  0.00000000E+00 -7.30225624E-01  3.10228121E+00
  0.00000000E+00 -7.30225624E-01  3.10228121E+00  0.00000000E+00 -7.30225624E-01
  3.10228121E+00  0.00000000E+00 -7.30225624E-01  3.10228121E+00  0.00000000E+00
 -7.30225624E-01  3.10228121E+00  0.00000000E+00 -7.30225624E-01  3.10228121E+00
  0.00000000E+00 -7.30225624E-01  3.10228121E+00  0.00000000E+00 -7.30225624E-01
  3.10228121E+00  0.00000000E+00 -7.30225624E-01  3.10228121E+00  0.00000000E+00
 -7.30225624E-01  3.10228121E+00  0.00000000E+00 -7.30225624E-01  3.10228121E+00
  0.00000000E+00  1.52921159E+00  0.00000000E+00  1.07076548E+00  1.52921159E+00
  0.00000000E+00  1.07076548E+00  1.52921159E+00  0.00000000E+00  1.07076548E+00
  1.52921159E+00  0.00000000E+00  1.07076548E+00  1.52921159E+00  0.00000000E+00
  1.07076548E+00  1.52921159E+00  0.00000000E+00  1.07076548E+00  1.52921159E+00
  0.00000000E+00  1.07076548E+00  1.52921159E+00  0.00000000E+00  1.07076548E+00
  1.52921159E+00  0.00000000E+00  1.07076548E+00
Num ILSW                                   I              100
ILSW                                       I   N=         100
           0           0           0           0           2           0
           0           0           0           0           0          -1
           5           0           0           0           0           0
           0           0           0           0           0           0
           1           1           0           0           0           0
           0           0      100000           0          -1           0
           0           0           0           0           0           0
           0           0           0           1           0           0
           0 -2000000000           1           0           0           0
           0           0           4          52           0           0
           0           0           0           0           0           0
           0           0           0           4           0           1
           0           0           0           0           0           0
           0           0           0           0           0           0
           0           0           0           0           0           0
           0           0           0           0           0           0
           0           0           0           0
Num RLSW                                   I               52
RLSW                                       R   N=          52
  1.00000000E+00  1.00000000E+00  1.00000000E+00  1.00000000E+00  1.00000000E+00
  0.00000000E+00  0.00000000E+00  1.00000000E+00  0.00000000E+00  0.00000000E+00
  0.00000000E+00  0.00000000E+00  1.00000000E+00  0.00000000E+00  0.00000000E+00
  0.00000000E+00  0.00000000E+00  1.00000000E+00  0.00000000E+00  0.00000000E+00
  0.00000000E+00  0.00000000E+00  1.00000000E+00  0.00000000E+00  0.00000000E+00
  0.00000000E+00  0.00000000E+00  1.00000000E+00  0.00000000E+00  0.00000000E+00
  0.00000000E+00  0.00000000E+00  1.00000000E+00  0.00000000E+00  0.00000000E+00
  0.00000000E+00  0.00000000E+00  0.00000000E+00  1.00000000E+00  1.00000000E+00
  0.00000000E+00  1.00000000E+00  0.00000000E+00  0.00000000E+00  0.00000000E+00
  0.00000000E+00  0.00000000E+00  0.00000000E+00  0.00000000E+00  0.00000000E+00
  0.00000000E+00  0.00000000E+00
ECP-MxAtEC                                 I           250000
ECP-MaxLECP                                I               10
ECP-MaxAtL                                 I          2250000
ECP-MxTECP                                 I         11250000
ECP-LenNCZ                                 I               16
ECP-KFirst                                 I   N=          40
           0           1           0           0           0           2
           0           0           0           5           0           0
           0           9           0           0           0          13
           0           0           0           0           0           0
           0           0           0           0           0           0
           0           0           0           0           0           0
           0           0           0           0
ECP-KLast                                  I   N=          40
           0           1           0           0           0           4
           0           0           0           8           0           0
           0          12           0           0           0          16
           0           0           0           0           0           0
           0           0           0           0           0           0
           0           0           0           0           0           0
           0           0           0           0
ECP-LMax                                   I   N=           4
           0           4           0           0
ECP-LPSkip                                 I   N=           4
           1           0           1           1
ECP-RNFroz                                 R   N=           4
  0.00000000E+00  2.80000000E+01  0.00000000E+00  0.00000000E+00
ECP-NLP                                    I   N=          16
           2           2           2           2           2           2
           2           2           2           2           2           2
           2           2           2           2
ECP-CLP1                                   R   N=          16
  0.00000000E+00  4.99896490E+01  2.81006556E+02  6.14167390E+01  6.74162390E+01
  1.34807696E+02  1.45665480E+01  2.89684220E+01  3.55387560E+01  5.33397590E+01
  9.71646600E+00  1.49775000E+01 -2.01766180E+01 -2.60880770E+01 -2.20434000E-01
 -2.21646000E-01
ECP-CLP2                                   R   N=          16
  0.00000000E+00  0.00000000E+00  0.00000000E+00  0.00000000E+00  0.00000000E+00
  0.00000000E+00  0.00000000E+00  0.00000000E+00  0.00000000E+00  0.00000000E+00
  0.00000000E+00  0.00000000E+00  0.00000000E+00  0.00000000E+00  0.00000000E+00
  0.00000000E+00
ECP-ZLP                                    R   N=          16
  1.00000000E+00  4.00333760E+01  1.73005760E+01  8.85172000E+00  1.57201410E+01
  1.52082220E+01  8.29418600E+00  7.75394900E+00  1.38177510E+01  1.35878050E+01
  6.94763000E+00  6.96009900E+00  1.85229500E+01  1.82510350E+01  7.55790100E+00
  7.59740400E+00
MxBond                                     I                2
NBond                                      I   N=           4
           2           0           1           1
IBond                                      I   N=           8
           3           4           0           0           1           0
           1           0
RBond                                      R   N=           8
  1.00000000E+00  1.00000000E+00  0.00000000E+00  0.00000000E+00  1.00000000E+00
  0.00000000E+00  1.00000000E+00  0.00000000E+00
Virial Ratio                               R      2.285013467373005E+00
SCF Energy                                 R     -8.296789644623351E+02
MP2 Energy                                 R     -8.303584784545932E+02
Total Energy                               R     -8.303584784545932E+02
Post-SCF wavefunction norm                 R      1.108201816474042E+00
RMS Density                                R      7.777730077827024E-09
Job Status                                 I                1
Nuclear derivative order                   I                0
External E-field                           R   N=          35
  0.00000000E+00  0.00000000E+00  0.00000000E+00  0.00000000E+00  0.00000000E+00
  0.00000000E+00  0.00000000E+00  0.00000000E+00  0.00000000E+00  0.00000000E+00
  0.00000000E+00  0.00000000E+00  0.00000000E+00  0.00000000E+00  0.00000000E+00
  0.00000000E+00  0.00000000E+00  0.00000000E+00  0.00000000E+00  0.00000000E+00
  0.00000000E+00  0.00000000E+00  0.00000000E+00  0.00000000E+00  0.00000000E+00
  0.00000000E+00  0.00000000E+00  0.00000000E+00  0.00000000E+00  0.00000000E+00
  0.00000000E+00  0.00000000E+00  0.00000000E+00  0.00000000E+00  0.00000000E+00
IOpCl                                      I                0
IROHF                                      I                0
Alpha Orbital Energies                     R   N=         174
 -1.04748499E+02 -2.04888836E+01 -1.04680799E+01 -7.93526280E+00 -7.93250081E+00
 -7.93235815E+00 -7.46959867E+00 -5.29536490E+00 -5.29483162E+00 -5.29469920E+00
 -2.02282697E+00 -2.02262306E+00 -2.02251213E+00 -2.02189042E+00 -2.02188160E+00
 -1.25772817E+00 -9.14840885E-01 -6.32420475E-01 -5.63756599E-01 -4.64542380E-01
 -4.55624770E-01 -3.25867616E-01 -2.99876434E-01 -1.51207494E-01 -1.44844375E-01
 -1.44013524E-01  1.48138782E-01  1.73037562E-01  2.15120914E-01  2.22963312E-01
  2.41418662E-01  2.51906688E-01  2.54155953E-01  2.70115620E-01  2.77150409E-01
  2.96287535E-01  3.11087204E-01  3.20023026E-01  3.42310618E-01  3.70722227E-01
  3.80813354E-01  3.85022942E-01  4.21315046E-01  4.35273922E-01  4.55582034E-01
  4.94795530E-01  5.04120683E-01  5.31339826E-01  5.40013053E-01  5.66044516E-01
  5.70892414E-01  5.82690881E-01  6.33854638E-01  6.39166692E-01  6.69892168E-01
  7.43810944E-01  7.55104453E-01  7.80756588E-01  7.83017938E-01  7.95622065E-01
  7.96771348E-01  7.98869510E-01  8.08882330E-01  8.20520250E-01  8.33380999E-01
  8.44655045E-01  8.77179719E-01  8.78863819E-01  8.86851143E-01  8.93474936E-01
  9.03753673E-01  9.24848151E-01  9.37488168E-01  9.59370629E-01  9.80036059E-01
  9.95101670E-01  1.01592847E+00  1.05162509E+00  1.06411869E+00  1.09502659E+00
  1.10790642E+00  1.13649994E+00  1.15317937E+00  1.19313127E+00  1.21656432E+00
  1.23401735E+00  1.28806181E+00  1.31080843E+00  1.33108159E+00  1.35928649E+00
  1.38990060E+00  1.42097182E+00  1.50872375E+00  1.52383610E+00  1.58959535E+00
  1.61868128E+00  1.64039112E+00  1.67073830E+00  1.69940878E+00  1.72740992E+00
  1.75302902E+00  1.75307134E+00  1.77268527E+00  1.77973977E+00  1.80476662E+00
  1.83984947E+00  1.84861075E+00  1.86782329E+00  1.90931778E+00  1.96070006E+00
  2.05222986E+00  2.05937987E+00  2.08365333E+00  2.11660242E+00  2.12614617E+00
  2.26288322E+00  2.34066800E+00  2.40328819E+00  2.49113311E+00  2.50351633E+00
  2.52663659E+00  2.58344618E+00  2.60246154E+00  2.62708002E+00  2.66584931E+00
  2.68715678E+00  2.69956798E+00  2.71800775E+00  2.75617319E+00  2.77091316E+00
  2.79738394E+00  2.93720417E+00  2.97940094E+00  3.08364613E+00  3.16329341E+00
  3.18462702E+00  3.20248534E+00  3.21660173E+00  3.22361665E+00  3.24030753E+00
  3.28271572E+00  3.33747052E+00  3.48843297E+00  3.52671290E+00  3.53458202E+00
  3.82319340E+00  3.90738119E+00  4.00643048E+00  4.33008997E+00  4.45884294E+00
  4.53103091E+00  4.59290318E+00  4.70881871E+00  4.90832669E+00  4.98443551E+00
  5.33878314E+00  5.41731380E+00  5.67100022E+00  6.36204695E+00  6.59495961E+00
  6.84360519E+00  6.88382853E+00  6.89649264E+00  6.96462368E+00  7.30857913E+00
  7.33906889E+00  7.34762489E+00  7.42916965E+00  7.49034478E+00  7.67314335E+00
  7.71822902E+00  8.35855721E+00  1.44471170E+01  5.92027760E+01
Alpha MO coefficients                      R   N=       30276
  6.15579531E-06  3.36180793E-05  1.20289254E-06 -1.35286593E-04 -7.83048114E-05
 -1.32768246E-07  3.20009211E-06  6.46985319E-07 -3.77269126E-07 -9.59094134E-06
 -2.81679424E-06  4.89894915E-05 -1.50784504E-04  5.43077132E-06  1.48854038E-05
 -3.18627190E-05  5.28222593E-06 -1.94531315E-06  2.57991744E-07  1.39857951E-07
 -2.99354099E-06 -1.37328082E-06  1.31717899E-05 -4.05513455E-07 -9.20397000E-07
  2.10421926E-05  9.26198686E-06  2.70099925E-05  8.43366936E-06 -8.02181377E-06
  5.58440556E-05  1.32756761E-05 -1.46501667E-07 -9.65341235E-08  5.02375955E-07
 -7.22379558E-07  7.96402113E-07 -1.21899960E-06  6.81967651E-07  8.50732473E-08
 -2.30311418E-06  1.09528602E-05  3.46746756E-06 -3.26895823E-06 -6.19279469E-06
  1.02997304E-05 -7.68128958E-08  8.16265977E-08 -1.04177938E-06  1.51982178E-05
 -2.26294056E-05 -5.10338023E-06 -2.04156711E-07  3.93464489E-08  7.49220803E-08
 -3.71165310E-06  3.77434715E-07  6.44627920E-07 -1.33664531E-08 -9.56389009E-08
 -7.42344016E-08  1.76861441E-05 -1.21589910E-06 -3.74703246E-06  2.97610889E-06
 -2.59642834E-07  5.67020613E-07  8.77499273E-08  6.17818320E-08 -2.87786102E-08
 -3.02778405E-07 -7.49206754E-08 -6.92423002E-07 -4.74660040E-07  9.13612258E-08
  1.87532438E-06  2.36674643E-07  2.18050697E-06  1.98322239E-06  1.51536243E-08
 -5.24971687E-06 -1.59451009E-07  3.07802954E-06  1.32418138E-06 -9.37097985E-07
 -4.46092253E-06  1.23009449E-06  5.61913651E-08  5.59756982E-09  1.92225293E-07
 -7.57977573E-08 -6.85863046E-07 -4.75654948E-07 -3.01187895E-07  6.44212601E-07
 -1.57227492E-06 -2.53114737E-07 -8.75651973E-07  1.30983026E-06  3.28542677E-06
  2.42918821E-07  9.99534910E-01  1.95300075E-03  1.83633392E-04 -4.16887707E-04
  6.90053275E-05  7.18963759E-05  1.66371278E-05 -7.66208358E-05  2.16642682E-06
  3.46019640E-05 -1.34123218E-04  3.61558482E-06 -1.69846180E-05  7.22945377E-05
 -2.02140882E-06  7.40575519E-06 -5.40770047E-05 -2.92202493E-06  1.81808212E-06
 -1.16918903E-05 -1.28928842E-06 -3.79225337E-06  1.91273256E-07 -1.77915536E-07
 -5.46538847E-06 -3.35711290E-06 -2.79090946E-05  4.70764626E-07 -1.17802793E-06
 -4.32895188E-05 -2.30522397E-05 -2.94771919E-06 -3.41235514E-06  7.34327982E-07
 -7.37162592E-06 -2.49277656E-07 -6.51769774E-07 -1.36317183E-06  5.72959405E-06
  3.54578353E-07 -1.19853804E-06 -5.02931540E-06  4.64411015E-06  1.09352625E-06
 -1.03296899E-06  3.76713439E-06 -1.24321471E-06  2.32665023E-06 -3.31648698E-06
  6.11746851E-06 -6.91810099E-07 -2.15903734E-05  1.38707183E-05 -6.75855731E-06
  1.18210525E-06 -2.25309109E-06  4.71886329E-07 -8.17971927E-06  1.68095392E-05
 -6.48893387E-07  9.39251644E-06  1.59110257E-05 -2.73261490E-06 -6.97181452E-07
 -3.05187472E-08 -1.10396753E-07 -1.48143350E-06 -8.71159831E-07 -6.02147292E-06
  2.99876704E-06 -1.41094124E-06  3.97417366E-06 -3.84695977E-06  9.76841199E-01
 -9.06512358E-03  4.33705940E-02  2.22657495E-03  4.64271476E-04  6.97144383E-04
  1.54641900E-03  8.82271052E-04 -7.76431881E-04 -1.20051142E-03 -8.18184627E-04
 -3.06567900E-04  7.87394382E-04 -3.04605988E-04 -1.29038637E-04  1.70250187E-04
 -9.70633089E-05  5.34260631E-05  2.84425311E-05  1.30504745E-06  1.01508394E-04
  4.24538445E-05  1.99578006E-04 -4.56428526E-04 -2.34756568E-05  8.54231075E-05
  1.67820815E-04 -2.06783086E-04 -8.00801945E-05  2.00178016E-05 -2.49749636E-04
 -1.87563393E-04  8.02900770E-06 -1.14579791E-05  1.24952162E-05 -2.70591400E-06
 -1.36975450E-05 -1.12486827E-05  1.01144060E-05  3.87833721E-05 -6.67407535E-05
 -1.42090932E-05 -1.18959397E-04 -3.05125652E-05 -5.04214096E-05 -4.88286003E-05
  2.23251876E-06 -1.95432555E-06  3.00584265E-05 -2.92648073E-04  4.65258315E-04
  7.73100548E-05  1.19142915E-06  1.18220750E-06  6.57467073E-09  7.28019996E-05
  1.76179422E-06  1.81518026E-05 -4.38766652E-07 -3.29504589E-06  5.27378384E-06
 -3.48924093E-04  2.93916398E-05 -9.54317667E-05 -2.90942015E-05 -1.61178017E-05
 -4.34849840E-06 -5.10780714E-06  3.97749375E-06  1.47230487E-07  2.76612064E-06
 -1.93132386E-06  3.35121650E-05 -2.71428891E-05 -3.64212194E-07 -2.56467722E-05
  9.95167992E-06 -8.72699251E-05  8.12785830E-05 -3.95717769E-07  7.75277300E-05
 -2.86439367E-05 -7.23335333E-05  5.50833071E-05  1.08140107E-05  8.44328547E-05
  1.21710300E-05 -1.64486813E-08 -1.78942214E-05 -6.17075334E-06  1.37186177E-05
  5.04849993E-06 -5.84394841E-06  3.03055126E-06  3.59244702E-05  1.07102778E-04
  9.68404403E-06 -8.16905283E-05 -9.87956979E-06 -2.32695653E-05  2.05434414E-08
  3.91741517E-06  6.46909913E-05  6.83676595E-05 -2.60028513E-04 -1.62270969E-04
 -4.97913308E-04 -4.98109744E-06 -2.79229295E-06 -2.92786575E-06  2.40561705E-05
 -4.78759479E-04 -4.84816471E-05 -3.06750556E-05  2.33205385E-04  1.35700362E-05
  2.04157127E-04  4.95220845E-04  1.06069662E-04 -1.73542601E-05  1.10320256E-04
  2.03500493E-05  1.38213107E-05 -2.29139769E-06  2.74998660E-07  1.16828150E-05
  1.10379263E-05 -2.80010523E-04  1.45916762E-06  2.94905820E-05 -4.23822468E-04
 -1.82941701E-04  1.37899926E-04  5.83090739E-05 -5.84780811E-05  3.53578142E-04
 -3.00005838E-05  1.11353964E-05 -3.24415266E-05  1.59342798E-04  2.01485509E-06
  8.82963267E-06 -1.23902567E-04  1.85694143E-04 -1.44416140E-05 -2.60300923E-05
  8.82342462E-05  1.86298971E-05 -2.19283412E-05 -7.15398785E-05  4.19538012E-05
  4.23496906E-04  1.70751860E-03 -7.50333105E-04  1.14288582E-05 -2.25217454E-04
  5.54416973E-05 -1.52965090E-04 -9.32039240E-04 -1.14899338E-05 -5.29044904E-04
 -1.66575698E-04 -2.54444298E-04  4.48872478E-04 -1.88872618E-05 -3.09746002E-05
 -4.46074822E-05  4.78689728E-06 -5.88247598E-05 -7.17450085E-05  4.42260111E-04
  1.67581976E-05  3.70932277E-04  4.59193574E-05 -7.79930781E-05 -1.09133139E-04
 -1.03087621E-04  2.53872361E-03  1.82485058E-03 -1.97519672E-05  3.52091639E-05
 -1.15029901E-05 -9.19897257E-05  5.93262400E-04  5.55513453E-05 -6.19526279E-04
  2.51808599E-03  4.38523318E-06 -3.25282426E-04  7.98470071E-04 -1.26078763E-04
 -2.93336949E-05 -5.85565778E-06 -8.26666625E-06 -4.50504725E-05 -3.30484457E-05
 -1.67016095E-04  3.72400595E-05  6.36722497E-05 -2.65243757E-04 -5.13198916E-05
 -2.95644853E-04 -1.07093278E-04  1.97406228E-04 -7.22665595E-04  3.64181265E-05
 -3.70714621E-06  1.04901992E-05 -3.00286355E-05  1.64596084E-05 -1.09565321E-05
  4.25064431E-05 -3.67720308E-05  4.71830984E-06  1.09912519E-05  1.46130756E-05