 Entering Gaussian System, Link 0=g16
 Input=ihocl_5_sp.gjf
 Output=ihocl_5_sp.log
 Initial command:
 /sw/contrib/gaussian/g16/B01/g16/l1.exe "/scr/Gau-156779.inp" -scrdir="/scr/"
 Entering Link 1 = /sw/contrib/gaussian/g16/B01/g16/l1.exe PID=    156780.
  
 Copyright (c) 1988-2017, Gaussian, Inc.  All Rights Reserved.
  
 This is part of the Gaussian(R) 16 program.  It is based on
 the Gaussian(R) 09 system (copyright 2009, Gaussian, Inc.),
 the Gaussian(R) 03 system (copyright 2003, Gaussian, Inc.),
 the Gaussian(R) 98 system (copyright 1998, Gaussian, Inc.),
 the Gaussian(R) 94 system (copyright 1995, Gaussian, Inc.),
 the Gaussian 92(TM) system (copyright 1992, Gaussian, Inc.),
 the Gaussian 90(TM) system (copyright 1990, Gaussian, Inc.),
 the Gaussian 88(TM) system (copyright 1988, Gaussian, Inc.),
 the Gaussian 86(TM) system (copyright 1986, Carnegie Mellon
 University), and the Gaussian 82(TM) system (copyright 1983,
 Carnegie Mellon University). Gaussian is a federally registered
 trademark of Gaussian, Inc.
  
 This software contains proprietary and confidential information,
 including trade secrets, belonging to Gaussian, Inc.
  
 This software is provided under written license and may be
 used, copied, transmitted, or stored only in accord with that
 written license.
  
 The following legend is applicable only to US Government
 contracts under FAR:
  
                    RESTRICTED RIGHTS LEGEND
  
 Use, reproduction and disclosure by the US Government is
 subject to restrictions as set forth in subparagraphs (a)
 and (c) of the Commercial Computer Software - Restricted
 Rights clause in FAR 52.227-19.
  
 Gaussian, Inc.
 340 Quinnipiac St., Bldg. 40, Wallingford CT 06492
  
  
 ---------------------------------------------------------------
 Warning -- This program may not be used in any manner that
 competes with the business of Gaussian, Inc. or will provide
 assistance to any competitor of Gaussian, Inc.  The licensee
 of this program is prohibited from giving any competitor of
 Gaussian, Inc. access to this program.  By using this program,
 the user acknowledges that Gaussian, Inc. is engaged in the
 business of creating and licensing software in the field of
 computational chemistry and represents and warrants to the
 licensee that it is not a competitor of Gaussian, Inc. and that
 it will not use this program in any manner prohibited above.
 ---------------------------------------------------------------
  

 Cite this work as:
 Gaussian 16, Revision B.01,
 M. J. Frisch, G. W. Trucks, H. B. Schlegel, G. E. Scuseria, 
 M. A. Robb, J. R. Cheeseman, G. Scalmani, V. Barone, 
 G. A. Petersson, H. Nakatsuji, X. Li, M. Caricato, A. V. Marenich, 
 J. Bloino, B. G. Janesko, R. Gomperts, B. Mennucci, H. P. Hratchian, 
 J. V. Ortiz, A. F. Izmaylov, J. L. Sonnenberg, D. Williams-Young, 
 F. Ding, F. Lipparini, F. Egidi, J. Goings, B. Peng, A. Petrone, 
 T. Henderson, D. Ranasinghe, V. G. Zakrzewski, J. Gao, N. Rega, 
 G. Zheng, W. Liang, M. Hada, M. Ehara, K. Toyota, R. Fukuda, 
 J. Hasegawa, M. Ishida, T. Nakajima, Y. Honda, O. Kitao, H. Nakai, 
 T. Vreven, K. Throssell, J. A. Montgomery, Jr., J. E. Peralta, 
 F. Ogliaro, M. J. Bearpark, J. J. Heyd, E. N. Brothers, K. N. Kudin, 
 V. N. Staroverov, T. A. Keith, R. Kobayashi, J. Normand, 
 K. Raghavachari, A. P. Rendell, J. C. Burant, S. S. Iyengar, 
 J. Tomasi, M. Cossi, J. M. Millam, M. Klene, C. Adamo, R. Cammi, 
 J. W. Ochterski, R. L. Martin, K. Morokuma, O. Farkas, 
 J. B. Foresman, and D. J. Fox, Gaussian, Inc., Wallingford CT, 2016.
 
 ******************************************
 Gaussian 16:  ES64L-G16RevB.01 20-Dec-2017
                28-Sep-2021 
 ******************************************
 %nproc=28
 Will use up to   28 processors via shared memory.
 %mem=120GB
 %chk=/gscratch/ilahie/mccoygrp/coire_hocl/ihocl/ihocl_5_sp.chk
 --------------------------------------------------------
 #p pop=NBO SP NoSymm mp2/gen Pseudo=read density=current
 --------------------------------------------------------
 1/30=1,38=1,172=1/1;
 2/12=2,15=1,17=6,18=5,40=1/2;
 3/5=7,11=9,16=1,17=8,25=1,30=1,71=1/1,2,3;
 4//1;
 5/5=2,38=5/2;
 8/6=4,10=1/1;
 9/15=1,16=-3/6;
 10/5=1,13=10,31=1/2;
 6/7=2,8=2,9=2,10=2,22=-1,40=1/1,7;
 99/5=1,9=1/99;
 Leave Link    1 at Tue Sep 28 09:15:17 2021, MaxMem= 16106127360 cpu:               0.8 elap:               0.0
 (Enter /sw/contrib/gaussian/g16/B01/g16/l101.exe)
 -----
 title
 -----
 Symbolic Z-matrix:
 Charge = -1 Multiplicity = 1
 O                     0.        0.        0. 
 I                     3.3123    0.        0. 
 Cl                   -0.38642   1.64166   0. 
 H                     1.00379   0.        0.08782 
 
 ITRead=  0  0  0  0
 MicOpt= -1 -1 -1 -1
 NAtoms=      4 NQM=        4 NQMF=       0 NMMI=      0 NMMIF=      0
                NMic=       0 NMicF=      0.
                    Isotopes and Nuclear Properties:
 (Nuclear quadrupole moments (NQMom) in fm**2, nuclear magnetic moments (NMagM)
  in nuclear magnetons)

  Atom         1           2           3           4
 IAtWgt=          16         127          35           1
 AtmWgt=  15.9949146 126.9004000  34.9688527   1.0078250
 NucSpn=           0           5           3           1
 AtZEff=  -0.0000000  -0.0000000  -0.0000000  -0.0000000
 NQMom=    0.0000000 -71.0000000  -8.1650000   0.0000000
 NMagM=    0.0000000   2.8132800   0.8218740   2.7928460
 AtZNuc=   8.0000000  53.0000000  17.0000000   1.0000000
 Leave Link  101 at Tue Sep 28 09:15:17 2021, MaxMem= 16106127360 cpu:               2.4 elap:               0.1
 (Enter /sw/contrib/gaussian/g16/B01/g16/l202.exe)
                          Input orientation:                          
 ---------------------------------------------------------------------
 Center     Atomic      Atomic             Coordinates (Angstroms)
 Number     Number       Type             X           Y           Z
 ---------------------------------------------------------------------
      1          8           0        0.000000    0.000000    0.000000
      2         53           0        3.312298    0.000000    0.000000
      3         17           0       -0.386419    1.641657    0.000000
      4          1           0        1.003786    0.000000    0.087820
 ---------------------------------------------------------------------
                    Distance matrix (angstroms):
                    1          2          3          4
     1  O    0.000000
     2  I    3.312298   0.000000
     3  Cl   1.686522   4.046671   0.000000
     4  H    1.007620   2.310183   2.153002   0.000000
 Symmetry turned off by external request.
 Stoichiometry    ClHIO(1-)
 Framework group  C1[X(ClHIO)]
 Deg. of freedom     6
 Full point group                 C1      NOp   1
 Rotational constants (GHZ):          21.7623970           0.9695489           0.9282220
 Leave Link  202 at Tue Sep 28 09:15:17 2021, MaxMem= 16106127360 cpu:               2.5 elap:               0.1
 (Enter /sw/contrib/gaussian/g16/B01/g16/l301.exe)
 General basis read from cards:  (5D, 7F)
 Centers:       4      1      3
 aug-cc-pVTZ
 ****
 Centers:       2
 S 11 1.00
     Exponent=  5.5465000000D+03 Coefficients=  1.5600000000D-04
     Exponent=  8.3821400000D+02 Coefficients=  9.8600000000D-04
     Exponent=  1.8218700000D+02 Coefficients=  2.7920000000D-03
     Exponent=  3.1212300000D+01 Coefficients= -4.3251000000D-02
     Exponent=  1.9531400000D+01 Coefficients=  2.3413400000D-01
     Exponent=  8.2409900000D+00 Coefficients= -7.5094300000D-01
     Exponent=  2.1945500000D+00 Coefficients=  8.8296800000D-01
     Exponent=  1.1091100000D+00 Coefficients=  4.6206100000D-01
     Exponent=  3.7464100000D-01 Coefficients=  2.2286000000D-02
     Exponent=  1.7708000000D-01 Coefficients= -4.3530000000D-03
     Exponent=  8.1061000000D-02 Coefficients=  1.1020000000D-03
 S 11 1.00
     Exponent=  5.5465000000D+03 Coefficients= -7.3000000000D-05
     Exponent=  8.3821400000D+02 Coefficients= -5.0800000000D-04
     Exponent=  1.8218700000D+02 Coefficients= -1.1580000000D-03
     Exponent=  3.1212300000D+01 Coefficients=  1.2193000000D-02
     Exponent=  1.9531400000D+01 Coefficients= -8.7854000000D-02
     Exponent=  8.2409900000D+00 Coefficients=  3.3820000000D-01
     Exponent=  2.1945500000D+00 Coefficients= -5.7655000000D-01
     Exponent=  1.1091100000D+00 Coefficients= -4.0929800000D-01
     Exponent=  3.7464100000D-01 Coefficients=  5.6745900000D-01
     Exponent=  1.7708000000D-01 Coefficients=  6.1248900000D-01
     Exponent=  8.1061000000D-02 Coefficients=  1.4323100000D-01
 S 1 1.00
     Exponent=  3.7464100000D-01 Coefficients=  1.0000000000D+00
 S 1 1.00
     Exponent=  1.7708000000D-01 Coefficients=  1.0000000000D+00
 S 1 1.00
     Exponent=  1.0010000000D-01 Coefficients=  1.0000000000D+00
 S 1 1.00
     Exponent=  4.1200000000D-02 Coefficients=  1.0000000000D+00
 P 9 1.00
     Exponent=  1.8898800000D+02 Coefficients=  5.8500000000D-04
     Exponent=  2.1286800000D+01 Coefficients=  3.6923000000D-02
     Exponent=  1.0039600000D+01 Coefficients= -2.3532400000D-01
     Exponent=  3.4518000000D+00 Coefficients=  3.4148300000D-01
     Exponent=  1.9745600000D+00 Coefficients=  5.3478800000D-01
     Exponent=  1.0242000000D+00 Coefficients=  2.6514100000D-01
     Exponent=  4.4943700000D-01 Coefficients=  2.5787000000D-02
     Exponent=  1.8664800000D-01 Coefficients=  5.2200000000D-04
     Exponent=  7.3481000000D-02 Coefficients=  6.0600000000D-04
 P 9 1.00
     Exponent=  1.8898800000D+02 Coefficients= -2.5600000000D-04
     Exponent=  2.1286800000D+01 Coefficients= -1.1682000000D-02
     Exponent=  1.0039600000D+01 Coefficients=  8.3192000000D-02
     Exponent=  3.4518000000D+00 Coefficients= -1.5697000000D-01
     Exponent=  1.9745600000D+00 Coefficients= -2.2451800000D-01
     Exponent=  1.0242000000D+00 Coefficients= -1.1445100000D-01
     Exponent=  4.4943700000D-01 Coefficients=  3.7535600000D-01
     Exponent=  1.8664800000D-01 Coefficients=  5.7513600000D-01
     Exponent=  7.3481000000D-02 Coefficients=  2.4591700000D-01
 P 1 1.00
     Exponent=  5.9810000000D-01 Coefficients=  1.0000000000D+00
 P 1 1.00
     Exponent=  9.6180000000D-02 Coefficients=  1.0000000000D+00
 P 1 1.00
     Exponent=  3.5900000000D-02 Coefficients=  1.0000000000D+00
 D 9 1.00
     Exponent=  1.3266200000D+02 Coefficients=  5.7200000000D-04
     Exponent=  3.7605400000D+01 Coefficients=  4.4020000000D-03
     Exponent=  1.0389100000D+01 Coefficients= -4.0922000000D-02
     Exponent=  6.4901700000D+00 Coefficients=  9.9661000000D-02
     Exponent=  3.4545100000D+00 Coefficients=  3.2266300000D-01
     Exponent=  1.8441300000D+00 Coefficients=  4.0034300000D-01
     Exponent=  9.6247800000D-01 Coefficients=  2.6830600000D-01
     Exponent=  4.7285300000D-01 Coefficients=  8.4847000000D-02
     Exponent=  1.9320000000D-01 Coefficients=  7.6320000000D-03
 D 1 1.00
     Exponent=  4.7285300000D-01 Coefficients=  1.0000000000D+00
 D 1 1.00
     Exponent=  1.9320000000D-01 Coefficients=  1.0000000000D+00
 D 1 1.00
     Exponent=  7.8200000000D-02 Coefficients=  1.0000000000D+00
 F 1 1.00
     Exponent=  4.0640000000D-01 Coefficients=  1.0000000000D+00
 F 1 1.00
     Exponent=  1.8480000000D-01 Coefficients=  1.0000000000D+00
 ****
 ======================================================================================================
                                       Pseudopotential Parameters
 ======================================================================================================
  Center     Atomic      Valence      Angular      Power
  Number     Number     Electrons     Momentum     of R      Exponent        Coefficient   SO-Coeffient
 ======================================================================================================
    1          8
                                   No pseudopotential on this center.
    2         53           25
                                      G and up 
                                                     2        1.0000000        0.00000000    0.00000000
                                      S - G
                                                     2       40.0333760       49.98964900    0.00000000
                                                     2       17.3005760      281.00655600    0.00000000
                                                     2        8.8517200       61.41673900    0.00000000
                                      P - G
                                                     2       15.7201410       67.41623900    0.00000000
                                                     2       15.2082220      134.80769600    0.00000000
                                                     2        8.2941860       14.56654800    0.00000000
                                                     2        7.7539490       28.96842200    0.00000000
                                      D - G
                                                     2       13.8177510       35.53875600    0.00000000
                                                     2       13.5878050       53.33975900    0.00000000
                                                     2        6.9476300        9.71646600    0.00000000
                                                     2        6.9600990       14.97750000    0.00000000
                                      F - G
                                                     2       18.5229500      -20.17661800    0.00000000
                                                     2       18.2510350      -26.08807700    0.00000000
                                                     2        7.5579010       -0.22043400    0.00000000
                                                     2        7.5974040       -0.22164600    0.00000000
    3         17
                                   No pseudopotential on this center.
    4          1
                                   No pseudopotential on this center.
 ======================================================================================================
 Ernie: Thresh=  0.10000D-02 Tol=  0.10000D-05 Strict=F.
 Ernie:  23 primitive shells out of 166 were deleted.
   174 basis functions,   383 primitive gaussians,   204 cartesian basis functions
    26 alpha electrons       26 beta electrons
       nuclear repulsion energy       144.3077292292 Hartrees.
 IExCor=    0 DFT=F Ex=HF Corr=None ExCW=0 ScaHFX=  1.000000
 ScaDFX=  1.000000  1.000000  1.000000  1.000000 ScalE2=  1.000000  1.000000
 IRadAn=      5 IRanWt=     -1 IRanGd=            0 ICorTp=0 IEmpDi=  4
 NAtoms=    4 NActive=    4 NUniq=    4 SFac= 1.00D+00 NAtFMM=   60 NAOKFM=F Big=F
 Integral buffers will be    131072 words long.
 Raffenetti 1 integral format.
 Two-electron integral symmetry is turned off.
 Leave Link  301 at Tue Sep 28 09:15:17 2021, MaxMem= 16106127360 cpu:               2.3 elap:               0.1
 (Enter /sw/contrib/gaussian/g16/B01/g16/l302.exe)
 NPDir=0 NMtPBC=     1 NCelOv=     1 NCel=       1 NClECP=     1 NCelD=      1
         NCelK=      1 NCelE2=     1 NClLst=     1 CellRange=     0.0.
 One-electron integrals computed using PRISM.
   1 Symmetry operations used in ECPInt.
 ECPInt:  NShTT=    1596 NPrTT=   10643 LenC2=    1597 LenP2D=    8416.
 LDataN:  DoStor=T MaxTD1= 7 Len=  274
 NBasis=   174 RedAO= T EigKep=  2.28D-04  NBF=   174
 NBsUse=   174 1.00D-06 EigRej= -1.00D+00 NBFU=   174
 Leave Link  302 at Tue Sep 28 09:15:17 2021, MaxMem= 16106127360 cpu:               6.1 elap:               0.2
 (Enter /sw/contrib/gaussian/g16/B01/g16/l303.exe)
 DipDrv:  MaxL=1.
 Leave Link  303 at Tue Sep 28 09:15:17 2021, MaxMem= 16106127360 cpu:               1.6 elap:               0.1
 (Enter /sw/contrib/gaussian/g16/B01/g16/l401.exe)
 ExpMin= 2.53D-02 ExpMax= 4.56D+05 ExpMxC= 1.44D+03 IAcc=3 IRadAn=         5 AccDes= 0.00D+00
 Harris functional with IExCor=  205 and IRadAn=       5 diagonalized for initial guess.
 HarFok:  IExCor=  205 AccDes= 0.00D+00 IRadAn=         5 IDoV= 1 UseB2=F ITyADJ=14
 ICtDFT=  3500011 ScaDFX=  1.000000  1.000000  1.000000  1.000000
 Defaulting to unpruned grid for atomic number  53.
 FoFCou: FMM=F IPFlag=           0 FMFlag=      100000 FMFlg1=           0
         NFxFlg=           0 DoJE=T BraDBF=F KetDBF=T FulRan=T
         wScrn=  0.000000 ICntrl=       500 IOpCl=  0 I1Cent=   200000004 NGrid=           0
         NMat0=    1 NMatS0=      1 NMatT0=    0 NMatD0=    1 NMtDS0=    0 NMtDT0=    0
 Symmetry not used in FoFCou.
 Harris En= -831.057397134561    
 JPrj=0 DoOrth=F DoCkMO=F.
 Leave Link  401 at Tue Sep 28 09:15:18 2021, MaxMem= 16106127360 cpu:               6.3 elap:               0.3
 (Enter /sw/contrib/gaussian/g16/B01/g16/l502.exe)
 Keep R1 ints in memory in canonical form, NReq=173964309.
 FoFCou: FMM=F IPFlag=           0 FMFlag=           0 FMFlg1=           0
         NFxFlg=           0 DoJE=F BraDBF=F KetDBF=F FulRan=T
         wScrn=  0.000000 ICntrl=       600 IOpCl=  0 I1Cent=           0 NGrid=           0
         NMat0=    1 NMatS0=  15225 NMatT0=    0 NMatD0=    1 NMtDS0=    0 NMtDT0=    0
 Symmetry not used in FoFCou.
 Two-electron integral symmetry not used.
 Closed shell SCF:
 Using DIIS extrapolation, IDIIS=  1040.
 NGot= 16106127360 LenX= 15990129197 LenY= 15990087140
 Requested convergence on RMS density matrix=1.00D-08 within 128 cycles.
 Requested convergence on MAX density matrix=1.00D-06.
 Requested convergence on             energy=1.00D-06.
 No special actions if energy rises.

 Cycle   1  Pass 1  IDiag  1:
 E= -829.532789808295    
 DIIS: error= 2.46D-02 at cycle   1 NSaved=   1.
 NSaved= 1 IEnMin= 1 EnMin= -829.532789808295     IErMin= 1 ErrMin= 2.46D-02
 ErrMax= 2.46D-02  0.00D+00 EMaxC= 1.00D-01 BMatC= 4.52D-01 BMatP= 4.52D-01
 IDIUse=3 WtCom= 7.54D-01 WtEn= 2.46D-01
 Coeff-Com:  0.100D+01
 Coeff-En:   0.100D+01
 Coeff:      0.100D+01
 Gap=     0.409 Goal=   None    Shift=    0.000
 GapD=    0.409 DampG=2.000 DampE=0.500 DampFc=1.0000 IDamp=-1.
 RMSDP=3.60D-03 MaxDP=1.18D-01              OVMax= 1.18D-01

 Cycle   2  Pass 1  IDiag  1:
 E= -829.649734284566     Delta-E=       -0.116944476271 Rises=F Damp=F
 DIIS: error= 2.04D-02 at cycle   2 NSaved=   2.
 NSaved= 2 IEnMin= 2 EnMin= -829.649734284566     IErMin= 2 ErrMin= 2.04D-02
 ErrMax= 2.04D-02  0.00D+00 EMaxC= 1.00D-01 BMatC= 5.37D-02 BMatP= 4.52D-01
 IDIUse=3 WtCom= 7.96D-01 WtEn= 2.04D-01
 Coeff-Com:  0.193D+00 0.807D+00
 Coeff-En:   0.000D+00 0.100D+01
 Coeff:      0.154D+00 0.846D+00
 Gap=     0.307 Goal=   None    Shift=    0.000
 RMSDP=1.56D-03 MaxDP=7.62D-02 DE=-1.17D-01 OVMax= 7.75D-02

 Cycle   3  Pass 1  IDiag  1:
 E= -829.675879805435     Delta-E=       -0.026145520869 Rises=F Damp=F
 DIIS: error= 9.32D-03 at cycle   3 NSaved=   3.
 NSaved= 3 IEnMin= 3 EnMin= -829.675879805435     IErMin= 3 ErrMin= 9.32D-03
 ErrMax= 9.32D-03  0.00D+00 EMaxC= 1.00D-01 BMatC= 1.35D-02 BMatP= 5.37D-02
 IDIUse=3 WtCom= 9.07D-01 WtEn= 9.32D-02
 Coeff-Com: -0.143D-02 0.326D+00 0.675D+00
 Coeff-En:   0.000D+00 0.108D+00 0.892D+00
 Coeff:     -0.129D-02 0.306D+00 0.696D+00
 Gap=     0.304 Goal=   None    Shift=    0.000
 RMSDP=4.12D-04 MaxDP=1.96D-02 DE=-2.61D-02 OVMax= 3.52D-02

 Cycle   4  Pass 1  IDiag  1:
 E= -829.685173068881     Delta-E=       -0.009293263445 Rises=F Damp=F
 DIIS: error= 1.75D-03 at cycle   4 NSaved=   4.
 NSaved= 4 IEnMin= 4 EnMin= -829.685173068881     IErMin= 4 ErrMin= 1.75D-03
 ErrMax= 1.75D-03  0.00D+00 EMaxC= 1.00D-01 BMatC= 2.38D-04 BMatP= 1.35D-02
 IDIUse=3 WtCom= 9.83D-01 WtEn= 1.75D-02
 Coeff-Com: -0.886D-02 0.220D-03 0.112D+00 0.896D+00
 Coeff-En:   0.000D+00 0.000D+00 0.000D+00 0.100D+01
 Coeff:     -0.870D-02 0.216D-03 0.111D+00 0.898D+00
 Gap=     0.307 Goal=   None    Shift=    0.000
 RMSDP=9.36D-05 MaxDP=5.90D-03 DE=-9.29D-03 OVMax= 3.62D-03

 Cycle   5  Pass 1  IDiag  1:
 E= -829.685395852984     Delta-E=       -0.000222784103 Rises=F Damp=F
 DIIS: error= 2.47D-04 at cycle   5 NSaved=   5.
 NSaved= 5 IEnMin= 5 EnMin= -829.685395852984     IErMin= 5 ErrMin= 2.47D-04
 ErrMax= 2.47D-04  0.00D+00 EMaxC= 1.00D-01 BMatC= 1.41D-05 BMatP= 2.38D-04
 IDIUse=3 WtCom= 9.98D-01 WtEn= 2.47D-03
 Coeff-Com:  0.172D-02-0.286D-01-0.590D-01-0.384D-01 0.112D+01
 Coeff-En:   0.000D+00 0.000D+00 0.000D+00 0.000D+00 0.100D+01
 Coeff:      0.172D-02-0.286D-01-0.589D-01-0.383D-01 0.112D+01
 Gap=     0.306 Goal=   None    Shift=    0.000
 RMSDP=4.74D-05 MaxDP=2.15D-03 DE=-2.23D-04 OVMax= 2.68D-03

 Cycle   6  Pass 1  IDiag  1:
 E= -829.685428490694     Delta-E=       -0.000032637710 Rises=F Damp=F
 DIIS: error= 1.24D-04 at cycle   6 NSaved=   6.
 NSaved= 6 IEnMin= 6 EnMin= -829.685428490694     IErMin= 6 ErrMin= 1.24D-04
 ErrMax= 1.24D-04  0.00D+00 EMaxC= 1.00D-01 BMatC= 1.74D-06 BMatP= 1.41D-05
 IDIUse=3 WtCom= 9.99D-01 WtEn= 1.24D-03
 Coeff-Com:  0.117D-03 0.868D-02 0.102D-01-0.958D-01-0.287D+00 0.136D+01
 Coeff-En:   0.000D+00 0.000D+00 0.000D+00 0.000D+00 0.000D+00 0.100D+01
 Coeff:      0.116D-03 0.867D-02 0.101D-01-0.957D-01-0.286D+00 0.136D+01
 Gap=     0.306 Goal=   None    Shift=    0.000
 RMSDP=1.64D-05 MaxDP=6.85D-04 DE=-3.26D-05 OVMax= 1.36D-03

 Cycle   7  Pass 1  IDiag  1:
 E= -829.685434311205     Delta-E=       -0.000005820511 Rises=F Damp=F
 DIIS: error= 3.44D-05 at cycle   7 NSaved=   7.
 NSaved= 7 IEnMin= 7 EnMin= -829.685434311205     IErMin= 7 ErrMin= 3.44D-05
 ErrMax= 3.44D-05  0.00D+00 EMaxC= 1.00D-01 BMatC= 1.39D-07 BMatP= 1.74D-06
 IDIUse=1 WtCom= 1.00D+00 WtEn= 0.00D+00
 Coeff-Com: -0.155D-03 0.832D-03 0.405D-02 0.201D-01-0.606D-01-0.212D+00
 Coeff-Com:  0.125D+01
 Coeff:     -0.155D-03 0.832D-03 0.405D-02 0.201D-01-0.606D-01-0.212D+00
 Coeff:      0.125D+01
 Gap=     0.306 Goal=   None    Shift=    0.000
 RMSDP=5.06D-06 MaxDP=1.73D-04 DE=-5.82D-06 OVMax= 4.53D-04

 Cycle   8  Pass 1  IDiag  1:
 E= -829.685434878499     Delta-E=       -0.000000567294 Rises=F Damp=F
 DIIS: error= 1.06D-05 at cycle   8 NSaved=   8.
 NSaved= 8 IEnMin= 8 EnMin= -829.685434878499     IErMin= 8 ErrMin= 1.06D-05
 ErrMax= 1.06D-05  0.00D+00 EMaxC= 1.00D-01 BMatC= 1.94D-08 BMatP= 1.39D-07
 IDIUse=1 WtCom= 1.00D+00 WtEn= 0.00D+00
 Coeff-Com: -0.133D-04-0.126D-02-0.110D-02 0.140D-01 0.344D-01-0.193D+00
 Coeff-Com:  0.575D-01 0.109D+01
 Coeff:     -0.133D-04-0.126D-02-0.110D-02 0.140D-01 0.344D-01-0.193D+00
 Coeff:      0.575D-01 0.109D+01
 Gap=     0.306 Goal=   None    Shift=    0.000
 RMSDP=1.79D-06 MaxDP=4.66D-05 DE=-5.67D-07 OVMax= 1.74D-04

 Cycle   9  Pass 1  IDiag  1:
 E= -829.685434944635     Delta-E=       -0.000000066136 Rises=F Damp=F
 DIIS: error= 4.26D-06 at cycle   9 NSaved=   9.
 NSaved= 9 IEnMin= 9 EnMin= -829.685434944635     IErMin= 9 ErrMin= 4.26D-06
 ErrMax= 4.26D-06  0.00D+00 EMaxC= 1.00D-01 BMatC= 2.01D-09 BMatP= 1.94D-08
 IDIUse=1 WtCom= 1.00D+00 WtEn= 0.00D+00
 Coeff-Com:  0.162D-04 0.296D-03-0.416D-04-0.708D-02-0.389D-02 0.832D-01
 Coeff-Com: -0.128D+00-0.427D+00 0.148D+01
 Coeff:      0.162D-04 0.296D-03-0.416D-04-0.708D-02-0.389D-02 0.832D-01
 Coeff:     -0.128D+00-0.427D+00 0.148D+01
 Gap=     0.306 Goal=   None    Shift=    0.000
 RMSDP=8.15D-07 MaxDP=2.77D-05 DE=-6.61D-08 OVMax= 8.59D-05

 Cycle  10  Pass 1  IDiag  1:
 E= -829.685434954468     Delta-E=       -0.000000009833 Rises=F Damp=F
 DIIS: error= 1.36D-06 at cycle  10 NSaved=  10.
 NSaved=10 IEnMin=10 EnMin= -829.685434954468     IErMin=10 ErrMin= 1.36D-06
 ErrMax= 1.36D-06  0.00D+00 EMaxC= 1.00D-01 BMatC= 2.12D-10 BMatP= 2.01D-09
 IDIUse=1 WtCom= 1.00D+00 WtEn= 0.00D+00
 Coeff-Com: -0.315D-05 0.476D-04 0.105D-03 0.749D-03-0.255D-02-0.290D-02
 Coeff-Com:  0.302D-01 0.305D-03-0.389D+00 0.136D+01
 Coeff:     -0.315D-05 0.476D-04 0.105D-03 0.749D-03-0.255D-02-0.290D-02
 Coeff:      0.302D-01 0.305D-03-0.389D+00 0.136D+01
 Gap=     0.306 Goal=   None    Shift=    0.000
 RMSDP=2.50D-07 MaxDP=6.42D-06 DE=-9.83D-09 OVMax= 2.94D-05

 Cycle  11  Pass 1  IDiag  1:
 E= -829.685434955552     Delta-E=       -0.000000001084 Rises=F Damp=F
 DIIS: error= 5.84D-07 at cycle  11 NSaved=  11.
 NSaved=11 IEnMin=11 EnMin= -829.685434955552     IErMin=11 ErrMin= 5.84D-07
 ErrMax= 5.84D-07  0.00D+00 EMaxC= 1.00D-01 BMatC= 2.39D-11 BMatP= 2.12D-10
 IDIUse=1 WtCom= 1.00D+00 WtEn= 0.00D+00
 Coeff-Com: -0.215D-05-0.389D-04 0.181D-05 0.880D-03 0.502D-03-0.105D-01
 Coeff-Com:  0.151D-01 0.523D-01-0.163D+00-0.140D+00 0.124D+01
 Coeff:     -0.215D-05-0.389D-04 0.181D-05 0.880D-03 0.502D-03-0.105D-01
 Coeff:      0.151D-01 0.523D-01-0.163D+00-0.140D+00 0.124D+01
 Gap=     0.306 Goal=   None    Shift=    0.000
 RMSDP=9.52D-08 MaxDP=2.46D-06 DE=-1.08D-09 OVMax= 1.03D-05

 Cycle  12  Pass 1  IDiag  1:
 E= -829.685434955670     Delta-E=       -0.000000000118 Rises=F Damp=F
 DIIS: error= 1.55D-07 at cycle  12 NSaved=  12.
 NSaved=12 IEnMin=12 EnMin= -829.685434955670     IErMin=12 ErrMin= 1.55D-07
 ErrMax= 1.55D-07  0.00D+00 EMaxC= 1.00D-01 BMatC= 1.46D-12 BMatP= 2.39D-11
 IDIUse=1 WtCom= 1.00D+00 WtEn= 0.00D+00
 Coeff-Com:  0.334D-06-0.358D-05-0.108D-04-0.890D-04 0.252D-03 0.510D-03
 Coeff-Com: -0.299D-02-0.251D-02 0.394D-01-0.910D-01-0.112D+00 0.117D+01
 Coeff:      0.334D-06-0.358D-05-0.108D-04-0.890D-04 0.252D-03 0.510D-03
 Coeff:     -0.299D-02-0.251D-02 0.394D-01-0.910D-01-0.112D+00 0.117D+01
 Gap=     0.306 Goal=   None    Shift=    0.000
 RMSDP=2.60D-08 MaxDP=1.41D-06 DE=-1.18D-10 OVMax= 1.93D-06

 Cycle  13  Pass 1  IDiag  1:
 E= -829.685434955680     Delta-E=       -0.000000000009 Rises=F Damp=F
 DIIS: error= 4.41D-08 at cycle  13 NSaved=  13.
 NSaved=13 IEnMin=13 EnMin= -829.685434955680     IErMin=13 ErrMin= 4.41D-08
 ErrMax= 4.41D-08  0.00D+00 EMaxC= 1.00D-01 BMatC= 1.54D-13 BMatP= 1.46D-12
 IDIUse=1 WtCom= 1.00D+00 WtEn= 0.00D+00
 Coeff-Com:  0.182D-06 0.333D-05-0.349D-06-0.653D-04-0.528D-04 0.815D-03
 Coeff-Com: -0.103D-02-0.401D-02 0.995D-02 0.233D-01-0.113D+00-0.814D-01
 Coeff-Com:  0.117D+01
 Coeff:      0.182D-06 0.333D-05-0.349D-06-0.653D-04-0.528D-04 0.815D-03
 Coeff:     -0.103D-02-0.401D-02 0.995D-02 0.233D-01-0.113D+00-0.814D-01
 Coeff:      0.117D+01
 Gap=     0.306 Goal=   None    Shift=    0.000
 RMSDP=8.49D-09 MaxDP=5.51D-07 DE=-9.32D-12 OVMax= 5.77D-07

 SCF Done:  E(RHF) =  -829.685434956     A.U. after   13 cycles
            NFock= 13  Conv=0.85D-08     -V/T= 2.2850
 KE= 6.456447905749D+02 PE=-2.196982586797D+03 EE= 5.773446320367D+02
 Leave Link  502 at Tue Sep 28 09:15:21 2021, MaxMem= 16106127360 cpu:              32.2 elap:               3.2
 (Enter /sw/contrib/gaussian/g16/B01/g16/l801.exe)
 ExpMin= 2.53D-02 ExpMax= 4.56D+05 ExpMxC= 1.44D+03 IAcc=3 IRadAn=         5 AccDes= 0.00D+00
 HarFok:  IExCor=  205 AccDes= 0.00D+00 IRadAn=         5 IDoV=-2 UseB2=F ITyADJ=14
 ICtDFT= 12500011 ScaDFX=  1.000000  1.000000  1.000000  1.000000
 Defaulting to unpruned grid for atomic number  53.
 Largest valence mixing into a core orbital is  4.48D-04
 Largest core mixing into a valence orbital is  1.59D-04
 Range of M.O.s used for correlation:    11   174
 NBasis=   174 NAE=    26 NBE=    26 NFC=    10 NFV=     0
 NROrb=    164 NOA=    16 NOB=    16 NVA=   148 NVB=   148

 **** Warning!!: The largest alpha MO coefficient is  0.17864295D+02

 Leave Link  801 at Tue Sep 28 09:15:21 2021, MaxMem= 16106127360 cpu:               1.4 elap:               0.1
 (Enter /sw/contrib/gaussian/g16/B01/g16/l906.exe)
 Frozen-core derivative calculation, NFC=  10 NFV=   0.
 FulOut=F Deriv=T AODrv=F NAtomX=     4
   MMem=         130  MDisk=          16 MDiskD=          16
  W3Min=      922896 MinDsk=     1491158 NBas6D=         204
 NBas2D=       21411    NTT=       20910    LW2=    26219120
    MDV= 16105723197 MDiskM=      394699 NBas2p=       21407
 Fully in-core method, ICMem=   539779449.
 IMap=   1   2   3   4   5   6   7   8   9  10  11  12  13  14  15  16  17  18  19  20
 IMap=  21  22  23  24  25  26
 JobTyp=1 Pass  1 fully in-core, NPsUse= 28.
 Compute canonical integrals.
 FoFCou: FMM=F IPFlag=           0 FMFlag=           0 FMFlg1=           0
         NFxFlg=           0 DoJE=F BraDBF=F KetDBF=F FulRan=T
         wScrn=  0.000000 ICntrl=       600 IOpCl=  1 I1Cent=           0 NGrid=           0
         NMat0=    1 NMatS0=  21411 NMatT0=    0 NMatD0=    1 NMtDS0=    0 NMtDT0=    0
 Symmetry not used in FoFCou.
 Spin components of T(2) and E(2):
     alpha-alpha T2 =       0.3147687893D-01 E2=     -0.9174962936D-01
     alpha-beta  T2 =       0.1660369578D+00 E2=     -0.4992673152D+00
     beta-beta   T2 =       0.3147687893D-01 E2=     -0.9174962936D-01
 The integrals were generated   1 times.
 ANorm=    0.1108598537D+01
 E2 =    -0.6827665739D+00 EUMP2 =    -0.83036820152956D+03
 Leave Link  906 at Tue Sep 28 09:15:27 2021, MaxMem= 16106127360 cpu:             168.2 elap:               6.1
 (Enter /sw/contrib/gaussian/g16/B01/g16/l1002.exe)
 Minotr:  Closed shell wavefunction.
          Computing MP2/KS-MP2 derivatives.
          Using Z-Vector for PSCF gradient.
          Skipping F1 and S1 gradient terms here.
          Frozen-core window.
          Direct CPHF calculation.
          Differentiating once with respect to electric field.
                with respect to dipole field.
          Electric field/nuclear overlap derivatives assumed to be zero.
          Requested convergence is 1.0D-10 RMS, and 1.0D-09 maximum.
          NewPWx=F KeepS1=T KeepF1=T KeepIn=T MapXYZ=F SortEE=F KeepMc=T.
 Keep R1 ints in memory in canonical form, NReq=173968745.
 FoFCou: FMM=F IPFlag=           0 FMFlag=           0 FMFlg1=           0
         NFxFlg=           0 DoJE=F BraDBF=F KetDBF=F FulRan=T
         wScrn=  0.000000 ICntrl=       600 IOpCl=  0 I1Cent=           0 NGrid=           0
         NMat0=    1 NMatS0=  15225 NMatT0=    0 NMatD0=    1 NMtDS0=    0 NMtDT0=    0
 Symmetry not used in FoFCou.
 Two-electron integral symmetry not used.
          MDV=   16106127360 using IRadAn=       5.
          Solving linear equations separately, MaxMat=       0.
          There are     1 degrees of freedom in the 1st order CPHF.  IDoFFX=0 NUNeed=     1.
 LinEq1:  Iter=  0 NonCon=     1 RMS=2.90D-03 Max=4.25D-02 NDo=     1
 AX will form     1 AO Fock derivatives at one time.
 LinEq1:  Iter=  1 NonCon=     1 RMS=4.55D-04 Max=4.80D-03 NDo=     1
 LinEq1:  Iter=  2 NonCon=     1 RMS=2.02D-04 Max=3.67D-03 NDo=     1
 LinEq1:  Iter=  3 NonCon=     1 RMS=6.21D-05 Max=9.35D-04 NDo=     1
 LinEq1:  Iter=  4 NonCon=     1 RMS=2.91D-05 Max=8.17D-04 NDo=     1
 LinEq1:  Iter=  5 NonCon=     1 RMS=7.82D-06 Max=1.21D-04 NDo=     1
 LinEq1:  Iter=  6 NonCon=     1 RMS=1.94D-06 Max=2.22D-05 NDo=     1
 LinEq1:  Iter=  7 NonCon=     1 RMS=4.89D-07 Max=7.88D-06 NDo=     1
 LinEq1:  Iter=  8 NonCon=     1 RMS=1.28D-07 Max=2.49D-06 NDo=     1
 LinEq1:  Iter=  9 NonCon=     1 RMS=4.35D-08 Max=8.73D-07 NDo=     1
 LinEq1:  Iter= 10 NonCon=     1 RMS=1.27D-08 Max=1.96D-07 NDo=     1
 LinEq1:  Iter= 11 NonCon=     1 RMS=2.91D-09 Max=5.03D-08 NDo=     1
 LinEq1:  Iter= 12 NonCon=     1 RMS=7.75D-10 Max=1.47D-08 NDo=     1
 LinEq1:  Iter= 13 NonCon=     1 RMS=2.74D-10 Max=4.40D-09 NDo=     1
 LinEq1:  Iter= 14 NonCon=     0 RMS=6.70D-11 Max=9.28D-10 NDo=     1
 Linear equations converged to 1.000D-10 1.000D-09 after    14 iterations.
 End of Minotr F.D. properties file   721 does not exist.
 End of Minotr F.D. properties file   722 does not exist.
 End of Minotr F.D. properties file   788 does not exist.
 Leave Link 1002 at Tue Sep 28 09:15:31 2021, MaxMem= 16106127360 cpu:              35.6 elap:               3.9
 (Enter /sw/contrib/gaussian/g16/B01/g16/l601.exe)
 Copying SCF densities to generalized density rwf, IOpCl= 0 IROHF=0.

 **********************************************************************

            Population analysis using the MP2 Density.

 **********************************************************************

 Alpha  occ. eigenvalues -- -104.74125 -20.47569 -10.46071  -7.92787  -7.92518
 Alpha  occ. eigenvalues --   -7.92507  -7.47861  -5.30445  -5.30378  -5.30376
 Alpha  occ. eigenvalues --   -2.03206  -2.03163  -2.03161  -2.03089  -2.03089
 Alpha  occ. eigenvalues --   -1.24176  -0.90617  -0.64493  -0.54927  -0.45359
 Alpha  occ. eigenvalues --   -0.44519  -0.31758  -0.29138  -0.16384  -0.15358
 Alpha  occ. eigenvalues --   -0.15351
 Alpha virt. eigenvalues --    0.15245   0.17660   0.21538   0.22630   0.24018
 Alpha virt. eigenvalues --    0.24965   0.25239   0.27609   0.29611   0.30405
 Alpha virt. eigenvalues --    0.30750   0.31443   0.34726   0.37374   0.37881
 Alpha virt. eigenvalues --    0.38904   0.41943   0.42548   0.45104   0.50254
 Alpha virt. eigenvalues --    0.52838   0.54256   0.55199   0.55892   0.56972
 Alpha virt. eigenvalues --    0.58830   0.64210   0.66060   0.73702   0.75392
 Alpha virt. eigenvalues --    0.76005   0.76882   0.77259   0.79077   0.79121
 Alpha virt. eigenvalues --    0.80822   0.82159   0.82988   0.83476   0.86024
 Alpha virt. eigenvalues --    0.86864   0.87384   0.88153   0.89427   0.90068
 Alpha virt. eigenvalues --    0.93043   0.95194   0.96532   0.99242   1.00867
 Alpha virt. eigenvalues --    1.04330   1.08234   1.08848   1.10597   1.12575
 Alpha virt. eigenvalues --    1.13920   1.19413   1.19679   1.21681   1.24003
 Alpha virt. eigenvalues --    1.26269   1.30675   1.35248   1.40289   1.44299
 Alpha virt. eigenvalues --    1.48895   1.54092   1.55519   1.59152   1.60590
 Alpha virt. eigenvalues --    1.66534   1.68424   1.70973   1.73188   1.74241
 Alpha virt. eigenvalues --    1.74401   1.76129   1.77412   1.80373   1.85210
 Alpha virt. eigenvalues --    1.86991   1.90219   1.90580   1.96810   2.05147
 Alpha virt. eigenvalues --    2.05152   2.10345   2.13694   2.15992   2.29253
 Alpha virt. eigenvalues --    2.37662   2.49883   2.51320   2.54027   2.56134
 Alpha virt. eigenvalues --    2.58133   2.59437   2.66589   2.67923   2.69926
 Alpha virt. eigenvalues --    2.71146   2.73063   2.76089   2.77779   2.88087
 Alpha virt. eigenvalues --    2.98595   3.01114   3.08051   3.18085   3.20382
 Alpha virt. eigenvalues --    3.20880   3.24138   3.28379   3.29202   3.30603
 Alpha virt. eigenvalues --    3.36694   3.52274   3.53470   3.53631   3.82623
 Alpha virt. eigenvalues --    3.93115   4.29622   4.42851   4.50678   4.54778
 Alpha virt. eigenvalues --    4.62665   4.76326   4.98093   5.12017   5.34473
 Alpha virt. eigenvalues --    5.37940   5.65344   6.40532   6.57443   6.83038
 Alpha virt. eigenvalues --    6.89153   6.90379   6.97492   7.27932   7.33538
 Alpha virt. eigenvalues --    7.33919   7.43257   7.51721   7.74350   7.78514
 Alpha virt. eigenvalues --    8.33301  14.63538  59.21111
          Condensed to atoms (all electrons):
               1          2          3          4
     1  O    8.683784  -0.088257  -0.116624   0.007127
     2  I   -0.088257  25.877294   0.009490   0.038032
     3  Cl  -0.116624   0.009490  17.058084  -0.005503
     4  H    0.007127   0.038032  -0.005503   0.692310
 Mulliken charges:
               1
     1  O   -0.486030
     2  I   -0.836559
     3  Cl   0.054554
     4  H    0.268034
 Sum of Mulliken charges =  -1.00000
 Mulliken charges with hydrogens summed into heavy atoms:
               1
     1  O   -0.217995
     2  I   -0.836559
     3  Cl   0.054554
 Electronic spatial extent (au):  <R**2>=           1306.2441
 Charge=             -1.0000 electrons
 Dipole moment (field-independent basis, Debye):
    X=            -11.7872    Y=             -0.5404    Z=              0.0479  Tot=             11.7996
 Quadrupole moment (field-independent basis, Debye-Ang):
   XX=            -95.9160   YY=            -53.1876   ZZ=            -53.2709
   XY=              0.3924   XZ=             -0.0167   YZ=             -0.0261
 Traceless Quadrupole moment (field-independent basis, Debye-Ang):
   XX=            -28.4578   YY=             14.2706   ZZ=             14.1872
   XY=              0.3924   XZ=             -0.0167   YZ=             -0.0261
 Octapole moment (field-independent basis, Debye-Ang**2):
  XXX=           -456.4996  YYY=            -62.2949  ZZZ=             -0.3971  XYY=           -105.7471
  XXY=            -21.4741  XXZ=             -0.7318  XZZ=           -105.1082  YZZ=            -22.2146
  YYZ=             -0.1786  XYZ=              0.0177
 Hexadecapole moment (field-independent basis, Debye-Ang**3):
 XXXX=          -2732.2933 YYYY=           -282.5817 ZZZZ=            -87.2962 XXXY=             28.4471
 XXXZ=             -3.2609 YYYX=             21.5942 YYYZ=             -0.1319 ZZZX=             -0.7140
 ZZZY=             -0.0429 XXYY=           -430.6847 XXZZ=           -395.4512 YYZZ=            -66.2696
 XXYZ=             -0.0265 YYXZ=             -0.1851 ZZXY=              9.1749
 N-N= 1.443077292292D+02 E-N=-2.196537125733D+03  KE= 6.460213901677D+02
 No NMR shielding tensors so no spin-rotation constants.
 Leave Link  601 at Tue Sep 28 09:15:31 2021, MaxMem= 16106127360 cpu:               3.2 elap:               0.1
 (Enter /sw/contrib/gaussian/g16/B01/g16/l607.exe)
 ******************************Gaussian NBO Version 3.1******************************
             N A T U R A L   A T O M I C   O R B I T A L   A N D
          N A T U R A L   B O N D   O R B I T A L   A N A L Y S I S
 ******************************Gaussian NBO Version 3.1******************************
       /RESON  / : Allow strongly delocalized NBO set

 Analyzing the MP2 density

 Job title: title                                                           

 Storage needed:     91686 in NPA,    121697 in NBO (********** available)
 GSVD:  LWork=        2436 too small for GESVD, short by       52200 words or       52200 for optimal perf.


 NATURAL POPULATIONS:  Natural atomic orbital occupancies 
                                                          
   NAO  Atom  No  lang   Type(AO)    Occupancy
 --------------------------------------------
     1    O    1  S      Cor( 1S)     1.99970
     2    O    1  S      Val( 2S)     1.79020
     3    O    1  S      Ryd( 3S)     0.00982
     4    O    1  S      Ryd( 4S)     0.00115
     5    O    1  S      Ryd( 5S)     0.00020
     6    O    1  px     Val( 2p)     1.64804
     7    O    1  px     Ryd( 3p)     0.01111
     8    O    1  px     Ryd( 4p)     0.00076
     9    O    1  px     Ryd( 5p)     0.00054
    10    O    1  py     Val( 2p)     1.26955
    11    O    1  py     Ryd( 3p)     0.00780
    12    O    1  py     Ryd( 4p)     0.00062
    13    O    1  py     Ryd( 5p)     0.00037
    14    O    1  pz     Val( 2p)     1.94541
    15    O    1  pz     Ryd( 3p)     0.02006
    16    O    1  pz     Ryd( 4p)     0.00067
    17    O    1  pz     Ryd( 5p)     0.00016
    18    O    1  dxy    Ryd( 3d)     0.00948
    19    O    1  dxy    Ryd( 4d)     0.00047
    20    O    1  dxy    Ryd( 5d)     0.00016
    21    O    1  dxz    Ryd( 3d)     0.00734
    22    O    1  dxz    Ryd( 4d)     0.00060
    23    O    1  dxz    Ryd( 5d)     0.00031
    24    O    1  dyz    Ryd( 3d)     0.00929
    25    O    1  dyz    Ryd( 4d)     0.00058
    26    O    1  dyz    Ryd( 5d)     0.00011
    27    O    1  dx2y2  Ryd( 3d)     0.01282
    28    O    1  dx2y2  Ryd( 4d)     0.00036
    29    O    1  dx2y2  Ryd( 5d)     0.00015
    30    O    1  dz2    Ryd( 3d)     0.00976
    31    O    1  dz2    Ryd( 4d)     0.00057
    32    O    1  dz2    Ryd( 5d)     0.00017
    33    O    1  f(0)   Ryd( 4f)     0.00073
    34    O    1  f(0)   Ryd( 5f)     0.00011
    35    O    1  f(C1)  Ryd( 4f)     0.00058
    36    O    1  f(C1)  Ryd( 5f)     0.00011
    37    O    1  f(S1)  Ryd( 4f)     0.00067
    38    O    1  f(S1)  Ryd( 5f)     0.00012
    39    O    1  f(C2)  Ryd( 4f)     0.00057
    40    O    1  f(C2)  Ryd( 5f)     0.00013
    41    O    1  f(S2)  Ryd( 4f)     0.00055
    42    O    1  f(S2)  Ryd( 5f)     0.00011
    43    O    1  f(C3)  Ryd( 4f)     0.00056
    44    O    1  f(C3)  Ryd( 5f)     0.00015
    45    O    1  f(S3)  Ryd( 4f)     0.00056
    46    O    1  f(S3)  Ryd( 5f)     0.00012

    47    I    2  S      Cor( 4S)     1.99983
    48    I    2  S      Val( 5S)     1.96804
    49    I    2  S      Ryd( 6S)     0.00195
    50    I    2  S      Ryd( 7S)     0.00054
    51    I    2  S      Ryd( 8S)     0.00013
    52    I    2  S      Ryd( 9S)     0.00001
    53    I    2  px     Cor( 4p)     1.99983
    54    I    2  px     Val( 5p)     1.85244
    55    I    2  px     Ryd( 6p)     0.00914
    56    I    2  px     Ryd( 7p)     0.00063
    57    I    2  px     Ryd( 8p)     0.00016
    58    I    2  py     Cor( 4p)     2.00003
    59    I    2  py     Val( 5p)     1.95090
    60    I    2  py     Ryd( 6p)     0.01052
    61    I    2  py     Ryd( 7p)     0.00073
    62    I    2  py     Ryd( 8p)     0.00010
    63    I    2  pz     Cor( 4p)     2.00003
    64    I    2  pz     Val( 5p)     1.95092
    65    I    2  pz     Ryd( 6p)     0.01057
    66    I    2  pz     Ryd( 7p)     0.00073
    67    I    2  pz     Ryd( 8p)     0.00011
    68    I    2  dxy    Cor( 4d)     1.99673
    69    I    2  dxy    Ryd( 5d)     0.02021
    70    I    2  dxy    Ryd( 6d)     0.00127
    71    I    2  dxy    Ryd( 7d)     0.00022
    72    I    2  dxz    Cor( 4d)     1.99674
    73    I    2  dxz    Ryd( 5d)     0.02031
    74    I    2  dxz    Ryd( 6d)     0.00132
    75    I    2  dxz    Ryd( 7d)     0.00018
    76    I    2  dyz    Cor( 4d)     1.99678
    77    I    2  dyz    Ryd( 5d)     0.02008
    78    I    2  dyz    Ryd( 6d)     0.00165
    79    I    2  dyz    Ryd( 7d)     0.00020
    80    I    2  dx2y2  Cor( 4d)     1.99658
    81    I    2  dx2y2  Ryd( 5d)     0.01953
    82    I    2  dx2y2  Ryd( 6d)     0.00157
    83    I    2  dx2y2  Ryd( 7d)     0.00019
    84    I    2  dz2    Cor( 4d)     1.99671
    85    I    2  dz2    Ryd( 5d)     0.01989
    86    I    2  dz2    Ryd( 6d)     0.00161
    87    I    2  dz2    Ryd( 7d)     0.00017
    88    I    2  f(0)   Ryd( 4f)     0.00271
    89    I    2  f(0)   Ryd( 5f)     0.00043
    90    I    2  f(C1)  Ryd( 4f)     0.00277
    91    I    2  f(C1)  Ryd( 5f)     0.00046
    92    I    2  f(S1)  Ryd( 4f)     0.00275
    93    I    2  f(S1)  Ryd( 5f)     0.00042
    94    I    2  f(C2)  Ryd( 4f)     0.00268
    95    I    2  f(C2)  Ryd( 5f)     0.00043
    96    I    2  f(S2)  Ryd( 4f)     0.00278
    97    I    2  f(S2)  Ryd( 5f)     0.00044
    98    I    2  f(C3)  Ryd( 4f)     0.00277
    99    I    2  f(C3)  Ryd( 5f)     0.00046
   100    I    2  f(S3)  Ryd( 4f)     0.00262
   101    I    2  f(S3)  Ryd( 5f)     0.00043

   102   Cl    3  S      Cor( 1S)     2.00000
   103   Cl    3  S      Cor( 2S)     1.99978
   104   Cl    3  S      Val( 3S)     1.88263
   105   Cl    3  S      Ryd( 4S)     0.00750
   106   Cl    3  S      Ryd( 5S)     0.00052
   107   Cl    3  S      Ryd( 6S)     0.00018
   108   Cl    3  px     Cor( 2p)     2.00003
   109   Cl    3  px     Val( 3p)     1.89120
   110   Cl    3  px     Ryd( 4p)     0.00938
   111   Cl    3  px     Ryd( 5p)     0.00053
   112   Cl    3  px     Ryd( 6p)     0.00011
   113   Cl    3  py     Cor( 2p)     1.99996
   114   Cl    3  py     Val( 3p)     0.96395
   115   Cl    3  py     Ryd( 4p)     0.00680
   116   Cl    3  py     Ryd( 5p)     0.00052
   117   Cl    3  py     Ryd( 6p)     0.00023
   118   Cl    3  pz     Cor( 2p)     2.00003
   119   Cl    3  pz     Val( 3p)     1.95465
   120   Cl    3  pz     Ryd( 4p)     0.01048
   121   Cl    3  pz     Ryd( 5p)     0.00067
   122   Cl    3  pz     Ryd( 6p)     0.00003
   123   Cl    3  dxy    Ryd( 3d)     0.01714
   124   Cl    3  dxy    Ryd( 4d)     0.00065
   125   Cl    3  dxy    Ryd( 5d)     0.00025
   126   Cl    3  dxz    Ryd( 3d)     0.01714
   127   Cl    3  dxz    Ryd( 4d)     0.00076
   128   Cl    3  dxz    Ryd( 5d)     0.00018
   129   Cl    3  dyz    Ryd( 3d)     0.02071
   130   Cl    3  dyz    Ryd( 4d)     0.00100
   131   Cl    3  dyz    Ryd( 5d)     0.00036
   132   Cl    3  dx2y2  Ryd( 3d)     0.01798
   133   Cl    3  dx2y2  Ryd( 4d)     0.00061
   134   Cl    3  dx2y2  Ryd( 5d)     0.00024
   135   Cl    3  dz2    Ryd( 3d)     0.01751
   136   Cl    3  dz2    Ryd( 4d)     0.00060
   137   Cl    3  dz2    Ryd( 5d)     0.00015
   138   Cl    3  f(0)   Ryd( 4f)     0.00131
   139   Cl    3  f(0)   Ryd( 5f)     0.00013
   140   Cl    3  f(C1)  Ryd( 4f)     0.00128
   141   Cl    3  f(C1)  Ryd( 5f)     0.00013
   142   Cl    3  f(S1)  Ryd( 4f)     0.00144
   143   Cl    3  f(S1)  Ryd( 5f)     0.00014
   144   Cl    3  f(C2)  Ryd( 4f)     0.00130
   145   Cl    3  f(C2)  Ryd( 5f)     0.00013
   146   Cl    3  f(S2)  Ryd( 4f)     0.00123
   147   Cl    3  f(S2)  Ryd( 5f)     0.00013
   148   Cl    3  f(C3)  Ryd( 4f)     0.00139
   149   Cl    3  f(C3)  Ryd( 5f)     0.00013
   150   Cl    3  f(S3)  Ryd( 4f)     0.00143
   151   Cl    3  f(S3)  Ryd( 5f)     0.00014

   152    H    4  S      Val( 1S)     0.50044
   153    H    4  S      Ryd( 2S)     0.00948
   154    H    4  S      Ryd( 3S)     0.00036
   155    H    4  S      Ryd( 4S)     0.00016
   156    H    4  px     Ryd( 2p)     0.00543
   157    H    4  px     Ryd( 3p)     0.00105
   158    H    4  px     Ryd( 4p)     0.00039
   159    H    4  py     Ryd( 2p)     0.00407
   160    H    4  py     Ryd( 3p)     0.00046
   161    H    4  py     Ryd( 4p)     0.00012
   162    H    4  pz     Ryd( 2p)     0.00564
   163    H    4  pz     Ryd( 3p)     0.00041
   164    H    4  pz     Ryd( 4p)     0.00021
   165    H    4  dxy    Ryd( 3d)     0.00034
   166    H    4  dxy    Ryd( 4d)     0.00010
   167    H    4  dxz    Ryd( 3d)     0.00048
   168    H    4  dxz    Ryd( 4d)     0.00013
   169    H    4  dyz    Ryd( 3d)     0.00024
   170    H    4  dyz    Ryd( 4d)     0.00006
   171    H    4  dx2y2  Ryd( 3d)     0.00028
   172    H    4  dx2y2  Ryd( 4d)     0.00013
   173    H    4  dz2    Ryd( 3d)     0.00028
   174    H    4  dz2    Ryd( 4d)     0.00009

 [ 28 electrons found in the effective core potential]

 WARNING:  5 low occupancy (<1.9990e) core orbitals found on  I    2


 Summary of Natural Population Analysis:                  
                                                          
                                       Natural Population 
                Natural  -----------------------------------------------
    Atom  No    Charge         Core      Valence    Rydberg      Total
 -----------------------------------------------------------------------
      O    1   -0.76342      1.99970     6.65321    0.11051     8.76342
      I    2   -0.87144     45.98326     7.72230    0.16588    53.87144
     Cl    3    0.16522      9.99980     6.69243    0.14255    16.83478
      H    4    0.46964      0.00000     0.50044    0.02991     0.53036
 =======================================================================
   * Total *   -1.00000     57.98276    21.56838    0.44886    80.00000

                                 Natural Population      
 --------------------------------------------------------
   Effective Core            28.00000
   Core                      29.98276 ( 99.9425% of  30)
   Valence                   21.56838 ( 98.0381% of  22)
   Natural Minimal Basis     79.55114 ( 99.4389% of  80)
   Natural Rydberg Basis      0.44886 (  0.5611% of  80)
 --------------------------------------------------------

    Atom  No          Natural Electron Configuration
 ----------------------------------------------------------------------------
      O    1      [core]2S( 1.79)2p( 4.86)3S( 0.01)3p( 0.04)3d( 0.05)
      I    2      [core]5S( 1.97)5p( 5.75)4f( 0.02)5d( 0.10)6p( 0.03)6d( 0.01)
     Cl    3      [core]3S( 1.88)3p( 4.81)4S( 0.01)3d( 0.09)4p( 0.03)4f( 0.01)
      H    4            1S( 0.50)2S( 0.01)2p( 0.02)


 NATURAL BOND ORBITAL ANALYSIS:

                       Occupancies       Lewis Structure    Low   High
           Occ.    -------------------  -----------------   occ   occ
  Cycle   Thresh.   Lewis   Non-Lewis     CR  BD  3C  LP    (L)   (NL)   Dev
 =============================================================================
   1(1)    1.90    79.41308   0.58692     15   2   0   9     1      1    0.15
   2(2)    1.90    79.13574   0.86426     15   2   0   9     1      1    0.56
   3(3)    1.90    79.41308   0.58692     15   2   0   9     1      1    0.15
   4(1)    1.80    79.41308   0.58692     15   2   0   9     0      1    0.15
   5(2)    1.80    79.41308   0.58692     15   2   0   9     0      1    0.15
   6(1)    1.70    79.41308   0.58692     15   2   0   9     0      1    0.15
   7(2)    1.70    79.41308   0.58692     15   2   0   9     0      1    0.15
   8(1)    1.60    79.41308   0.58692     15   2   0   9     0      1    0.15
   9(2)    1.60    79.41308   0.58692     15   2   0   9     0      1    0.15
  10(1)    1.50    79.03777   0.96223     15   1   0  10     0      1    0.56
  11(2)    1.50    79.03777   0.96223     15   1   0  10     0      1    0.56
  12(1)    1.90    79.41308   0.58692     15   2   0   9     1      1    0.15
 -----------------------------------------------------------------------------

 Structure accepted: RESONANCE keyword permits strongly delocalized structure

 WARNING:  5 low occupancy (<1.9990e) core orbitals found on  I    2

 --------------------------------------------------------
   Effective Core           28.00000
   Core                     29.98276 ( 99.943% of  30)
   Valence Lewis            21.43032 ( 97.411% of  22)
  ==================       ============================
   Total Lewis              79.41308 ( 99.266% of  80)
  -----------------------------------------------------
   Valence non-Lewis         0.18296 (  0.229% of  80)
   Rydberg non-Lewis         0.40396 (  0.505% of  80)
  ==================       ============================
   Total non-Lewis           0.58692 (  0.734% of  80)
 --------------------------------------------------------


       (Occupancy)   Bond orbital/ Coefficients/ Hybrids
 ---------------------------------------------------------------------------------
     1. (1.93910) BD ( 1) O   1 -Cl   3  
                ( 59.19%)   0.7694* O   1 s( 10.46%)p 8.51( 89.02%)d 0.05(  0.50%)
                                                  f 0.00(  0.02%)
                                            0.0003  0.3207 -0.0387 -0.0137 -0.0008
                                           -0.1880  0.0349  0.0071  0.0024  0.9235
                                           -0.0236 -0.0086 -0.0106  0.0053  0.0027
                                            0.0005 -0.0001 -0.0031  0.0001 -0.0026
                                            0.0014  0.0001 -0.0003  0.0030  0.0004
                                           -0.0001 -0.0569 -0.0045 -0.0010 -0.0418
                                           -0.0033  0.0009 -0.0000 -0.0000  0.0027
                                           -0.0004 -0.0110  0.0012 -0.0005  0.0003
                                            0.0010 -0.0002  0.0033  0.0021 -0.0045
                                            0.0003
                ( 40.81%)   0.6388*Cl   3 s(  8.38%)p10.78( 90.34%)d 0.14(  1.17%)
                                                  f 0.01(  0.11%)
                                           -0.0000  0.0005  0.2845 -0.0522 -0.0095
                                            0.0031  0.0001  0.2290 -0.0126 -0.0057
                                            0.0018 -0.0004 -0.9201  0.0632  0.0128
                                           -0.0035  0.0000  0.0011  0.0000 -0.0003
                                            0.0001 -0.0520  0.0045 -0.0005  0.0013
                                           -0.0000 -0.0002 -0.0016 -0.0002 -0.0002
                                           -0.0746  0.0091  0.0007 -0.0572  0.0057
                                            0.0011 -0.0002  0.0000 -0.0054  0.0010
                                            0.0206 -0.0030  0.0000 -0.0001 -0.0003
                                            0.0002 -0.0175  0.0019  0.0187 -0.0018
     2. (1.96416) BD ( 1) O   1 - H   4  
                ( 79.57%)   0.8920* O   1 s( 28.45%)p 2.50( 71.05%)d 0.02(  0.49%)
                                                  f 0.00(  0.01%)
                                            0.0003  0.5332 -0.0097 -0.0086  0.0017
                                            0.8387 -0.0093 -0.0067 -0.0056 -0.0129
                                            0.0159  0.0015  0.0020  0.0806 -0.0003
                                           -0.0007 -0.0008  0.0264  0.0049  0.0011
                                            0.0114  0.0007 -0.0004  0.0028  0.0005
                                            0.0001  0.0520  0.0038  0.0016 -0.0359
                                           -0.0016  0.0027 -0.0020 -0.0000 -0.0087
                                           -0.0002 -0.0003  0.0005  0.0013  0.0004
                                            0.0001 -0.0002  0.0010  0.0030 -0.0017
                                           -0.0005
                ( 20.43%)   0.4520* H   4 s( 99.83%)p 0.00(  0.16%)d 0.00(  0.00%)
                                            0.9980  0.0474  0.0032 -0.0017  0.0134
                                           -0.0324 -0.0118  0.0148  0.0013 -0.0036
                                            0.0044 -0.0033 -0.0004  0.0010  0.0020
                                           -0.0003 -0.0001  0.0002  0.0002  0.0028
                                           -0.0003 -0.0008 -0.0029
     3. (1.99970) CR ( 1) O   1           s(100.00%)p 0.00(  0.00%)
                                            1.0000 -0.0004  0.0000  0.0000 -0.0000
                                           -0.0001 -0.0000  0.0000  0.0000 -0.0002
                                            0.0000  0.0000  0.0000 -0.0000 -0.0000
                                            0.0000  0.0000 -0.0000 -0.0000 -0.0000
                                           -0.0000 -0.0000  0.0000 -0.0000 -0.0000
                                           -0.0000  0.0000  0.0000 -0.0000  0.0000
                                            0.0000 -0.0000  0.0000  0.0000  0.0000
                                            0.0000  0.0000 -0.0000 -0.0000 -0.0000
                                           -0.0000  0.0000 -0.0000 -0.0000  0.0000
                                           -0.0000
     4. (1.99983) CR ( 1) I   2           s(100.00%)
                                            1.0000 -0.0002  0.0000 -0.0000  0.0000
                                            0.0000 -0.0000 -0.0001  0.0000 -0.0000
                                           -0.0000  0.0000  0.0000  0.0000  0.0000
                                            0.0000  0.0000  0.0000  0.0000  0.0000
                                           -0.0000  0.0000 -0.0000  0.0000  0.0000
                                           -0.0000 -0.0000 -0.0000  0.0000 -0.0000
                                            0.0000 -0.0000  0.0000  0.0000  0.0000
                                            0.0000 -0.0000 -0.0000 -0.0000 -0.0000
                                           -0.0000 -0.0000  0.0000 -0.0000 -0.0000
                                           -0.0000 -0.0000  0.0000 -0.0000 -0.0000
                                           -0.0000  0.0000  0.0000  0.0000  0.0000
     5. (1.99983) CR ( 2) I   2           s(  0.00%)p 1.00(100.00%)
                                            0.0000  0.0002 -0.0000  0.0000 -0.0000
                                           -0.0000 -1.0000  0.0001 -0.0000  0.0000
                                            0.0000  0.0000  0.0000 -0.0000  0.0000
                                           -0.0000  0.0000  0.0000  0.0000  0.0000
                                           -0.0000 -0.0000 -0.0000 -0.0000  0.0000
                                            0.0000 -0.0000  0.0000  0.0000  0.0000
                                           -0.0000  0.0000 -0.0000 -0.0000 -0.0000
                                           -0.0000  0.0000  0.0000  0.0000  0.0000
                                            0.0000 -0.0000 -0.0000  0.0000  0.0000
                                           -0.0000  0.0000  0.0000  0.0000 -0.0000
                                           -0.0000 -0.0000 -0.0000  0.0000 -0.0000
     6. (2.00003) CR ( 3) I   2           s(  0.00%)p 1.00(100.00%)
                                            0.0000 -0.0000  0.0000  0.0000 -0.0000
                                            0.0000 -0.0000  0.0000 -0.0000 -0.0000
                                            0.0000  1.0000 -0.0004 -0.0000 -0.0000
                                            0.0000 -0.0000 -0.0000 -0.0000  0.0000
                                           -0.0000 -0.0000  0.0000 -0.0000 -0.0000
                                           -0.0000  0.0000 -0.0000  0.0000  0.0000
                                           -0.0000  0.0000 -0.0000  0.0000 -0.0000
                                            0.0000 -0.0000 -0.0000 -0.0000  0.0000
                                           -0.0000  0.0000  0.0000 -0.0000 -0.0000
                                            0.0000  0.0000 -0.0000 -0.0000  0.0000
                                            0.0000  0.0000  0.0000 -0.0000 -0.0000
     7. (2.00003) CR ( 4) I   2           s(  0.00%)p 1.00(100.00%)
                                            0.0000  0.0000 -0.0000 -0.0000  0.0000
                                           -0.0000 -0.0000 -0.0000 -0.0000  0.0000
                                           -0.0000 -0.0000  0.0000 -0.0000 -0.0000
                                            0.0000  1.0000 -0.0004 -0.0000 -0.0000
                                            0.0000  0.0000  0.0000 -0.0000 -0.0000
                                           -0.0000  0.0000 -0.0000 -0.0000 -0.0000
                                            0.0000 -0.0000  0.0000 -0.0000  0.0000
                                           -0.0000 -0.0000  0.0000 -0.0000  0.0000
                                           -0.0000  0.0000  0.0000  0.0000  0.0000
                                            0.0000  0.0000 -0.0000 -0.0000 -0.0000
                                            0.0000 -0.0000 -0.0000 -0.0000  0.0000
     8. (1.99673) CR ( 5) I   2           s(  0.00%)p 0.00(  0.00%)d 1.00(100.00%)
                                            0.0000  0.0000  0.0000  0.0000 -0.0000
                                            0.0000  0.0000  0.0000 -0.0000 -0.0000
                                            0.0000 -0.0000 -0.0000 -0.0000 -0.0000
                                            0.0000  0.0000  0.0000  0.0000  0.0000
                                           -0.0000  1.0000  0.0000 -0.0000 -0.0000
                                            0.0000 -0.0000 -0.0000  0.0000  0.0000
                                           -0.0000  0.0000 -0.0000  0.0000 -0.0000
                                            0.0000 -0.0000  0.0000 -0.0000  0.0000
                                           -0.0000  0.0000  0.0000 -0.0000 -0.0000
                                            0.0000  0.0000 -0.0000 -0.0000  0.0000
                                            0.0000  0.0000  0.0000 -0.0000 -0.0000
     9. (1.99674) CR ( 6) I   2           s(  0.00%)p 0.00(  0.00%)d 1.00(100.00%)
                                           -0.0000 -0.0000 -0.0000 -0.0000  0.0000
                                           -0.0000 -0.0000 -0.0000  0.0000  0.0000
                                           -0.0000 -0.0000 -0.0000 -0.0000 -0.0000
                                            0.0000 -0.0000 -0.0000 -0.0000 -0.0000
                                            0.0000  0.0000  0.0000  0.0000 -0.0000
                                            1.0000  0.0000 -0.0000 -0.0000 -0.0000
                                            0.0000 -0.0000  0.0000  0.0000  0.0000
                                            0.0000 -0.0000 -0.0000 -0.0000  0.0000
                                           -0.0000  0.0000  0.0000  0.0000  0.0000
                                            0.0000 -0.0000 -0.0000 -0.0000  0.0000
                                            0.0000 -0.0000  0.0000 -0.0000  0.0000
    10. (1.99678) CR ( 7) I   2           s(  0.00%)p 0.00(  0.00%)d 1.00(100.00%)
                                           -0.0000 -0.0000 -0.0000 -0.0000  0.0000
                                           -0.0000 -0.0000 -0.0000  0.0000  0.0000
                                           -0.0000  0.0000  0.0000  0.0000  0.0000
                                           -0.0000 -0.0000 -0.0000 -0.0000 -0.0000
                                            0.0000  0.0000 -0.0000  0.0000  0.0000
                                           -0.0000  0.0000 -0.0000 -0.0000  1.0000
                                            0.0000 -0.0000  0.0000 -0.0000  0.0000
                                           -0.0000  0.0000  0.0000  0.0000 -0.0000
                                            0.0000  0.0000  0.0000  0.0000  0.0000
                                           -0.0000 -0.0000 -0.0000 -0.0000 -0.0000
                                           -0.0000 -0.0000 -0.0000  0.0000  0.0000
    11. (1.99658) CR ( 8) I   2           s(  0.00%)p 0.00(  0.00%)d 1.00(100.00%)
                                            0.0000  0.0001 -0.0000  0.0000 -0.0000
                                           -0.0000  0.0000  0.0000 -0.0000  0.0000
                                            0.0000  0.0000  0.0000  0.0000  0.0000
                                           -0.0000 -0.0000 -0.0000  0.0000 -0.0000
                                            0.0000  0.0000 -0.0000 -0.0000  0.0000
                                            0.0000  0.0000  0.0000  0.0000 -0.0000
                                            0.0000 -0.0000  0.0000  1.0000 -0.0000
                                           -0.0000  0.0000  0.0000  0.0000  0.0000
                                            0.0000  0.0000 -0.0000  0.0000  0.0000
                                           -0.0000  0.0000 -0.0000  0.0000 -0.0000
                                            0.0000 -0.0000 -0.0000  0.0000  0.0000
    12. (1.99671) CR ( 9) I   2           s(  0.00%)p 0.00(  0.00%)d 1.00(100.00%)
                                           -0.0000 -0.0000  0.0000 -0.0000  0.0000
                                            0.0000 -0.0000 -0.0000  0.0000 -0.0000
                                           -0.0000 -0.0000 -0.0000 -0.0000 -0.0000
                                            0.0000  0.0000  0.0000  0.0000  0.0000
                                           -0.0000  0.0000  0.0000  0.0000 -0.0000
                                           -0.0000 -0.0000  0.0000  0.0000  0.0000
                                           -0.0000  0.0000 -0.0000  0.0000  0.0000
                                            0.0000 -0.0000  1.0000 -0.0000 -0.0000
                                           -0.0000 -0.0000 -0.0000 -0.0000 -0.0000
                                            0.0000 -0.0000  0.0000  0.0000  0.0000
                                           -0.0000  0.0000  0.0000 -0.0000  0.0000
    13. (2.00000) CR ( 1)Cl   3           s(100.00%)
                                            1.0000  0.0000 -0.0000 -0.0000 -0.0000
                                            0.0000  0.0000  0.0000 -0.0000 -0.0000
                                            0.0000 -0.0000 -0.0000  0.0000  0.0000
                                           -0.0000 -0.0000  0.0000  0.0000 -0.0000
                                            0.0000 -0.0000  0.0000 -0.0000  0.0000
                                           -0.0000 -0.0000 -0.0000 -0.0000 -0.0000
                                           -0.0000  0.0000  0.0000 -0.0000  0.0000
                                            0.0000 -0.0000  0.0000 -0.0000  0.0000
                                            0.0000 -0.0000 -0.0000 -0.0000 -0.0000
                                            0.0000 -0.0000  0.0000  0.0000 -0.0000
    14. (1.99979) CR ( 2)Cl   3           s(100.00%)p 0.00(  0.00%)
                                            0.0000  1.0000 -0.0004  0.0000  0.0000
                                           -0.0000 -0.0000 -0.0001  0.0000  0.0000
                                           -0.0000  0.0000  0.0004 -0.0000 -0.0000
                                            0.0000 -0.0000 -0.0000 -0.0000  0.0000
                                           -0.0000  0.0000 -0.0000 -0.0000 -0.0000
                                            0.0000  0.0000  0.0000  0.0000  0.0000
                                            0.0000 -0.0000 -0.0000  0.0000 -0.0000
                                           -0.0000  0.0000 -0.0000  0.0000 -0.0000
                                           -0.0000  0.0000 -0.0000  0.0000  0.0000
                                           -0.0000  0.0000 -0.0000 -0.0000  0.0000
    15. (2.00003) CR ( 3)Cl   3           s(  0.00%)p 1.00(100.00%)
                                            0.0000 -0.0000 -0.0000  0.0000  0.0000
                                           -0.0000  1.0000  0.0001  0.0000  0.0000
                                           -0.0000  0.0000  0.0001 -0.0000 -0.0000
                                            0.0000 -0.0000 -0.0000 -0.0000  0.0000
                                            0.0000  0.0000  0.0000  0.0000 -0.0000
                                            0.0000  0.0000  0.0000 -0.0000  0.0000
                                            0.0000 -0.0000 -0.0000  0.0000 -0.0000
                                           -0.0000 -0.0000  0.0000  0.0000 -0.0000
                                           -0.0000  0.0000  0.0000 -0.0000  0.0000
                                           -0.0000  0.0000 -0.0000 -0.0000  0.0000
    16. (1.99996) CR ( 4)Cl   3           s(  0.00%)p 1.00(100.00%)
                                           -0.0000  0.0000  0.0001 -0.0000 -0.0000
                                            0.0000  0.0000  0.0002 -0.0000 -0.0000
                                            0.0000  1.0000 -0.0003  0.0000  0.0000
                                           -0.0000 -0.0000  0.0000  0.0000 -0.0000
                                            0.0000 -0.0000  0.0000  0.0000  0.0000
                                           -0.0000 -0.0000 -0.0000 -0.0000 -0.0000
                                           -0.0000  0.0000 -0.0000 -0.0000  0.0000
                                            0.0000 -0.0000  0.0000 -0.0000  0.0000
                                            0.0000 -0.0000  0.0000 -0.0000 -0.0000
                                            0.0000 -0.0000  0.0000  0.0000 -0.0000
    17. (2.00003) CR ( 5)Cl   3           s(  0.00%)p 1.00(100.00%)
                                           -0.0000 -0.0000 -0.0000  0.0000  0.0000
                                            0.0000 -0.0000  0.0000  0.0000 -0.0000
                                            0.0000 -0.0000  0.0000 -0.0000  0.0000
                                            0.0000  1.0000  0.0002  0.0000  0.0000
                                           -0.0000 -0.0000 -0.0000 -0.0000 -0.0000
                                           -0.0000 -0.0000  0.0000  0.0000  0.0000
                                            0.0000 -0.0000 -0.0000  0.0000  0.0000
                                            0.0000 -0.0000  0.0000  0.0000 -0.0000
                                           -0.0000  0.0000 -0.0000  0.0000 -0.0000
                                            0.0000 -0.0000  0.0000 -0.0000 -0.0000
    18. (1.96651) LP ( 1) O   1           s( 61.21%)p 0.63( 38.69%)d 0.00(  0.10%)
                                                  f 0.00(  0.00%)
                                            0.0002  0.7822  0.0126  0.0083 -0.0012
                                           -0.4950 -0.0078 -0.0045 -0.0010 -0.3711
                                           -0.0049 -0.0053 -0.0026 -0.0638 -0.0010
                                           -0.0006 -0.0002 -0.0276 -0.0025  0.0043
                                           -0.0034 -0.0002  0.0002 -0.0035 -0.0004
                                            0.0003 -0.0046  0.0004  0.0017  0.0119
                                            0.0008  0.0009  0.0008 -0.0001  0.0026
                                           -0.0004  0.0005  0.0005  0.0002 -0.0002
                                           -0.0004  0.0001  0.0052 -0.0027 -0.0006
                                            0.0009
    19. (1.95252) LP ( 2) O   1           s(  0.00%)p 1.00( 99.80%)d 0.00(  0.18%)
                                                  f 0.00(  0.01%)
                                           -0.0000  0.0052  0.0009  0.0005 -0.0001
                                           -0.0991 -0.0022 -0.0004 -0.0006 -0.0276
                                           -0.0004 -0.0001 -0.0004  0.9934  0.0193
                                            0.0058  0.0074 -0.0041 -0.0002  0.0007
                                            0.0196 -0.0042 -0.0104  0.0355  0.0041
                                           -0.0031 -0.0014  0.0005  0.0010  0.0057
                                           -0.0001 -0.0014 -0.0105  0.0010  0.0020
                                           -0.0000  0.0002 -0.0001 -0.0034  0.0020
                                           -0.0029 -0.0001  0.0004 -0.0004  0.0005
                                           -0.0001
    20. (1.97777) LP ( 1) I   2           s( 92.79%)p 0.08(  7.21%)d 0.00(  0.00%)
                                                  f 0.00(  0.00%)
                                            0.0002  0.9633 -0.0001  0.0013 -0.0004
                                           -0.0002  0.0002  0.2680 -0.0012  0.0005
                                            0.0001 -0.0000 -0.0069 -0.0001  0.0000
                                           -0.0001 -0.0000 -0.0144  0.0001 -0.0000
                                            0.0000 -0.0000  0.0000 -0.0001  0.0000
                                            0.0000  0.0003  0.0000  0.0000  0.0000
                                           -0.0000  0.0000 -0.0000 -0.0001 -0.0005
                                           -0.0003  0.0001  0.0000  0.0004  0.0001
                                            0.0000  0.0000 -0.0000  0.0001  0.0001
                                            0.0000  0.0000 -0.0000  0.0000  0.0000
                                            0.0000 -0.0001 -0.0002 -0.0000 -0.0001
    21. (1.95141) LP ( 2) I   2           s(  0.00%)p 1.00( 99.99%)d 0.00(  0.01%)
                                                  f 0.00(  0.00%)
                                            0.0000  0.0003 -0.0003 -0.0004  0.0005
                                           -0.0001 -0.0000 -0.0540 -0.0000  0.0002
                                           -0.0001  0.0000  0.0311  0.0001  0.0000
                                            0.0000 -0.0004 -0.9980 -0.0036 -0.0017
                                            0.0003  0.0000 -0.0003  0.0000  0.0001
                                           -0.0000  0.0077 -0.0009 -0.0022 -0.0000
                                            0.0002 -0.0002  0.0001 -0.0000  0.0005
                                           -0.0000 -0.0002  0.0000 -0.0011  0.0004
                                           -0.0001  0.0023  0.0013  0.0007  0.0005
                                           -0.0000 -0.0000 -0.0030 -0.0015 -0.0000
                                            0.0001 -0.0002 -0.0000  0.0001  0.0001
    22. (1.95111) LP ( 3) I   2           s(  0.00%)p 1.00( 99.99%)d 0.00(  0.01%)
                                                  f 0.00(  0.00%)
                                           -0.0000  0.0068 -0.0003 -0.0004  0.0007
                                           -0.0002  0.0000  0.0029  0.0001  0.0002
                                           -0.0001  0.0004  0.9994  0.0035  0.0016
                                           -0.0004  0.0000  0.0310  0.0001  0.0000
                                            0.0000  0.0000 -0.0083  0.0004  0.0026
                                            0.0000 -0.0003  0.0001  0.0000 -0.0000
                                            0.0007 -0.0002  0.0002 -0.0000  0.0010
                                           -0.0007  0.0007  0.0000  0.0002 -0.0001
                                            0.0001 -0.0001 -0.0001  0.0000  0.0001
                                           -0.0009 -0.0005  0.0001  0.0001 -0.0004
                                           -0.0003 -0.0003 -0.0002  0.0036  0.0015
    23. (1.84380) LP ( 4) I   2           s(  7.20%)p12.87( 92.73%)d 0.01(  0.05%)
                                                  f 0.00(  0.01%)
                                            0.0000  0.2684  0.0003 -0.0051  0.0014
                                            0.0007 -0.0000 -0.9615  0.0075  0.0038
                                           -0.0007 -0.0000 -0.0007 -0.0000  0.0002
                                            0.0003 -0.0000  0.0521  0.0001 -0.0002
                                            0.0001 -0.0000  0.0001  0.0002 -0.0004
                                           -0.0000 -0.0033  0.0007 -0.0001 -0.0000
                                           -0.0000  0.0000 -0.0000  0.0000  0.0193
                                           -0.0021 -0.0027  0.0000 -0.0120  0.0017
                                            0.0007 -0.0008 -0.0004  0.0057  0.0031
                                            0.0000 -0.0001  0.0011  0.0005  0.0000
                                            0.0000 -0.0070 -0.0029 -0.0001  0.0002
    24. (1.97337) LP ( 1)Cl   3           s( 91.64%)p 0.09(  8.34%)d 0.00(  0.02%)
                                                  f 0.00(  0.00%)
                                            0.0000  0.0002  0.9573  0.0059  0.0010
                                           -0.0004 -0.0000 -0.0230  0.0004  0.0006
                                            0.0003  0.0001  0.2877 -0.0063 -0.0030
                                            0.0013 -0.0000  0.0053  0.0001  0.0000
                                           -0.0000  0.0053  0.0003  0.0005  0.0001
                                            0.0000 -0.0000  0.0001  0.0001  0.0001
                                            0.0108 -0.0005 -0.0004  0.0076  0.0006
                                            0.0004 -0.0001  0.0000  0.0003  0.0001
                                           -0.0021 -0.0004  0.0000 -0.0000 -0.0001
                                            0.0000  0.0018  0.0002 -0.0031  0.0001
    25. (1.95612) LP ( 2)Cl   3           s(  0.00%)p 1.00( 99.95%)d 0.00(  0.04%)
                                                  f 0.00(  0.01%)
                                            0.0000  0.0000  0.0025 -0.0007 -0.0004
                                           -0.0003 -0.0000  0.0624  0.0008  0.0004
                                           -0.0000 -0.0000  0.0152  0.0002 -0.0000
                                            0.0000  0.0002 -0.9976 -0.0148 -0.0051
                                            0.0022  0.0006  0.0010  0.0005  0.0045
                                            0.0064  0.0028 -0.0060 -0.0157 -0.0082
                                           -0.0004 -0.0006 -0.0003 -0.0002 -0.0001
                                           -0.0001  0.0055 -0.0010 -0.0004  0.0002
                                            0.0001 -0.0001  0.0054 -0.0004  0.0038
                                           -0.0011 -0.0003 -0.0000 -0.0004  0.0001
    26. (1.95445) LP ( 3)Cl   3           s(  0.21%)p99.99( 99.74%)d 0.17(  0.04%)
                                                  f 0.04(  0.01%)
                                            0.0000 -0.0000  0.0456  0.0053  0.0040
                                            0.0018  0.0002 -0.9700 -0.0125 -0.0012
                                           -0.0003  0.0001 -0.2284 -0.0032 -0.0007
                                           -0.0006  0.0000 -0.0640 -0.0010 -0.0001
                                            0.0000  0.0053 -0.0107 -0.0059 -0.0002
                                            0.0002  0.0002  0.0004 -0.0008 -0.0005
                                            0.0054  0.0102  0.0062 -0.0003 -0.0024
                                           -0.0004  0.0005 -0.0001  0.0024 -0.0003
                                            0.0006  0.0003  0.0002  0.0001  0.0003
                                           -0.0001  0.0058 -0.0008  0.0065 -0.0010
    27. (0.01964) RY*( 1) O   1           s(  0.01%)p 1.00( 98.64%)d 0.01(  1.30%)
                                                  f 0.00(  0.05%)
                                           -0.0000  0.0001  0.0095  0.0009 -0.0003
                                            0.0023 -0.0968  0.0035  0.0026  0.0011
                                           -0.0268  0.0011 -0.0003 -0.0238  0.9869
                                           -0.0396 -0.0098 -0.0106 -0.0021  0.0002
                                            0.0488 -0.0055 -0.0159  0.0963  0.0265
                                            0.0055 -0.0027  0.0012  0.0015  0.0144
                                            0.0011 -0.0010 -0.0131  0.0114  0.0015
                                           -0.0015  0.0005 -0.0003 -0.0106  0.0087
                                           -0.0025  0.0032  0.0017 -0.0013  0.0007
                                           -0.0008
    28. (0.01634) RY*( 2) O   1           s( 32.05%)p 2.05( 65.76%)d 0.06(  1.99%)
                                                  f 0.01(  0.20%)
                                           -0.0000  0.0032  0.5652 -0.0314 -0.0073
                                            0.0125 -0.6258 -0.0006  0.0620  0.0395
                                           -0.5027 -0.0052  0.0341  0.0017 -0.0806
                                            0.0013  0.0061 -0.1216 -0.0262 -0.0099
                                           -0.0066  0.0015  0.0024 -0.0167 -0.0036
                                           -0.0015  0.0252  0.0080 -0.0016  0.0571
                                            0.0048 -0.0013 -0.0019  0.0003 -0.0033
                                           -0.0020 -0.0043  0.0000  0.0060 -0.0029
                                           -0.0014  0.0009  0.0386 -0.0181 -0.0110
                                            0.0037
    29. (0.00810) RY*( 3) O   1           s( 17.69%)p 0.59( 10.49%)d 3.99( 70.60%)
                                                  f 0.07(  1.22%)
                                           -0.0000  0.0169  0.4139 -0.0706  0.0200
                                            0.0157  0.3006 -0.0275  0.0759 -0.0169
                                           -0.0650  0.0004  0.0521  0.0005  0.0228
                                           -0.0015  0.0018  0.6552  0.0086  0.0078
                                           -0.0061  0.0018 -0.0004  0.0404  0.0022
                                            0.0018 -0.4780 -0.0139 -0.0399  0.2111
                                           -0.0084  0.0067 -0.0033  0.0017  0.0014
                                           -0.0045 -0.0217  0.0133 -0.0050  0.0019
                                            0.0067 -0.0032 -0.0966  0.0396 -0.0196
                                            0.0100
    30. (0.00709) RY*( 4) O   1           s(  0.02%)p15.44(  0.33%)d99.99( 97.91%)
                                                  f80.95(  1.73%)
                                            0.0000  0.0008  0.0145 -0.0016 -0.0005
                                            0.0012  0.0028  0.0012  0.0007 -0.0004
                                            0.0000  0.0008  0.0014 -0.0174 -0.0535
                                           -0.0098 -0.0054 -0.0111  0.0020 -0.0002
[...]
                                           -0.0008 -0.0195  0.3676 -0.0209 -0.0829
                                            0.0312 -0.2421 -0.0579  0.7434 -0.1235
                                           -0.0150  0.0619 -0.0513  0.3356 -0.1680
                                            0.0695  0.0146 -0.0283 -0.0156 -0.2018
                                            0.1527  0.0504 -0.0782
   159. (0.00033) RY*( 9) H   4           s(  0.37%)p99.99( 91.00%)d23.22(  8.63%)
                                           -0.0003 -0.0072  0.0573  0.0196 -0.0186
                                            0.0564  0.0597 -0.0135  0.0390 -0.0187
                                            0.1289 -0.9394 -0.0419  0.0445 -0.0061
                                           -0.1659  0.2110  0.0368 -0.0293 -0.0828
                                           -0.0272  0.0113  0.0483
   160. (0.00028) RY*(10) H   4           s(  5.57%)p 7.07( 39.43%)d 9.87( 55.00%)
                                            0.0174  0.0705 -0.0733  0.2123  0.0598
                                            0.3820  0.4713 -0.0745 -0.0255 -0.0508
                                           -0.0125  0.1092  0.0420  0.1576 -0.0211
                                           -0.0111 -0.0349 -0.0075  0.0009 -0.6297
                                           -0.0972 -0.3288  0.0957
   161. (0.00026) RY*(11) H   4           s(  8.61%)p 1.00(  8.57%)d 9.62( 82.82%)
                                            0.0064  0.0005  0.2623  0.1315 -0.0086
                                            0.1988  0.0353  0.0972  0.1040  0.1342
                                            0.0025  0.0727 -0.0360 -0.5744 -0.0102
                                           -0.1094  0.0320  0.6112 -0.0531 -0.1669
                                            0.0524  0.2693 -0.0756
   162. (0.00023) RY*(12) H   4           s(  3.47%)p 2.75(  9.55%)d25.04( 86.98%)
                                            0.0090  0.0049  0.1405  0.1220  0.0001
                                            0.2327  0.1398  0.0675  0.0595  0.1153
                                            0.0176 -0.0102 -0.0049 -0.3179  0.0118
                                            0.0498 -0.0120 -0.7287  0.0668 -0.0710
                                           -0.0113  0.4743 -0.0189
   163. (0.00021) RY*(13) H   4           s(  6.01%)p 2.38( 14.29%)d13.26( 79.70%)
                                           -0.0096 -0.0271  0.2416 -0.0295 -0.0277
                                           -0.2209 -0.2911  0.0169 -0.0559  0.0354
                                           -0.0103 -0.0584  0.0211 -0.4843 -0.0090
                                            0.0555  0.0208 -0.2559  0.0227 -0.2338
                                            0.1394 -0.6365 -0.1165
   164. (0.00013) RY*(14) H   4           s( 65.36%)p 0.12(  7.70%)d 0.41( 26.94%)
                                           -0.0029 -0.0165  0.2097  0.7806 -0.0187
                                           -0.1257  0.1404  0.0153  0.1548 -0.1291
                                           -0.0108  0.0063 -0.0097 -0.0095  0.1637
                                            0.0112 -0.0054 -0.0067  0.0028  0.4038
                                           -0.1732 -0.1942  0.1078
   165. (0.00014) RY*(15) H   4           s(  0.21%)p99.99( 46.44%)d99.99( 53.35%)
                                           -0.0010 -0.0009  0.0282  0.0362  0.0063
                                           -0.0019 -0.0215  0.0016  0.0055 -0.0300
                                           -0.0304 -0.2307  0.6394 -0.0085  0.0212
                                            0.3298 -0.6362  0.0884  0.0126 -0.0292
                                            0.0366  0.0699 -0.0661
   166. (0.00011) RY*(16) H   4           s(  4.29%)p 8.94( 38.36%)d13.37( 57.35%)
                                            0.0020  0.0038  0.1321  0.1595  0.0092
                                           -0.0448  0.0395 -0.0122 -0.1395  0.5999
                                           -0.0004 -0.0111  0.0197  0.1483 -0.7311
                                            0.0100 -0.0258  0.0011 -0.0339  0.0991
                                           -0.0376 -0.0605 -0.0089
   167. (0.00006) RY*(17) H   4           s(  0.01%)p 1.00(  0.16%)d99.99( 99.84%)
   168. (0.00006) RY*(18) H   4           s( 42.14%)p 0.76( 31.93%)d 0.62( 25.93%)
   169. (0.00006) RY*(19) H   4           s(  4.34%)p 3.33( 14.46%)d18.69( 81.19%)
   170. (0.00005) RY*(20) H   4           s(  0.01%)p99.99( 37.52%)d99.99( 62.47%)
   171. (0.00005) RY*(21) H   4           s(  1.00%)p 5.65(  5.65%)d93.41( 93.35%)
   172. (0.00004) RY*(22) H   4           s(  3.25%)p14.83( 48.25%)d14.91( 48.50%)
   173. (0.05904) BD*( 1) O   1 -Cl   3  
                ( 40.81%)   0.6388* O   1 s( 10.46%)p 8.51( 89.02%)d 0.05(  0.50%)
                                                  f 0.00(  0.02%)
                                           -0.0003 -0.3207  0.0387  0.0137  0.0008
                                            0.1880 -0.0349 -0.0071 -0.0024 -0.9235
                                            0.0236  0.0086  0.0106 -0.0053 -0.0027
                                           -0.0005  0.0001  0.0031 -0.0001  0.0026
                                           -0.0014 -0.0001  0.0003 -0.0030 -0.0004
                                            0.0001  0.0569  0.0045  0.0010  0.0418
                                            0.0033 -0.0009  0.0000  0.0000 -0.0027
                                            0.0004  0.0110 -0.0012  0.0005 -0.0003
                                           -0.0010  0.0002 -0.0033 -0.0021  0.0045
                                           -0.0003
                ( 59.19%)  -0.7694*Cl   3 s(  8.38%)p10.78( 90.34%)d 0.14(  1.17%)
                                                  f 0.01(  0.11%)
                                            0.0000 -0.0005 -0.2845  0.0522  0.0095
                                           -0.0031 -0.0001 -0.2290  0.0126  0.0057
                                           -0.0018  0.0004  0.9201 -0.0632 -0.0128
                                            0.0035 -0.0000 -0.0011 -0.0000  0.0003
                                           -0.0001  0.0520 -0.0045  0.0005 -0.0013
                                            0.0000  0.0002  0.0016  0.0002  0.0002
                                            0.0746 -0.0091 -0.0007  0.0572 -0.0057
                                           -0.0011  0.0002 -0.0000  0.0054 -0.0010
                                           -0.0206  0.0030 -0.0000  0.0001  0.0003
                                           -0.0002  0.0175 -0.0019 -0.0187  0.0018
   174. (0.12392) BD*( 1) O   1 - H   4  
                ( 20.43%)   0.4520* O   1 s( 28.45%)p 2.50( 71.05%)d 0.02(  0.49%)
                                                  f 0.00(  0.01%)
                                           -0.0003 -0.5332  0.0097  0.0086 -0.0017
                                           -0.8387  0.0093  0.0067  0.0056  0.0129
                                           -0.0159 -0.0015 -0.0020 -0.0806  0.0003
                                            0.0007  0.0008 -0.0264 -0.0049 -0.0011
                                           -0.0114 -0.0007  0.0004 -0.0028 -0.0005
                                           -0.0001 -0.0520 -0.0038 -0.0016  0.0359
                                            0.0016 -0.0027  0.0020  0.0000  0.0087
                                            0.0002  0.0003 -0.0005 -0.0013 -0.0004
                                           -0.0001  0.0002 -0.0010 -0.0030  0.0017
                                            0.0005
                ( 79.57%)  -0.8920* H   4 s( 99.83%)p 0.00(  0.16%)d 0.00(  0.00%)
                                           -0.9980 -0.0474 -0.0032  0.0017 -0.0134
                                            0.0324  0.0118 -0.0148 -0.0013  0.0036
                                           -0.0044  0.0033  0.0004 -0.0010 -0.0020
                                            0.0003  0.0001 -0.0002 -0.0002 -0.0028
                                            0.0003  0.0008  0.0029


 NHO Directionality and "Bond Bending" (deviations from line of nuclear centers)

         [Thresholds for printing:  angular deviation  >  1.0 degree]
                                    hybrid p-character > 25.0%
                                    orbital occupancy  >  0.10e

                                Line of Centers        Hybrid 1              Hybrid 2
                                ---------------  -------------------   ------------------
                NBO               Theta   Phi    Theta   Phi    Dev    Theta   Phi    Dev
 ========================================================================================
     1. BD (   1) O   1 -Cl   3    90.0  103.2    89.5   99.3   4.0      --     --    --
    18. LP (   1) O   1             --     --     95.9  217.1   --       --     --    --
    19. LP (   2) O   1             --     --      5.9  195.6   --       --     --    --
    21. LP (   2) I   2             --     --    176.4  149.9   --       --     --    --
    22. LP (   3) I   2             --     --     88.2   89.8   --       --     --    --
    23. LP (   4) I   2             --     --     86.9  180.0   --       --     --    --
    25. LP (   2)Cl   3             --     --    176.3   13.6   --       --     --    --
    26. LP (   3)Cl   3             --     --     93.7  193.3   --       --     --    --


 Natural Bond Orbitals (Summary):

           NBO                  Occupancy  
 -----------------------------------------------
 Molecular unit  1  (HOCl)
     1. BD (   1) O   1 -Cl   3          1.93910
     2. BD (   1) O   1 - H   4          1.96416
     3. CR (   1) O   1                  1.99970
    13. CR (   1)Cl   3                  2.00000
    14. CR (   2)Cl   3                  1.99979
    15. CR (   3)Cl   3                  2.00003
    16. CR (   4)Cl   3                  1.99996
    17. CR (   5)Cl   3                  2.00003
    18. LP (   1) O   1                  1.96651
    19. LP (   2) O   1                  1.95252
    24. LP (   1)Cl   3                  1.97337
    25. LP (   2)Cl   3                  1.95612
    26. LP (   3)Cl   3                  1.95445
    27. RY*(   1) O   1                  0.01964
    28. RY*(   2) O   1                  0.01634
    29. RY*(   3) O   1                  0.00810
    30. RY*(   4) O   1                  0.00709
    31. RY*(   5) O   1                  0.00632
    32. RY*(   6) O   1                  0.00618
    33. RY*(   7) O   1                  0.00576
    34. RY*(   8) O   1                  0.00344
    35. RY*(   9) O   1                  0.00253
    36. RY*(  10) O   1                  0.00089
    37. RY*(  11) O   1                  0.00065
    38. RY*(  12) O   1                  0.00062
    39. RY*(  13) O   1                  0.00059
    40. RY*(  14) O   1                  0.00050
    41. RY*(  15) O   1                  0.00051
    42. RY*(  16) O   1                  0.00048
    43. RY*(  17) O   1                  0.00049
    44. RY*(  18) O   1                  0.00048
    45. RY*(  19) O   1                  0.00045
    46. RY*(  20) O   1                  0.00044
    47. RY*(  21) O   1                  0.00045
    48. RY*(  22) O   1                  0.00042
    49. RY*(  23) O   1                  0.00036
    50. RY*(  24) O   1                  0.00032
    51. RY*(  25) O   1                  0.00025
    52. RY*(  26) O   1                  0.00020
    53. RY*(  27) O   1                  0.00015
    54. RY*(  28) O   1                  0.00013
    55. RY*(  29) O   1                  0.00012
    56. RY*(  30) O   1                  0.00008
    57. RY*(  31) O   1                  0.00009
    58. RY*(  32) O   1                  0.00008
    59. RY*(  33) O   1                  0.00009
    60. RY*(  34) O   1                  0.00007
    61. RY*(  35) O   1                  0.00008
    62. RY*(  36) O   1                  0.00007
    63. RY*(  37) O   1                  0.00005
    64. RY*(  38) O   1                  0.00006
    65. RY*(  39) O   1                  0.00003
    66. RY*(  40) O   1                  0.00003
    67. RY*(  41) O   1                  0.00001
   110. RY*(   1)Cl   3                  0.02227
   111. RY*(   2)Cl   3                  0.01736
   112. RY*(   3)Cl   3                  0.01676
   113. RY*(   4)Cl   3                  0.01657
   114. RY*(   5)Cl   3                  0.01163
   115. RY*(   6)Cl   3                  0.00920
   116. RY*(   7)Cl   3                  0.00901
   117. RY*(   8)Cl   3                  0.00625
   118. RY*(   9)Cl   3                  0.00167
   119. RY*(  10)Cl   3                  0.00127
   120. RY*(  11)Cl   3                  0.00127
   121. RY*(  12)Cl   3                  0.00119
   122. RY*(  13)Cl   3                  0.00120
   123. RY*(  14)Cl   3                  0.00116
   124. RY*(  15)Cl   3                  0.00111
   125. RY*(  16)Cl   3                  0.00094
   126. RY*(  17)Cl   3                  0.00076
   127. RY*(  18)Cl   3                  0.00077
   128. RY*(  19)Cl   3                  0.00062
   129. RY*(  20)Cl   3                  0.00056
   130. RY*(  21)Cl   3                  0.00046
   131. RY*(  22)Cl   3                  0.00037
   132. RY*(  23)Cl   3                  0.00035
   133. RY*(  24)Cl   3                  0.00032
   134. RY*(  25)Cl   3                  0.00018
   135. RY*(  26)Cl   3                  0.00016
   136. RY*(  27)Cl   3                  0.00016
   137. RY*(  28)Cl   3                  0.00013
   138. RY*(  29)Cl   3                  0.00012
   139. RY*(  30)Cl   3                  0.00013
   140. RY*(  31)Cl   3                  0.00011
   141. RY*(  32)Cl   3                  0.00010
   142. RY*(  33)Cl   3                  0.00010
   143. RY*(  34)Cl   3                  0.00010
   144. RY*(  35)Cl   3                  0.00010
   145. RY*(  36)Cl   3                  0.00009
   146. RY*(  37)Cl   3                  0.00008
   147. RY*(  38)Cl   3                  0.00006
   148. RY*(  39)Cl   3                  0.00004
   149. RY*(  40)Cl   3                  0.00003
   150. RY*(  41)Cl   3                  0.00000
   151. RY*(   1) H   4                  0.01163
   152. RY*(   2) H   4                  0.00579
   153. RY*(   3) H   4                  0.00494
   154. RY*(   4) H   4                  0.00394
   155. RY*(   5) H   4                  0.00071
   156. RY*(   6) H   4                  0.00058
   157. RY*(   7) H   4                  0.00050
   158. RY*(   8) H   4                  0.00039
   159. RY*(   9) H   4                  0.00033
   160. RY*(  10) H   4                  0.00028
   161. RY*(  11) H   4                  0.00026
   162. RY*(  12) H   4                  0.00023
   163. RY*(  13) H   4                  0.00021
   164. RY*(  14) H   4                  0.00013
   165. RY*(  15) H   4                  0.00014
   166. RY*(  16) H   4                  0.00011
   167. RY*(  17) H   4                  0.00006
   168. RY*(  18) H   4                  0.00006
   169. RY*(  19) H   4                  0.00006
   170. RY*(  20) H   4                  0.00005
   171. RY*(  21) H   4                  0.00005
   172. RY*(  22) H   4                  0.00004
   173. BD*(   1) O   1 -Cl   3          0.05904
   174. BD*(   1) O   1 - H   4          0.12392
       -------------------------------
              Total Lewis   25.70573  ( 98.3817%)
        Valence non-Lewis    0.18296  (  0.7002%)
        Rydberg non-Lewis    0.23987  (  0.9180%)
       -------------------------------
            Total unit  1   26.12856  (100.0000%)
           Charge unit  1   -0.12856

 Molecular unit  2  (I)
     4. CR (   1) I   2                  1.99983
     5. CR (   2) I   2                  1.99983
     6. CR (   3) I   2                  2.00003
     7. CR (   4) I   2                  2.00003
     8. CR (   5) I   2                  1.99673
     9. CR (   6) I   2                  1.99674
    10. CR (   7) I   2                  1.99678
    11. CR (   8) I   2                  1.99658
    12. CR (   9) I   2                  1.99671
    20. LP (   1) I   2                  1.97777
    21. LP (   2) I   2                  1.95141
    22. LP (   3) I   2                  1.95111
    23. LP (   4) I   2                  1.84380
    68. RY*(   1) I   2                  0.02020
    69. RY*(   2) I   2                  0.02011
    70. RY*(   3) I   2                  0.02008
    71. RY*(   4) I   2                  0.02006
    72. RY*(   5) I   2                  0.01881
    73. RY*(   6) I   2                  0.01055
    74. RY*(   7) I   2                  0.01049
    75. RY*(   8) I   2                  0.00882
    76. RY*(   9) I   2                  0.00280
    77. RY*(  10) I   2                  0.00278
    78. RY*(  11) I   2                  0.00277
    79. RY*(  12) I   2                  0.00276
    80. RY*(  13) I   2                  0.00276
    81. RY*(  14) I   2                  0.00268
    82. RY*(  15) I   2                  0.00267
    83. RY*(  16) I   2                  0.00237
    84. RY*(  17) I   2                  0.00165
    85. RY*(  18) I   2                  0.00166
    86. RY*(  19) I   2                  0.00131
    87. RY*(  20) I   2                  0.00128
    88. RY*(  21) I   2                  0.00109
    89. RY*(  22) I   2                  0.00072
    90. RY*(  23) I   2                  0.00072
    91. RY*(  24) I   2                  0.00059
    92. RY*(  25) I   2                  0.00046
    93. RY*(  26) I   2                  0.00045
    94. RY*(  27) I   2                  0.00044
    95. RY*(  28) I   2                  0.00042
    96. RY*(  29) I   2                  0.00041
    97. RY*(  30) I   2                  0.00041
    98. RY*(  31) I   2                  0.00038
    99. RY*(  32) I   2                  0.00031
   100. RY*(  33) I   2                  0.00020
   101. RY*(  34) I   2                  0.00019
   102. RY*(  35) I   2                  0.00014
   103. RY*(  36) I   2                  0.00013
   104. RY*(  37) I   2                  0.00012
   105. RY*(  38) I   2                  0.00010
   106. RY*(  39) I   2                  0.00010
   107. RY*(  40) I   2                  0.00007
   108. RY*(  41) I   2                  0.00006
   109. RY*(  42) I   2                  0.00000
       -------------------------------
              Total Lewis   53.70735  ( 99.6954%)
        Valence non-Lewis    0.00000  (  0.0000%)
        Rydberg non-Lewis    0.16409  (  0.3046%)
       -------------------------------
            Total unit  2   53.87144  (100.0000%)
           Charge unit  2   -0.87144
 Leave Link  607 at Tue Sep 28 09:15:34 2021, MaxMem= 16106127360 cpu:              73.1 elap:               2.7
 (Enter /sw/contrib/gaussian/g16/B01/g16/l9999.exe)
 1\1\GINC-N2398\SP\RMP2-FC\Gen\Cl1H1I1O1(1-)\CGAVINH\28-Sep-2021\0\\#p 
 pop=NBO SP NoSymm mp2/gen Pseudo=read density=current\\title\\-1,1\O,0
 ,0.,0.,0.\I,0,3.31229841,0.,0.\Cl,0,-0.386418759,1.641656518,0.\H,0,1.
 003785702,0.,0.08781987\\Version=ES64L-G16RevB.01\HF=-829.685435\MP2=-
 830.3682015\RMSD=8.485e-09\Dipole=-1.7753351,0.8214819,0.0221051\Quadr
 upole=-21.1577104,10.6098394,10.5478709,0.291718,-0.0123861,-0.0194378
 \PG=C01 [X(Cl1H1I1O1)]\\@


 ACCORDING TO HEN3RY, LIFE IS MUCH LIKE A SEWER........
 YOU GET OUT OF IT JUST WHAT YOU PUT INTO IT...........
                         TOM LEHRER - (THE 3 IS SILENT)
 Job cpu time:       0 days  0 hours  5 minutes 37.9 seconds.
 Elapsed time:       0 days  0 hours  0 minutes 17.2 seconds.
 File lengths (MBytes):  RWF=     15 Int=      0 D2E=      0 Chk=      8 Scr=      1
 Normal termination of Gaussian 16 at Tue Sep 28 09:15:34 2021.
