title                                                                   
SP        RMP2-FC                                                     Gen                 
Number of atoms                            I                4
Info1-9                                    I   N=           9
         135         126           0           0           0         110
           1           2           1
Full Title                                 C   N=           1
title       
Route                                      C   N=           5
#p pop=NBO SP NoSymm mp2/gen Pseudo=read density=current    
Charge                                     I               -1
Multiplicity                               I                1
Number of electrons                        I               52
Number of alpha electrons                  I               26
Number of beta electrons                   I               26
Number of basis functions                  I              174
Number of independent functions            I              174
Number of point charges in /Mol/           I                0
Number of translation vectors              I                0
Atomic numbers                             I   N=           4
           8          53          17           1
Nuclear charges                            R   N=           4
  8.00000000E+00  2.50000000E+01  1.70000000E+01  1.00000000E+00
Current cartesian coordinates              R   N=          12
  0.00000000E+00  0.00000000E+00  0.00000000E+00  6.25933684E+00  0.00000000E+00
  0.00000000E+00 -7.30225624E-01  3.10228121E+00  0.00000000E+00  1.89688006E+00
  0.00000000E+00  1.65955503E-01
Number of symbols in /Mol/                 I                0
Force Field                                I                0
Atom Types                                 C   N=           4
                                                
Int Atom Types                             I   N=           4
           0           0           0           0
MM charges                                 R   N=           4
  0.00000000E+00  0.00000000E+00  0.00000000E+00  0.00000000E+00
Integer atomic weights                     I   N=           4
          16         127          35           1
Real atomic weights                        R   N=           4
  1.59949146E+01  1.26900400E+02  3.49688527E+01  1.00782504E+00
Atom fragment info                         I   N=           4
           0           0           0           0
Atom residue num                           I   N=           4
           0           0           0           0
Nuclear spins                              I   N=           4
           0           5           3           1
Nuclear ZEff                               R   N=           4
 -5.60000000E+00 -5.83000000E+03 -1.42400000E+01 -1.00000000E+00
Nuclear ZNuc                               R   N=           4
  8.00000000E+00  5.30000000E+01  1.70000000E+01  1.00000000E+00
Nuclear QMom                               R   N=           4
  0.00000000E+00 -7.10000000E+01 -8.16500000E+00  0.00000000E+00
Nuclear GFac                               R   N=           4
  0.00000000E+00  2.81328000E+00  8.21874000E-01  2.79284600E+00
MicOpt                                     I   N=           4
          -1          -1          -1          -1
Number of residues                         I                0
Number of secondary structures             I                0
Number of contracted shells                I               56
Number of primitive shells                 I              143
Pure/Cartesian d shells                    I                0
Pure/Cartesian f shells                    I                0
Highest angular momentum                   I                3
Largest degree of contraction              I               11
Shell types                                I   N=          56
           0           0           0           0           0           1
           1           1           1          -2          -2          -2
          -3          -3           0           0           0           0
           0           0           1           1           1           1
           1          -2          -2          -2          -2          -3
          -3           0           0           0           0           0
           0           1           1           1           1           1
          -2          -2          -2          -3          -3           0
           0           0           0           1           1           1
          -2          -2
Number of primitives per shell             I   N=          56
           7           6           1           1           1           3
           1           1           1           1           1           1
           1           1           9           8           1           1
           1           1           8           8           1           1
           1           9           1           1           1           1
           1          11           9           8           1           1
           1           6           6           1           1           1
           1           1           1           1           1           3
           1           1           1           1           1           1
           1           1
Shell to atom map                          I   N=          56
           1           1           1           1           1           1
           1           1           1           1           1           1
           1           1           2           2           2           2
           2           2           2           2           2           2
           2           2           2           2           2           2
           2           3           3           3           3           3
           3           3           3           3           3           3
           3           3           3           3           3           4
           4           4           4           4           4           4
           4           4
Primitive exponents                        R   N=         143
  1.53300000E+04  2.29900000E+03  5.22400000E+02  1.47300000E+02  4.75500000E+01
  1.67600000E+01  6.20700000E+00  5.22400000E+02  1.47300000E+02  4.75500000E+01
  1.67600000E+01  6.20700000E+00  6.88200000E-01  1.75200000E+00  2.38400000E-01
  7.37600000E-02  3.44600000E+01  7.74900000E+00  2.28000000E+00  7.15600000E-01
  2.14000000E-01  5.97400000E-02  2.31400000E+00  6.45000000E-01  2.14000000E-01
  1.42800000E+00  5.00000000E-01  5.54650000E+03  8.38214000E+02  1.82187000E+02
  3.12123000E+01  1.95314000E+01  8.24099000E+00  2.19455000E+00  1.10911000E+00
  8.10610000E-02  5.54650000E+03  8.38214000E+02  3.12123000E+01  1.95314000E+01
  8.24099000E+00  2.19455000E+00  1.10911000E+00  8.10610000E-02  3.74641000E-01
  1.77080000E-01  1.00100000E-01  4.12000000E-02  1.88988000E+02  2.12868000E+01
  1.00396000E+01  3.45180000E+00  1.97456000E+00  1.02420000E+00  4.49437000E-01
  7.34810000E-02  1.88988000E+02  1.00396000E+01  3.45180000E+00  1.97456000E+00
  1.02420000E+00  4.49437000E-01  1.86648000E-01  7.34810000E-02  5.98100000E-01
  9.61800000E-02  3.59000000E-02  1.32662000E+02  3.76054000E+01  1.03891000E+01
  6.49017000E+00  3.45451000E+00  1.84413000E+00  9.62478000E-01  4.72853000E-01
  1.93200000E-01  4.72853000E-01  1.93200000E-01  7.82000000E-02  4.06400000E-01
  1.84800000E-01  4.56100000E+05  6.83300000E+04  1.55500000E+04  4.40500000E+03
  1.43900000E+03  5.20400000E+02  2.03100000E+02  8.39600000E+01  3.62000000E+01
  1.58300000E+01  6.33400000E+00  4.40500000E+03  1.43900000E+03  5.20400000E+02
  2.03100000E+02  8.39600000E+01  3.62000000E+01  1.58300000E+01  6.33400000E+00
  2.69400000E+00  1.43900000E+03  2.03100000E+02  8.39600000E+01  3.62000000E+01
  1.58300000E+01  6.33400000E+00  2.69400000E+00  4.31300000E-01  9.76800000E-01
  1.62500000E-01  5.91000000E-02  6.63300000E+02  1.56800000E+02  4.99800000E+01
  1.84200000E+01  7.24000000E+00  2.92200000E+00  1.56800000E+02  4.99800000E+01
  1.84200000E+01  7.24000000E+00  2.92200000E+00  3.81800000E-01  1.02200000E+00
  1.30100000E-01  4.19000000E-02  1.04600000E+00  3.44000000E-01  1.35000000E-01
  7.06000000E-01  3.12000000E-01  3.38700000E+01  5.09500000E+00  1.15900000E+00
  3.25800000E-01  1.02700000E-01  2.52600000E-02  1.40700000E+00  3.88000000E-01
  1.02000000E-01  1.05700000E+00  2.47000000E-01
Contraction coefficients                   R   N=         143
  5.19808943E-04  4.02025621E-03  2.07128267E-02  8.10105536E-02  2.35962985E-01
  4.42653446E-01  3.57064423E-01 -4.42115008E-05 -1.22591041E-03 -1.05517725E-02
 -6.74452633E-02 -1.71198607E-01  1.07329856E+00  1.00000000E+00  1.00000000E+00
  1.00000000E+00  4.11634896E-02  2.57762836E-01  8.02419274E-01  1.00000000E+00
  1.00000000E+00  1.00000000E+00  1.00000000E+00  1.00000000E+00  1.00000000E+00
  1.00000000E+00  1.00000000E+00  1.58603022E-04  1.00211458E-03  2.83966410E-03
 -4.40310212E-02  2.38198152E-01 -7.63568980E-01  8.96516870E-01  4.68371203E-01
  2.16251781E-03 -2.17177846E-05 -2.59237305E-04 -1.50376554E-02  2.42214079E-02
  6.99888661E-02 -5.50491335E-01 -5.69654432E-01  3.76065139E-01  1.00000000E+00
  1.00000000E+00  1.00000000E+00  1.00000000E+00  5.85232173E-04  3.69335916E-02
 -2.35399435E-01  3.41625365E-01  5.34991615E-01  2.65244797E-01  2.54463150E-02
  3.82802808E-04 -6.76097015E-05  8.33123161E-03 -4.66496478E-02 -5.27406452E-02
 -2.91398344E-02  3.65650039E-01  5.48502805E-01  2.34644635E-01  1.00000000E+00
  1.00000000E+00  1.00000000E+00  5.72000072E-04  4.40200055E-03 -4.09220051E-02
  9.96610125E-02  3.22663040E-01  4.00343050E-01  2.68306034E-01  8.48470106E-02
  7.63200096E-03  1.00000000E+00  1.00000000E+00  1.00000000E+00  1.00000000E+00
  1.00000000E+00  4.93229477E-05  3.83207967E-04  2.00947816E-03  8.38950124E-03
  2.94843950E-02  8.78759948E-02  2.11589759E-01  3.65611554E-01  3.41246350E-01
  1.02162570E-01  2.14249949E-03 -2.21747925E-06 -1.71189708E-04 -1.27922846E-03
 -9.32956265E-03 -3.98910062E-02 -1.05536085E-01  9.36202446E-03  5.10511140E-01
  5.73150737E-01  4.03949245E-06  2.12481765E-04  8.59484452E-04  4.63248159E-03
  4.47343490E-04 -7.38438245E-02 -3.62271994E-01  1.16620337E+00  1.00000000E+00
  1.00000000E+00  1.00000000E+00  2.47206402E-03  1.97550234E-02  9.09917355E-02
  2.63187834E-01  4.49078073E-01  3.60183072E-01  3.03427809E-05 -1.22475826E-03
 -6.01429772E-03 -2.76401323E-02  4.35105612E-04  1.00307272E+00  1.00000000E+00
  1.00000000E+00  1.00000000E+00  1.00000000E+00  1.00000000E+00  1.00000000E+00
  1.00000000E+00  1.00000000E+00  2.54948632E-02  1.90362766E-01  8.52162022E-01
  1.00000000E+00  1.00000000E+00  1.00000000E+00  1.00000000E+00  1.00000000E+00
  1.00000000E+00  1.00000000E+00  1.00000000E+00
Coordinates of each shell                  R   N=         168
  0.00000000E+00  0.00000000E+00  0.00000000E+00  0.00000000E+00  0.00000000E+00
  0.00000000E+00  0.00000000E+00  0.00000000E+00  0.00000000E+00  0.00000000E+00
  0.00000000E+00  0.00000000E+00  0.00000000E+00  0.00000000E+00  0.00000000E+00
  0.00000000E+00  0.00000000E+00  0.00000000E+00  0.00000000E+00  0.00000000E+00
  0.00000000E+00  0.00000000E+00  0.00000000E+00  0.00000000E+00  0.00000000E+00
  0.00000000E+00  0.00000000E+00  0.00000000E+00  0.00000000E+00  0.00000000E+00
  0.00000000E+00  0.00000000E+00  0.00000000E+00  0.00000000E+00  0.00000000E+00
  0.00000000E+00  0.00000000E+00  0.00000000E+00  0.00000000E+00  0.00000000E+00
  0.00000000E+00  0.00000000E+00  6.25933684E+00  0.00000000E+00  0.00000000E+00
  6.25933684E+00  0.00000000E+00  0.00000000E+00  6.25933684E+00  0.00000000E+00
  0.00000000E+00  6.25933684E+00  0.00000000E+00  0.00000000E+00  6.25933684E+00
  0.00000000E+00  0.00000000E+00  6.25933684E+00  0.00000000E+00  0.00000000E+00
  6.25933684E+00  0.00000000E+00  0.00000000E+00  6.25933684E+00  0.00000000E+00
  0.00000000E+00  6.25933684E+00  0.00000000E+00  0.00000000E+00  6.25933684E+00
  0.00000000E+00  0.00000000E+00  6.25933684E+00  0.00000000E+00  0.00000000E+00
  6.25933684E+00  0.00000000E+00  0.00000000E+00  6.25933684E+00  0.00000000E+00
  0.00000000E+00  6.25933684E+00  0.00000000E+00  0.00000000E+00  6.25933684E+00
  0.00000000E+00  0.00000000E+00  6.25933684E+00  0.00000000E+00  0.00000000E+00
  6.25933684E+00  0.00000000E+00  0.00000000E+00 -7.30225624E-01  3.10228121E+00
  0.00000000E+00 -7.30225624E-01  3.10228121E+00  0.00000000E+00 -7.30225624E-01
  3.10228121E+00  0.00000000E+00 -7.30225624E-01  3.10228121E+00  0.00000000E+00
 -7.30225624E-01  3.10228121E+00  0.00000000E+00 -7.30225624E-01  3.10228121E+00
  0.00000000E+00 -7.30225624E-01  3.10228121E+00  0.00000000E+00 -7.30225624E-01
  3.10228121E+00  0.00000000E+00 -7.30225624E-01  3.10228121E+00  0.00000000E+00
 -7.30225624E-01  3.10228121E+00  0.00000000E+00 -7.30225624E-01  3.10228121E+00
  0.00000000E+00 -7.30225624E-01  3.10228121E+00  0.00000000E+00 -7.30225624E-01
  3.10228121E+00  0.00000000E+00 -7.30225624E-01  3.10228121E+00  0.00000000E+00
 -7.30225624E-01  3.10228121E+00  0.00000000E+00 -7.30225624E-01  3.10228121E+00
  0.00000000E+00  1.89688006E+00  0.00000000E+00  1.65955503E-01  1.89688006E+00
  0.00000000E+00  1.65955503E-01  1.89688006E+00  0.00000000E+00  1.65955503E-01
  1.89688006E+00  0.00000000E+00  1.65955503E-01  1.89688006E+00  0.00000000E+00
  1.65955503E-01  1.89688006E+00  0.00000000E+00  1.65955503E-01  1.89688006E+00
  0.00000000E+00  1.65955503E-01  1.89688006E+00  0.00000000E+00  1.65955503E-01
  1.89688006E+00  0.00000000E+00  1.65955503E-01
Num ILSW                                   I              100
ILSW                                       I   N=         100
           0           0           0           0           2           0
           0           0           0           0           0          -1
           5           0           0           0           0           0
           0           0           0           0           0           0
           1           1           0           0           0           0
           0           0      100000           0          -1           0
           0           0           0           0           0           0
           0           0           0           1           0           0
           0 -2000000000           1           0           0           0
           0           0           4          52           0           0
           0           0           0           0           0           0
           0           0           0           4           0           1
           0           0           0           0           0           0
           0           0           0           0           0           0
           0           0           0           0           0           0
           0           0           0           0           0           0
           0           0           0           0
Num RLSW                                   I               52
RLSW                                       R   N=          52
  1.00000000E+00  1.00000000E+00  1.00000000E+00  1.00000000E+00  1.00000000E+00
  0.00000000E+00  0.00000000E+00  1.00000000E+00  0.00000000E+00  0.00000000E+00
  0.00000000E+00  0.00000000E+00  1.00000000E+00  0.00000000E+00  0.00000000E+00
  0.00000000E+00  0.00000000E+00  1.00000000E+00  0.00000000E+00  0.00000000E+00
  0.00000000E+00  0.00000000E+00  1.00000000E+00  0.00000000E+00  0.00000000E+00
  0.00000000E+00  0.00000000E+00  1.00000000E+00  0.00000000E+00  0.00000000E+00
  0.00000000E+00  0.00000000E+00  1.00000000E+00  0.00000000E+00  0.00000000E+00
  0.00000000E+00  0.00000000E+00  0.00000000E+00  1.00000000E+00  1.00000000E+00
  0.00000000E+00  1.00000000E+00  0.00000000E+00  0.00000000E+00  0.00000000E+00
  0.00000000E+00  0.00000000E+00  0.00000000E+00  0.00000000E+00  0.00000000E+00
  0.00000000E+00  0.00000000E+00
ECP-MxAtEC                                 I           250000
ECP-MaxLECP                                I               10
ECP-MaxAtL                                 I          2250000
ECP-MxTECP                                 I         11250000
ECP-LenNCZ                                 I               16
ECP-KFirst                                 I   N=          40
           0           1           0           0           0           2
           0           0           0           5           0           0
           0           9           0           0           0          13
           0           0           0           0           0           0
           0           0           0           0           0           0
           0           0           0           0           0           0
           0           0           0           0
ECP-KLast                                  I   N=          40
           0           1           0           0           0           4
           0           0           0           8           0           0
           0          12           0           0           0          16
           0           0           0           0           0           0
           0           0           0           0           0           0
           0           0           0           0           0           0
           0           0           0           0
ECP-LMax                                   I   N=           4
           0           4           0           0
ECP-LPSkip                                 I   N=           4
           1           0           1           1
ECP-RNFroz                                 R   N=           4
  0.00000000E+00  2.80000000E+01  0.00000000E+00  0.00000000E+00
ECP-NLP                                    I   N=          16
           2           2           2           2           2           2
           2           2           2           2           2           2
           2           2           2           2
ECP-CLP1                                   R   N=          16
  0.00000000E+00  4.99896490E+01  2.81006556E+02  6.14167390E+01  6.74162390E+01
  1.34807696E+02  1.45665480E+01  2.89684220E+01  3.55387560E+01  5.33397590E+01
  9.71646600E+00  1.49775000E+01 -2.01766180E+01 -2.60880770E+01 -2.20434000E-01
 -2.21646000E-01
ECP-CLP2                                   R   N=          16
  0.00000000E+00  0.00000000E+00  0.00000000E+00  0.00000000E+00  0.00000000E+00
  0.00000000E+00  0.00000000E+00  0.00000000E+00  0.00000000E+00  0.00000000E+00
  0.00000000E+00  0.00000000E+00  0.00000000E+00  0.00000000E+00  0.00000000E+00
  0.00000000E+00
ECP-ZLP                                    R   N=          16
  1.00000000E+00  4.00333760E+01  1.73005760E+01  8.85172000E+00  1.57201410E+01
  1.52082220E+01  8.29418600E+00  7.75394900E+00  1.38177510E+01  1.35878050E+01
  6.94763000E+00  6.96009900E+00  1.85229500E+01  1.82510350E+01  7.55790100E+00
  7.59740400E+00
MxBond                                     I                2
NBond                                      I   N=           4
           2           0           1           1
IBond                                      I   N=           8
           3           4           0           0           1           0
           1           0
RBond                                      R   N=           8
  1.00000000E+00  1.00000000E+00  0.00000000E+00  0.00000000E+00  1.00000000E+00
  0.00000000E+00  1.00000000E+00  0.00000000E+00
Virial Ratio                               R      2.285049375550367E+00
SCF Energy                                 R     -8.296854349556795E+02
MP2 Energy                                 R     -8.303682015295619E+02
Total Energy                               R     -8.303682015295619E+02
Post-SCF wavefunction norm                 R      1.108598536759501E+00
RMS Density                                R      8.485347909698696E-09
Job Status                                 I                1
Nuclear derivative order                   I                0
External E-field                           R   N=          35
  0.00000000E+00  0.00000000E+00  0.00000000E+00  0.00000000E+00  0.00000000E+00
  0.00000000E+00  0.00000000E+00  0.00000000E+00  0.00000000E+00  0.00000000E+00
  0.00000000E+00  0.00000000E+00  0.00000000E+00  0.00000000E+00  0.00000000E+00
  0.00000000E+00  0.00000000E+00  0.00000000E+00  0.00000000E+00  0.00000000E+00
  0.00000000E+00  0.00000000E+00  0.00000000E+00  0.00000000E+00  0.00000000E+00
  0.00000000E+00  0.00000000E+00  0.00000000E+00  0.00000000E+00  0.00000000E+00
  0.00000000E+00  0.00000000E+00  0.00000000E+00  0.00000000E+00  0.00000000E+00
IOpCl                                      I                0
IROHF                                      I                0
Alpha Orbital Energies                     R   N=         174
 -1.04741248E+02 -2.04756898E+01 -1.04607056E+01 -7.92787387E+00 -7.92517781E+00
 -7.92506985E+00 -7.47860978E+00 -5.30445416E+00 -5.30378177E+00 -5.30375854E+00
 -2.03205693E+00 -2.03163114E+00 -2.03160841E+00 -2.03089454E+00 -2.03089438E+00
 -1.24175672E+00 -9.06166844E-01 -6.44930250E-01 -5.49273659E-01 -4.53587387E-01
 -4.45187743E-01 -3.17583939E-01 -2.91383967E-01 -1.63844754E-01 -1.53581888E-01
 -1.53514647E-01  1.52453869E-01  1.76603033E-01  2.15384775E-01  2.26295336E-01
  2.40175364E-01  2.49646880E-01  2.52386849E-01  2.76091527E-01  2.96107543E-01
  3.04045480E-01  3.07500039E-01  3.14426585E-01  3.47257167E-01  3.73740931E-01
  3.78814020E-01  3.89041779E-01  4.19427352E-01  4.25478373E-01  4.51040507E-01
  5.02544609E-01  5.28381837E-01  5.42564876E-01  5.51991027E-01  5.58915561E-01
  5.69717204E-01  5.88297530E-01  6.42096426E-01  6.60598997E-01  7.37017091E-01
  7.53919977E-01  7.60052824E-01  7.68818500E-01  7.72589191E-01  7.90769132E-01
  7.91210563E-01  8.08216968E-01  8.21592027E-01  8.29879826E-01  8.34757836E-01
  8.60243812E-01  8.68643401E-01  8.73843463E-01  8.81528076E-01  8.94271318E-01
  9.00676664E-01  9.30434094E-01  9.51935352E-01  9.65321017E-01  9.92417067E-01
  1.00866859E+00  1.04330056E+00  1.08234066E+00  1.08848248E+00  1.10597114E+00
  1.12575172E+00  1.13920118E+00  1.19412607E+00  1.19679209E+00  1.21680782E+00
  1.24002791E+00  1.26269401E+00  1.30674558E+00  1.35248277E+00  1.40288702E+00
  1.44298969E+00  1.48894508E+00  1.54091925E+00  1.55519329E+00  1.59151596E+00
  1.60590417E+00  1.66534135E+00  1.68424486E+00  1.70972746E+00  1.73188237E+00
  1.74240871E+00  1.74400802E+00  1.76129469E+00  1.77412469E+00  1.80373436E+00
  1.85210224E+00  1.86991374E+00  1.90219089E+00  1.90579952E+00  1.96809641E+00
  2.05146697E+00  2.05152247E+00  2.10344565E+00  2.13693702E+00  2.15992405E+00
  2.29253313E+00  2.37661739E+00  2.49883273E+00  2.51320137E+00  2.54027287E+00
  2.56133975E+00  2.58133489E+00  2.59437041E+00  2.66588905E+00  2.67922560E+00
  2.69925954E+00  2.71145846E+00  2.73062757E+00  2.76089413E+00  2.77778664E+00
  2.88087428E+00  2.98594622E+00  3.01113751E+00  3.08050828E+00  3.18085241E+00
  3.20381875E+00  3.20880338E+00  3.24138104E+00  3.28379433E+00  3.29201959E+00
  3.30603492E+00  3.36694092E+00  3.52274185E+00  3.53469862E+00  3.53631223E+00
  3.82622947E+00  3.93114856E+00  4.29621874E+00  4.42850996E+00  4.50678155E+00
  4.54778031E+00  4.62664946E+00  4.76325513E+00  4.98092824E+00  5.12017478E+00
  5.34472665E+00  5.37939823E+00  5.65344321E+00  6.40531867E+00  6.57443161E+00
  6.83037859E+00  6.89152532E+00  6.90378993E+00  6.97491534E+00  7.27932382E+00
  7.33538140E+00  7.33918670E+00  7.43256657E+00  7.51721151E+00  7.74349768E+00
  7.78513750E+00  8.33301369E+00  1.46353845E+01  5.92111124E+01
Alpha MO coefficients                      R   N=       30276
  5.09596291E-06  2.86080586E-05  2.43313676E-06 -1.56581844E-04 -9.64937732E-05
  5.42457859E-07  2.95897879E-06  2.25387610E-07 -5.19108026E-06 -8.52129943E-06
 -1.10690729E-06  4.35066471E-05 -1.58851204E-04  1.38939913E-07  1.25440229E-05
 -3.93346847E-05  1.14232883E-06 -2.28884699E-06  8.76947094E-08  4.39866207E-09
 -3.14016838E-06 -1.43416986E-06  1.48399138E-05 -4.32357439E-07 -8.89503989E-08
  2.06487012E-05  9.35650427E-06  2.71972408E-05  1.10568891E-06 -1.09978531E-06
  5.78116465E-05  1.06028449E-05 -1.01755125E-07 -4.13688187E-07 -1.06910319E-07
 -9.79545199E-08  1.17774297E-07 -1.56485345E-06  1.00720566E-06  1.74430193E-07
 -2.25394812E-06  1.35601813E-05  5.28260538E-07 -5.48813362E-07 -5.10575268E-06
  8.93562684E-06 -3.59483868E-08  7.94114765E-08  1.01750530E-06  1.77529052E-05
 -4.67734053E-05 -3.39644543E-06  1.59851192E-06  1.94066433E-07 -1.26925561E-07
  7.24573798E-06  1.91959736E-06 -5.47514483E-07 -4.38341849E-06 -3.95316310E-07
  3.48531709E-07  2.76944529E-05 -6.09485517E-06 -1.42432413E-06  2.13405867E-06
  2.23620756E-07  1.73401461E-07  1.10129962E-07  2.97791644E-08 -1.22112642E-08
 -1.32681495E-07  2.34997382E-07 -8.96162898E-07 -2.43075987E-07  4.67756484E-08
  1.17666820E-06 -1.28047516E-06  5.74703704E-06  1.37416983E-06 -3.53683212E-08
 -9.01577101E-06  2.95534792E-06  4.47709007E-06  5.25179510E-07 -3.12057678E-07
 -6.99598302E-06  2.59029390E-06  3.67580655E-08 -2.22293745E-07 -9.99920344E-08
 -1.00066476E-07 -2.17584249E-07  2.50443614E-07  5.04307874E-07  5.27732129E-07
 -3.08866738E-06  6.03485341E-07 -5.40835405E-07  4.45036801E-07  2.97354649E-06
 -2.51688847E-06  9.99534917E-01  1.95316232E-03  1.83732135E-04 -4.17625479E-04
  7.56739840E-05  8.00432569E-05  1.78947832E-05 -7.59119995E-05  3.77545382E-07
  3.78703971E-05 -1.35489362E-04  6.85264171E-07 -1.84962875E-05  7.22941367E-05
 -3.68236313E-07  3.83209082E-06 -6.08181661E-05 -8.10292182E-07  2.45529946E-06
 -1.19766528E-05 -3.58557043E-07 -3.71937404E-06  2.40358273E-08 -3.98929944E-08
 -5.05239788E-06 -3.27427784E-06 -2.89967769E-05  1.32362428E-07 -1.88316309E-07
 -4.42667074E-05 -2.43620322E-05 -1.45656763E-06 -8.56136895E-07  2.59262294E-07
 -1.13411782E-05  3.91872205E-07 -1.70660375E-07 -2.07926073E-06  6.21863578E-06
  1.16258449E-07 -2.14113946E-07 -4.53754953E-06  4.06561767E-06  3.42050922E-07
  5.36013137E-07  3.22716702E-06 -3.17616054E-07  4.50684375E-07 -4.72524467E-06
  7.65808152E-06 -1.54707740E-06 -1.15651531E-05  5.65972871E-05 -1.03524470E-05
  1.09448208E-06 -2.64447535E-06  7.22018311E-08 -1.47420998E-05  1.69093878E-05
 -9.41597104E-07  2.22945660E-05  2.58547860E-05 -9.84603599E-07 -5.64675564E-07
  1.13120800E-07 -1.51973078E-09 -7.32425778E-07 -1.06830441E-06 -1.47751901E-05
  1.09294021E-06 -5.35957943E-07  1.05240734E-05 -3.43778354E-06  9.76804159E-01
 -9.26097738E-03  4.33922374E-02  1.30458389E-03  1.24231295E-03  9.43002120E-04
  1.57542797E-03  1.39907492E-04 -1.13741344E-03 -1.18353441E-03 -1.60705549E-04
 -3.49928195E-04  1.81902611E-04 -1.10746119E-04 -4.82195814E-05  2.13490853E-04
  1.64813481E-05  3.70237238E-05  6.83100816E-06 -1.13661920E-06  9.95616028E-05
  3.99206684E-05  4.84390086E-04 -9.51739626E-05 -1.34893307E-06 -9.88576095E-06
  1.43923987E-04 -6.23075956E-05 -3.38980516E-05 -2.28283333E-05 -2.06162306E-04
 -8.20910591E-05  1.00645467E-06  5.17484559E-06  1.73336227E-05  1.97004434E-07
 -1.68907597E-06  5.32975723E-06  6.43668159E-06  1.87930572E-05  5.48111187E-05
  2.80774106E-05 -2.65081387E-05 -8.26276912E-06 -1.61170422E-04 -5.04546618E-05
  3.88650718E-07  9.57121381E-06  2.59820806E-04  3.10780075E-04 -2.35359932E-03
 -6.88762494E-04  1.31122633E-04  1.55441447E-06 -5.19195215E-06  8.04530186E-04
 -7.32893039E-07 -2.08219991E-05 -3.44170934E-04 -4.74485760E-06  1.61800500E-05
  1.53413882E-03  5.04675487E-05 -1.40893641E-04  1.69178979E-04 -1.73255291E-05
 -1.23192622E-05 -3.42713807E-06  1.90724188E-06  1.00979555E-07  3.66452669E-06
 -2.79741231E-06  2.92965643E-06 -1.62526049E-05 -4.63301939E-07  7.07792799E-06
  1.54456757E-05  2.87962187E-04  9.56993898E-05  7.95091094E-07 -5.31181922E-04
 -4.38054877E-05  2.32578206E-04  7.89414165E-05  2.94935566E-06 -3.92249834E-04
 -4.93434493E-06 -1.13408359E-06 -3.10206060E-05 -1.14873725E-06  2.12322354E-06
  1.56490139E-06  4.01907758E-05 -1.33630093E-06  4.47263817E-05 -9.17773291E-05
 -2.99190270E-06 -5.96657736E-05 -4.19864381E-06  1.36534965E-04  2.31937117E-05
  3.09796658E-06  5.79479640E-05  3.60501380E-05 -2.93701979E-04  4.95234496E-04
 -5.50727408E-04  8.52601308E-07 -1.60685261E-05 -5.41340441E-07  9.44147431E-05
 -6.95919031E-04 -8.55559022E-06 -5.34613183E-05  2.85766015E-04  2.42387700E-06
  1.63838062E-04  3.72010319E-05  4.31196008E-05  1.41355844E-05  1.43712764E-04
 -6.09805906E-06  1.66345095E-05 -1.84404624E-06 -2.47407572E-07  6.43345347E-06
  9.76614522E-06 -3.48234666E-04  5.18671617E-06  4.98586328E-06 -5.03756482E-04
 -1.93757292E-04  6.07233111E-05  8.39615610E-06 -2.97493222E-05  1.70587308E-04
 -7.51896656E-05  3.00687922E-06 -2.46161263E-05  1.61211945E-04  2.66547678E-06
  3.39059679E-06 -1.18191324E-04  1.94053887E-04 -5.84673421E-06 -5.17871478E-05
  1.21684596E-04 -8.93208057E-07 -7.93582705E-06 -7.33480508E-05  6.67110612E-05
  3.20881205E-04  1.50951453E-03  1.87402377E-03  2.18956465E-04 -2.44271033E-04
  4.31481273E-05 -2.21976955E-05 -1.40470569E-03  5.82635679E-05 -7.51917320E-05
  2.47255949E-03 -2.02742051E-04  7.32632879E-05  2.30842042E-06 -2.20522609E-07
 -6.72035950E-06 -1.30207188E-05 -7.17525284E-05 -6.03007747E-04  6.04056350E-05
  1.57818868E-06  1.22916331E-03 -3.32258336E-05 -6.79406862E-05 -5.40352192E-05
 -1.11189979E-04  3.01002275E-03  2.50528258E-03 -2.80309029E-05  3.86635132E-05
 -3.15556300E-06 -1.10545286E-05  5.71771830E-04  1.85285830E-05 -3.56956760E-04
  2.61058583E-03  2.29573358E-05 -1.99365718E-04  1.01642599E-03 -2.25065782E-05
 -2.08329889E-05 -1.90955153E-06 -1.14074825E-06 -4.38393941E-05 -3.35894583E-05
 -2.24619302E-04  1.43889230E-05  9.60111686E-06 -2.44420714E-04 -3.78345570E-05
 -3.16410509E-04 -8.01105116E-06  2.53592959E-05 -7.11642742E-04  1.77092270E-04
 -1.30714911E-07  5.92299324E-06 -2.31008962E-05  2.80795028E-06 -1.10374198E-06
  5.27780405E-05 -4.20765547E-05 -5.19561256E-06 -1.56078741E-05 -6.52562000E-05